INSANE! Membrane UpperLeaflet>loPI:POPI:DPPI:PYPI:ERGO=140.0:15.0:9.0:6.0:30.0 LowerLeaflet>PSPI:POPI:POPS:YOPS:POPE:YOPE:POPC:YOPC:ERGO=6.0:14.0:21.0:9.0:9.0:21.0:12.0:48.0:60.0
49207
    1loPI    C1    1   9.352   0.214   9.970  0.1720  0.2194  0.2639
    1loPI    C2    2   8.968   0.317  10.015  0.0559 -0.1044  0.0520
    1loPI    C3    3   9.153   0.107  10.300  0.0376 -0.0612  0.0960
    1loPI   PO4    4   9.440   0.350   9.761 -0.1007 -0.3201 -0.4147
    1loPI   GL1    5   9.599   0.380   9.404  0.1412  0.1950 -0.0495
    1loPI   GL2    6   9.995   0.325   9.398  0.3463  0.0850  0.1132
    1loPI   C1A    7   9.403   0.575   8.975 -0.0097 -0.1026 -0.1616
    1loPI   C2A    8   9.604   0.650   8.573 -0.4961 -0.2147 -0.1063
    1loPI   C3A    9   9.823   0.741   8.178  0.0784  0.1592  0.1013
    1loPI   C4A   10   9.702   0.883   7.705  0.0145 -0.1482 -0.0898
    1loPI   C5A   11   9.457   0.938   7.399  0.0308 -0.1191 -0.1281
    1loPI   C6A   12   9.131   0.967   7.103  0.2165 -0.2080  0.0692
    1loPI   C1B   13  10.008   0.519   8.956 -0.0981 -0.1899  0.1264
    1loPI   C2B   14  10.247   0.674   8.566  0.0242 -0.0742 -0.1002
    1loPI   C3B   15  10.364   0.706   8.157  0.0797 -0.0844  0.3844
    1loPI   C4B   16  10.189   0.652   7.733  0.0759  0.2062  0.2688
    2loPI    C1   17  12.511  10.262   9.974 -0.1060  0.0385 -0.1934
    2loPI    C2   18  12.688   9.982   9.749  0.1170 -0.0450  0.0812
    2loPI    C3   19  12.635   9.920  10.141  0.0331  0.2360  0.1164
    2loPI   PO4   20  12.295  10.408   9.737 -0.1969  0.3562  0.2105
    2loPI   GL1   21  12.431  10.523   9.201  0.2010 -0.0171  0.0757
    2loPI   GL2   22  12.446  10.080   9.283 -0.2555  0.0158  0.2925
    2loPI   C1A   23  12.694  10.367   8.929 -0.2253  0.1882  0.0619
    2loPI   C2A   24  12.729   9.975   8.790  0.1830  0.0423 -0.2079
    2loPI   C3A   25  12.847   9.931   8.287  0.0284 -0.0344  0.0441
    2loPI   C4A   26  12.842  10.072   7.829 -0.1327  0.0927  0.3166
    2loPI   C5A   27  12.423  10.052   7.762 -0.0530 -0.3252  0.2621
    2loPI   C6A   28  12.084  10.215   7.919 -0.0949 -0.1465  0.1548
    2loPI   C1B   29  12.236  10.181   8.846  0.1353  0.1874  0.0945
    2loPI   C2B   30  12.071  10.624   8.543 -0.3130 -0.1279 -0.1305
    2loPI   C3B   31  12.327  10.537   8.189  0.0272 -0.0016 -0.1670
    2loPI   C4B   32  12.655  10.511   7.977  0.2354  0.0485  0.0238
    3loPI    C1   33   2.690  13.288  10.156 -0.0323  0.0488 -0.0543
    3loPI    C2   34   2.530  13.328  10.520  0.2953 -0.0432  0.1039
    3loPI    C3   35   2.918  13.240  10.481  0.2043 -0.3056 -0.2656
    3loPI   PO4   36   2.668  13.056   9.981  0.0891 -0.1823 -0.2774
    3loPI   GL1   37   2.734  13.043   9.486 -0.0418 -0.2398  0.0516
    3loPI   GL2   38   2.703  13.365   9.570  0.1510  0.2736 -0.0723
    3loPI   C1A   39   2.741  13.006   8.980  0.2173  0.1913  0.4218
    3loPI   C2A   40   2.767  13.090   8.529  0.0409  0.2320  0.1833
    3loPI   C3A   41   2.821  12.939   8.172  0.1189  0.0502  0.0140
    3loPI   C4A   42   2.894  12.665   7.819 -0.1103  0.0684  0.1940
    3loPI   C5A   43   3.233  12.372   7.694  0.1665  0.0514 -0.1027
    3loPI   C6A   44   3.462  12.018   7.560 -0.3437 -0.1668 -0.1408
    3loPI   C1B   45   2.576  13.462   9.132 -0.4108 -0.1617  0.0322
    3loPI   C2B   46   2.617  13.560   8.662 -0.0753  0.0080  0.2196
    3loPI   C3B   47   2.733  13.420   8.201  0.1445  0.3519 -0.0252
    3loPI   C4B   48   3.068  13.424   7.880 -0.2215  0.2226  0.2434
    4loPI    C1   49   8.899   2.599   9.638 -0.2512  0.0180  0.0307
    4loPI    C2   50   9.004   2.288   9.868 -0.2370 -0.2339 -0.3081
    4loPI    C3   51   8.749   2.564  10.007 -0.1243 -0.3078  0.0548
    4loPI   PO4   52   9.108   2.699   9.580  0.0512 -0.3612 -0.3583
    4loPI   GL1   53   9.406   2.781   9.243  0.0501 -0.0974 -0.0582
    4loPI   GL2   54   9.204   2.589   9.095 -0.1648 -0.2377 -0.2731
    4loPI   C1A   55   9.694   2.922   8.884  0.0062 -0.1742  0.1858
    4loPI   C2A   56   9.946   3.024   8.567 -0.0396 -0.1284  0.0033
    4loPI   C3A   57   9.886   3.085   8.127 -0.1988  0.1392 -0.0654
    4loPI   C4A   58   9.672   3.024   7.811 -0.0344  0.0122 -0.4412
    4loPI   C5A   59   9.512   2.824   7.396  0.1497 -0.0494  0.0938
    4loPI   C6A   60   9.395   2.643   7.000 -0.1995 -0.1347 -0.0715
    4loPI   C1B   61   9.183   2.627   8.746 -0.1781 -0.0383  0.3246
    4loPI   C2B   62   9.049   2.647   8.365  0.3785 -0.0949 -0.3228
    4loPI   C3B   63   8.858   2.737   7.985  0.1282 -0.0588 -0.1954
    4loPI   C4B   64   8.960   2.849   7.581  0.1301  0.1054  0.0004
    5loPI    C1   65  16.055   0.519  10.133  0.2210 -0.0165  0.1564
    5loPI    C2   66  16.352   0.435  10.388  0.1516  0.3444  0.3625
    5loPI    C3   67  16.000   0.568  10.526  0.0302  0.3111  0.0931
    5loPI   PO4   68  16.115   0.383   9.957  0.3582  0.0871 -0.0644
    5loPI   GL1   69  16.118   0.319   9.589  0.1579 -0.2719 -0.4657
    5loPI   GL2   70  16.378   0.392   9.525 -0.2229  0.3967  0.1749
    5loPI   C1A   71  16.049   0.447   9.173 -0.1674 -0.0135  0.1398
    5loPI   C2A   72  15.915   0.521   8.753 -0.2096  0.2035 -0.2069
    5loPI   C3A   73  16.065   0.495   8.352 -0.3160  0.2282  0.2565
    5loPI   C4A   74  16.466   0.389   8.151 -0.2124 -0.0744 -0.1071
    5loPI   C5A   75  16.866   0.371   8.381 -0.0013 -0.1146  0.0379
    5loPI   C6A   76  17.252   0.452   8.227  0.1377  0.2848  0.1069
    5loPI   C1B   77  16.764   0.097   9.453  0.1167 -0.3965 -0.1278
    5loPI   C2B   78  16.791  -0.271   9.184  0.0200  0.1680 -0.2016
    5loPI   C3B   79  16.880  -0.422   8.888  0.1938 -0.1367 -0.0512
    5loPI   C4B   80  16.744  -0.317   8.404  0.3050  0.0558 -0.1135
    6loPI    C1   81   9.951  16.564   9.688  0.1985 -0.1745 -0.1545
    6loPI    C2   82  10.151  16.619  10.030  0.0673 -0.0744 -0.0931
    6loPI    C3   83  10.004  16.258   9.941  0.2020 -0.1285 -0.0993
    6loPI   PO4   84  10.137  16.652   9.493  0.1511 -0.0766  0.0229
    6loPI   GL1   85  10.209  16.549   9.112 -0.0932  0.3596  0.0344
    6loPI   GL2   86  10.557  16.391   9.190  0.0491  0.2875 -0.0056
    6loPI   C1A   87  10.124  16.445   8.697 -0.5698  0.2005  0.3836
    6loPI   C2A   88  10.155  16.545   8.317  0.0066  0.5394  0.0626
    6loPI   C3A   89  10.183  16.489   7.958  0.0595  0.0541 -0.0587
    6loPI   C4A   90  10.223  16.371   7.500  0.0575 -0.5291 -0.0206
    6loPI   C5A   91  10.042  16.500   7.122 -0.2692  0.1197  0.2150
    6loPI   C6A   92   9.814  16.489   6.740  0.0871  0.2495  0.1952
    6loPI   C1B   93  11.048  16.384   8.938  0.1225  0.2112 -0.1415
    6loPI   C2B   94  11.198  16.232   8.516  0.0363 -0.1482  0.1907
    6loPI   C3B   95  11.079  16.419   8.104  0.0772  0.3497 -0.0685
    6loPI   C4B   96  11.163  16.873   8.077 -0.0192 -0.0002 -0.0428
    7loPI    C1   97  18.739  14.159  10.068  0.2168 -0.1141  0.0700
    7loPI    C2   98  18.738  14.529  10.219  0.0187 -0.1752  0.2238
    7loPI    C3   99  19.026  14.271  10.322  0.1466 -0.0715  0.1307
    7loPI   PO4  100  18.810  14.209   9.749  0.0728  0.0202  0.1058
    7loPI   GL1  101  18.931  13.998   9.330 -0.3284 -0.0934 -0.0647
    7loPI   GL2  102  18.828  13.818   9.124  0.1203  0.0368 -0.2099
    7loPI   C1A  103  19.060  14.165   8.902 -0.0534  0.1482  0.0761
    7loPI   C2A  104  19.038  14.018   8.465 -0.1759  0.1770 -0.3055
    7loPI   C3A  105  18.855  14.073   8.131  0.0961 -0.1253 -0.0291
    7loPI   C4A  106  18.788  13.973   7.654  0.3182 -0.1877 -0.2075
    7loPI   C5A  107  19.178  14.006   7.391  0.1192 -0.0391 -0.2338
    7loPI   C6A  108  19.441  13.837   7.162  0.0657  0.3603 -0.4924
    7loPI   C1B  109  18.661  13.894   8.772  0.1536  0.3560  0.2233
    7loPI   C2B  110  18.552  13.805   8.504  0.0055 -0.2593  0.0658
    7loPI   C3B  111  18.354  13.895   8.078 -0.1338 -0.1690  0.1330
    7loPI   C4B  112  18.264  13.659   7.745  0.0575  0.0288 -0.1650
    8loPI    C1  113   2.009  14.912  10.148 -0.2228  0.0653 -0.0103
    8loPI    C2  114   2.125  14.554  10.282  0.0963  0.0660 -0.2718
    8loPI    C3  115   2.242  14.885  10.472 -0.0575  0.0398 -0.1296
    8loPI   PO4  116   2.059  14.815   9.794 -0.1709  0.1385  0.1449
    8loPI   GL1  117   2.236  15.033   9.402  0.1660  0.1849  0.2053
    8loPI   GL2  118   2.669  15.098   9.354 -0.2358  0.1402  0.0406
    8loPI   C1A  119   2.389  15.086   8.984 -0.0309  0.0398  0.0945
    8loPI   C2A  120   2.313  15.015   8.517  0.0682  0.3396  0.1182
    8loPI   C3A  121   2.326  15.212   8.155  0.1630 -0.0737  0.3982
    8loPI   C4A  122   2.269  15.300   7.714  0.1564  0.1926 -0.3495
    8loPI   C5A  123   1.997  15.329   7.370 -0.1913  0.0380 -0.1239
    8loPI   C6A  124   1.975  15.369   6.837 -0.2719 -0.4414  0.1847
    8loPI   C1B  125   2.874  15.064   8.962  0.1630 -0.0100 -0.2485
    8loPI   C2B  126   2.821  15.009   8.463 -0.0170  0.0058 -0.2486
    8loPI   C3B  127   2.780  14.984   8.077  0.1070  0.1940 -0.0113
    8loPI   C4B  128   2.766  14.894   7.620 -0.0909 -0.5652 -0.0273
    9loPI    C1  129  12.938   1.959   9.795 -0.1512  0.2255 -0.1977
    9loPI    C2  130  13.254   2.198   9.741  0.2327 -0.1955  0.1107
    9loPI    C3  131  13.138   2.100  10.111 -0.2861 -0.0214  0.0016
    9loPI   PO4  132  12.758   1.971   9.658 -0.1973 -0.0626  0.2583
    9loPI   GL1  133  12.697   1.696   9.323 -0.1855  0.0578 -0.3240
    9loPI   GL2  134  12.942   1.732   9.066 -0.2695  0.2977 -0.2834
    9loPI   C1A  135  12.290   1.685   9.192 -0.0045 -0.0070 -0.1299
    9loPI   C2A  136  12.087   1.523   8.794 -0.6540  0.3010  0.1913
    9loPI   C3A  137  12.102   1.568   8.350  0.0711  0.2451  0.0742
    9loPI   C4A  138  12.186   1.622   7.894 -0.1149  0.2697  0.0316
    9loPI   C5A  139  12.174   1.598   7.391 -0.0820  0.1897  0.1566
    9loPI   C6A  140  12.151   1.495   6.929 -0.3302  0.4969 -0.2597
    9loPI   C1B  141  12.748   1.674   8.652  0.0244 -0.1410  0.3002
    9loPI   C2B  142  12.590   1.584   8.270  0.2003  0.0598 -0.1620
    9loPI   C3B  143  12.758   1.644   7.876  0.3073  0.1222  0.0297
    9loPI   C4B  144  13.045   1.354   7.599  0.2781  0.1307 -0.1550
   10loPI    C1  145   8.071  13.031   9.513 -0.0204 -0.0527 -0.2446
   10loPI    C2  146   7.857  12.753   9.704 -0.1379  0.1085 -0.1395
   10loPI    C3  147   8.220  12.853   9.839 -0.2000  0.1860 -0.0285
   10loPI   PO4  148   7.898  13.126   9.325  0.5140  0.0111 -0.1576
   10loPI   GL1  149   7.823  13.136   8.811 -0.2377  0.2454  0.0822
   10loPI   GL2  150   7.520  13.369   8.973 -0.0509 -0.0924  0.2117
   10loPI   C1A  151   7.770  13.017   8.493 -0.2175 -0.1576  0.0497
   10loPI   C2A  152   7.844  13.146   8.085  0.2185  0.0847 -0.1878
   10loPI   C3A  153   7.767  13.389   7.746  0.2232 -0.2644  0.1372
   10loPI   C4A  154   7.778  13.299   7.254  0.1766 -0.0096  0.0591
   10loPI   C5A  155   7.492  13.335   6.993 -0.0753 -0.0621 -0.0818
   10loPI   C6A  156   7.123  13.401   7.001  0.3759  0.3836 -0.0666
   10loPI   C1B  157   7.452  13.479   8.568 -0.2861 -0.3121 -0.3746
   10loPI   C2B  158   7.403  13.468   8.137 -0.1332 -0.0799 -0.0866
   10loPI   C3B  159   7.264  13.287   7.724 -0.1108 -0.3166  0.3695
   10loPI   C4B  160   7.217  13.084   7.379  0.1407 -0.1856 -0.0068
   11loPI    C1  161   6.596  17.522   9.583 -0.0462  0.0699  0.0320
   11loPI    C2  162   6.872  17.741   9.393 -0.1753  0.2854  0.0891
   11loPI    C3  163   6.592  17.921   9.615 -0.3023  0.0628  0.1125
   11loPI   PO4  164   6.529  17.403   9.391 -0.3786 -0.1990  0.1136
   11loPI   GL1  165   6.712  17.412   9.017  0.1189 -0.0230  0.0721
   11loPI   GL2  166   6.470  17.217   8.919  0.3437  0.0288 -0.1459
   11loPI   C1A  167   6.938  17.418   8.666  0.1042 -0.2174  0.1838
   11loPI   C2A  168   6.918  17.522   8.271 -0.0686  0.0896  0.1392
   11loPI   C3A  169   6.731  17.478   7.947 -0.3632 -0.0295  0.0117
   11loPI   C4A  170   6.764  17.536   7.464 -0.0507  0.1473  0.1005
   11loPI   C5A  171   6.630  17.818   7.174 -0.3212  0.1704  0.0510
   11loPI   C6A  172   6.525  18.011   6.835  0.2458  0.2256  0.3209
   11loPI   C1B  173   6.509  17.265   8.455 -0.1927 -0.2034  0.3506
   11loPI   C2B  174   6.430  17.036   8.079  0.2133 -0.2837 -0.0155
   11loPI   C3B  175   6.271  16.990   7.658  0.0362 -0.1181  0.1899
   11loPI   C4B  176   6.087  16.624   7.525  0.1993 -0.0640  0.1575
   12loPI    C1  177  15.985  12.851   9.914  0.0868  0.4340 -0.0387
   12loPI    C2  178  15.911  12.799  10.303 -0.0669 -0.0709 -0.1269
   12loPI    C3  179  16.180  13.071  10.185  0.3948 -0.2963  0.3619
   12loPI   PO4  180  15.844  12.617   9.849 -0.0392  0.0552 -0.1844
   12loPI   GL1  181  15.622  12.708   9.546  0.2661  0.0343  0.1200
   12loPI   GL2  182  16.037  12.656   9.412 -0.1167  0.3295  0.2502
   12loPI   C1A  183  15.613  12.793   9.208 -0.0562  0.1404 -0.3575
   12loPI   C2A  184  15.335  12.947   8.859  0.1079 -0.0486 -0.1884
   12loPI   C3A  185  15.154  12.723   8.516 -0.2841 -0.3979  0.1684
   12loPI   C4A  186  15.297  12.457   8.245 -0.1398 -0.0346 -0.0221
   12loPI   C5A  187  15.338  12.488   7.880  0.1177 -0.0107 -0.1761
   12loPI   C6A  188  15.498  12.725   7.599  0.0794  0.1904  0.0397
   12loPI   C1B  189  15.986  12.697   8.937  0.0467  0.1400 -0.0240
   12loPI   C2B  190  16.096  12.584   8.452  0.0508  0.0725 -0.2079
   12loPI   C3B  191  16.352  12.642   8.072 -0.2661 -0.1824 -0.1822
   12loPI   C4B  192  16.352  12.424   7.700  0.0647 -0.4000 -0.0109
   13loPI    C1  193  11.678  17.416   9.946  0.2165  0.1212 -0.2842
   13loPI    C2  194  11.391  17.261   9.714  0.1000  0.0304 -0.0819
   13loPI    C3  195  11.308  17.370  10.089  0.3520 -0.0826  0.0095
   13loPI   PO4  196  11.879  17.489   9.658 -0.0984 -0.1443 -0.1485
   13loPI   GL1  197  12.126  17.539   9.375 -0.2487  0.1527  0.2275
   13loPI   GL2  198  12.266  17.858   9.480 -0.1725  0.0583  0.0295
   13loPI   C1A  199  12.480  17.599   9.023  0.1574 -0.1063 -0.2751
   13loPI   C2A  200  12.874  17.542   8.714 -0.2519  0.1713 -0.0049
   13loPI   C3A  201  13.012  17.507   8.331 -0.1134  0.1498  0.1149
   13loPI   C4A  202  13.201  17.190   8.147  0.2010  0.1300  0.2466
   13loPI   C5A  203  13.589  16.981   8.227  0.1687  0.7060 -0.1564
   13loPI   C6A  204  13.961  16.793   8.496  0.0502 -0.1956 -0.1410
   13loPI   C1B  205  12.459  18.091   9.230  0.0092  0.1397 -0.1751
   13loPI   C2B  206  12.413  18.411   8.894 -0.1168  0.3201  0.1026
   13loPI   C3B  207  12.310  18.737   8.600  0.0332 -0.0859  0.0465
   13loPI   C4B  208  12.399  18.765   8.240 -0.1776 -0.2424  0.0314
   14loPI    C1  209  14.692  18.767  10.456 -0.0064  0.1477  0.0220
   14loPI    C2  210  14.465  18.778  10.785  0.1586  0.0854  0.1393
   14loPI    C3  211  14.861  18.829  10.813  0.1928 -0.0762 -0.0310
   14loPI   PO4  212  14.631  18.704  10.173  0.2210 -0.0434  0.1191
   14loPI   GL1  213  14.707  18.728   9.754 -0.0003  0.0437  0.1734
   14loPI   GL2  214  14.443  18.784   9.708  0.3195 -0.2317 -0.0303
   14loPI   C1A  215  14.656  18.606   9.261  0.0828 -0.0300 -0.3657
   14loPI   C2A  216  14.514  18.428   8.822  0.1972 -0.1541 -0.1379
   14loPI   C3A  217  14.465  18.531   8.315  0.1400  0.2883  0.1348
   14loPI   C4A  218  14.522  18.651   7.930  0.0191 -0.0418 -0.1402
   14loPI   C5A  219  14.407  18.810   7.723 -0.0747 -0.0507  0.1585
   14loPI   C6A  220  14.307  19.164   7.479 -0.0023 -0.0367 -0.2219
   14loPI   C1B  221  14.206  18.749   9.260  0.1578  0.0208 -0.1518
   14loPI   C2B  222  14.049  18.755   8.756  0.3879 -0.2601  0.0730
   14loPI   C3B  223  13.977  18.472   8.374 -0.0118  0.1649  0.0157
   14loPI   C4B  224  13.752  18.112   8.381 -0.0745 -0.2558 -0.2463
   15loPI    C1  225   9.362  10.998   9.694  0.0134 -0.0030 -0.0164
   15loPI    C2  226   9.202  11.006  10.061  0.2205  0.0840  0.0735
   15loPI    C3  227   9.433  10.698   9.950 -0.1351 -0.1224 -0.1129
   15loPI   PO4  228   9.156  11.014   9.432 -0.0435  0.0750 -0.1592
   15loPI   GL1  229   9.021  10.830   9.095 -0.1114  0.3737  0.2936
   15loPI   GL2  230   9.120  11.172   8.967  0.3236 -0.1509  0.1215
   15loPI   C1A  231   8.879  10.793   8.693 -0.2593  0.1834  0.0225
   15loPI   C2A  232   8.804  10.676   8.254  0.0972  0.1592  0.1560
   15loPI   C3A  233   8.867  10.650   7.829 -0.0829  0.0564  0.3024
   15loPI   C4A  234   8.675  10.476   7.462  0.0526 -0.1809 -0.1550
   15loPI   C5A  235   8.343  10.693   7.352 -0.1033  0.1897  0.1712
   15loPI   C6A  236   8.278  10.966   6.957  0.2835 -0.0367 -0.1926
   15loPI   C1B  237   9.126  11.187   8.479  0.3251  0.1316 -0.0314
   15loPI   C2B  238   9.196  11.050   8.067 -0.2280 -0.0110 -0.1577
   15loPI   C3B  239   9.448  11.136   7.646  0.0769  0.1014  0.0843
   15loPI   C4B  240   9.566  11.034   7.209  0.3833  0.4228  0.2559
   16loPI    C1  241  12.415   8.760   9.732 -0.1013  0.1659  0.0828
   16loPI    C2  242  12.744   8.955   9.849 -0.0558  0.1116  0.0458
   16loPI    C3  243  12.414   8.965  10.075  0.0286  0.0153  0.1749
   16loPI   PO4  244  12.418   8.526   9.645  0.0106  0.0349 -0.4049
   16loPI   GL1  245  12.207   8.547   9.302 -0.0970  0.0743 -0.0116
   16loPI   GL2  246  12.138   8.769   9.298  0.2045 -0.2692  0.1745
   16loPI   C1A  247  12.290   8.151   9.057  0.2165  0.0280  0.0202
   16loPI   C2A  248  11.981   7.787   8.989 -0.0300 -0.0387  0.1747
   16loPI   C3A  249  11.787   7.896   8.597  0.1597 -0.0340 -0.1324
   16loPI   C4A  250  11.858   7.822   8.107  0.3283  0.0608 -0.0007
   16loPI   C5A  251  12.216   7.558   7.879  0.0382  0.1109  0.3683
   16loPI   C6A  252  12.608   7.630   7.650 -0.1244 -0.0785  0.4585
   16loPI   C1B  253  11.880   8.540   8.954 -0.2902 -0.1180 -0.1450
   16loPI   C2B  254  11.950   8.342   8.603  0.1149 -0.0626 -0.0226
   16loPI   C3B  255  11.913   8.394   8.159  0.2198 -0.1209 -0.0629
   16loPI   C4B  256  11.565   8.576   7.908 -0.0322  0.3185 -0.0087
   17loPI    C1  257   9.547   9.856  10.071  0.0173  0.2491  0.2674
   17loPI    C2  258   9.378   9.559  10.279  0.0137  0.2375  0.2482
   17loPI    C3  259   9.618   9.822  10.463  0.1622  0.1160  0.2307
   17loPI   PO4  260   9.606   9.720   9.902 -0.1750  0.1696  0.0695
   17loPI   GL1  261   9.527   9.683   9.445  0.0625 -0.0380  0.1000
   17loPI   GL2  262   9.723   9.502   9.362 -0.0152 -0.6490  0.0112
   17loPI   C1A  263   9.336   9.492   9.001 -0.0317  0.1782  0.3212
   17loPI   C2A  264   9.292   9.298   8.583  0.2404 -0.0016  0.1956
   17loPI   C3A  265   9.392   9.236   8.074  0.1871 -0.0190  0.1526
   17loPI   C4A  266   9.312   9.301   7.693 -0.2574 -0.0887 -0.2237
   17loPI   C5A  267   8.932   9.255   7.504  0.0374 -0.0083 -0.1202
   17loPI   C6A  268   8.534   9.019   7.422  0.1369 -0.2093 -0.2007
   17loPI   C1B  269   9.770   9.589   8.911 -0.1891 -0.1247 -0.1751
   17loPI   C2B  270   9.943   9.782   8.550  0.0952 -0.1747 -0.3638
   17loPI   C3B  271  10.188   9.745   8.122  0.0063  0.1064  0.0438
   17loPI   C4B  272  10.403   9.582   7.784  0.1243  0.1590  0.0925
   18loPI    C1  273  11.491   1.520  10.399 -0.0321  0.0760  0.0923
   18loPI    C2  274  11.841   1.701  10.331  0.2186 -0.3845  0.1147
   18loPI    C3  275  11.669   1.727  10.691  0.1332 -0.0062  0.0508
   18loPI   PO4  276  11.341   1.561  10.174 -0.0477  0.2013  0.3091
   18loPI   GL1  277  11.602   1.609   9.856 -0.0959 -0.0331 -0.1545
   18loPI   GL2  278  11.776   1.321   9.944  0.2643  0.3229 -0.0477
   18loPI   C1A  279  11.631   1.755   9.382  0.0823 -0.0549 -0.5143
   18loPI   C2A  280  11.547   1.837   8.985  0.0947 -0.3466 -0.4953
   18loPI   C3A  281  11.345   1.948   8.574 -0.1207 -0.1578  0.0450
   18loPI   C4A  282  11.032   1.910   8.200 -0.0652  0.1988  0.1914
   18loPI   C5A  283  11.010   2.039   7.762 -0.0491  0.2568  0.0609
   18loPI   C6A  284  10.863   2.165   7.297  0.0027  0.1002 -0.0965
   18loPI   C1B  285  11.967   1.352   9.468 -0.0001 -0.2609 -0.4093
   18loPI   C2B  286  12.008   1.149   9.058  0.0137  0.1143 -0.1970
   18loPI   C3B  287  12.073   1.043   8.757  0.1138 -0.1595  0.0329
   18loPI   C4B  288  11.978   0.990   8.357 -0.2142  0.2715 -0.2306
   19loPI    C1  289   8.586   1.958   9.757 -0.0783 -0.0335  0.0668
   19loPI    C2  290   8.229   1.981   9.934 -0.0197  0.2552  0.1525
   19loPI    C3  291   8.556   2.104  10.128  0.0990  0.1889 -0.0037
   19loPI   PO4  292   8.809   2.124   9.463  0.0657  0.0887  0.0948
   19loPI   GL1  293   8.718   2.442   9.113  0.0598  0.0182  0.0005
   19loPI   GL2  294   8.720   2.762   9.022  0.1150  0.3505 -0.4238
   19loPI   C1A  295   8.641   2.295   8.737 -0.0029  0.1217 -0.0531
   19loPI   C2A  296   8.673   2.273   8.408  0.2110  0.0115  0.2701
   19loPI   C3A  297   8.721   2.236   8.040 -0.3969 -0.0142 -0.2021
   19loPI   C4A  298   8.667   2.341   7.581 -0.0992  0.2757  0.0946
   19loPI   C5A  299   8.633   2.309   7.142  0.0414  0.2172  0.0048
   19loPI   C6A  300   8.523   2.254   6.707  0.4465  0.1537 -0.1296
   19loPI   C1B  301   8.597   2.760   8.640  0.2491 -0.0522 -0.1689
   19loPI   C2B  302   8.393   2.796   8.291 -0.2410  0.0397  0.3012
   19loPI   C3B  303   8.295   2.829   7.839 -0.1859 -0.2874  0.2430
   19loPI   C4B  304   8.499   2.778   7.430  0.5176 -0.2009  0.3057
   20loPI    C1  305   5.907   4.332   9.722  0.1502  0.0676  0.2732
   20loPI    C2  306   6.135   4.203  10.025  0.0581 -0.4189  0.1430
   20loPI    C3  307   5.847   3.968   9.877 -0.0467 -0.0980 -0.1768
   20loPI   PO4  308   6.081   4.521   9.600  0.2918 -0.0555 -0.0808
   20loPI   GL1  309   6.120   4.783   9.303  0.1100 -0.1389 -0.1182
   20loPI   GL2  310   5.955   4.498   9.101 -0.0084  0.1824 -0.3159
   20loPI   C1A  311   6.006   4.939   8.901  0.1745  0.0617 -0.0084
   20loPI   C2A  312   5.927   5.009   8.439 -0.2976 -0.1213 -0.1299
   20loPI   C3A  313   5.901   5.098   8.061 -0.1064  0.0837  0.3498
   20loPI   C4A  314   6.138   4.961   7.736  0.0441  0.2293  0.3464
   20loPI   C5A  315   6.262   4.637   7.493 -0.1050 -0.4389  0.1201
   20loPI   C6A  316   6.177   4.509   7.020  0.0308  0.1718 -0.0913
   20loPI   C1B  317   5.632   4.396   8.803  0.3298 -0.0289  0.1167
   20loPI   C2B  318   5.507   4.592   8.447  0.1109 -0.1128 -0.0170
   20loPI   C3B  319   5.567   4.682   7.974 -0.2875 -0.3601  0.0524
   20loPI   C4B  320   5.718   4.665   7.520 -0.0702  0.0072 -0.2167
   21loPI    C1  321   1.419  17.867   9.946  0.0445  0.1505  0.0304
   21loPI    C2  322   1.471  17.477  10.014  0.0556  0.0601 -0.4591
   21loPI    C3  323   1.140  17.660  10.143  0.1933 -0.0343  0.0492
   21loPI   PO4  324   1.588  17.921   9.750  0.1562  0.1241 -0.1005
   21loPI   GL1  325   1.495  18.030   9.333  0.0044  0.3964  0.1818
   21loPI   GL2  326   1.788  17.769   9.216  0.0991  0.0413  0.2305
   21loPI   C1A  327   1.583  18.111   8.901  0.1446  0.4224  0.2760
   21loPI   C2A  328   1.592  18.136   8.384 -0.0695  0.1296 -0.0019
   21loPI   C3A  329   1.528  17.987   7.966 -0.0910  0.1257  0.1494
   21loPI   C4A  330   1.262  17.736   7.533  0.0052  0.2110 -0.0649
   21loPI   C5A  331   1.011  17.488   7.301 -0.3655 -0.3715 -0.1374
   21loPI   C6A  332   0.578  17.346   7.520  0.1621  0.0082  0.0908
   21loPI   C1B  333   2.100  17.592   8.967  0.0914 -0.0263 -0.1804
   21loPI   C2B  334   2.086  17.524   8.504 -0.0737  0.1896  0.0223
   21loPI   C3B  335   1.925  17.697   8.155  0.2417  0.0664 -0.5115
   21loPI   C4B  336   1.840  17.757   7.651  0.0315  0.0332 -0.3475
   22loPI    C1  337  10.642  12.636   9.769 -0.1845  0.2249  0.0835
   22loPI    C2  338  10.815  12.908  10.005  0.3235 -0.1876  0.2065
   22loPI    C3  339  10.528  12.671  10.151  0.0210  0.1365  0.1543
   22loPI   PO4  340  10.623  12.774   9.556 -0.0089 -0.1075 -0.1387
   22loPI   GL1  341  10.796  12.925   9.253  0.1313 -0.2736  0.0186
   22loPI   GL2  342  10.747  13.219   9.118  0.2475  0.2553 -0.1468
   22loPI   C1A  343  11.160  12.642   8.967  0.2870 -0.0248 -0.0179
   22loPI   C2A  344  11.090  12.545   8.524  0.1152 -0.0671  0.5697
   22loPI   C3A  345  11.362  12.389   8.216 -0.0774 -0.1017 -0.0955
   22loPI   C4A  346  11.614  12.319   7.863 -0.4250 -0.0855 -0.1082
   22loPI   C5A  347  11.711  12.312   7.418 -0.2549  0.0251 -0.1313
   22loPI   C6A  348  11.968  12.437   7.075  0.1731 -0.0481 -0.0634
   22loPI   C1B  349  10.586  13.080   8.757 -0.0948 -0.3000 -0.3522
   22loPI   C2B  350  10.272  12.958   8.528  0.2519  0.1059  0.1432
   22loPI   C3B  351  10.129  13.233   8.292 -0.1764 -0.1294  0.3313
   22loPI   C4B  352  10.300  13.358   7.860 -0.0209  0.0839 -0.0693
   23loPI    C1  353  17.405   2.502   9.713  0.1812  0.1010  0.1441
   23loPI    C2  354  17.149   2.257   9.900  0.1388  0.0455  0.0148
   23loPI    C3  355  17.310   2.567  10.096 -0.2531  0.2541  0.0163
   23loPI   PO4  356  17.342   2.574   9.432 -0.2455 -0.1122 -0.2222
   23loPI   GL1  357  17.381   2.823   9.091 -0.1254 -0.0642  0.0108
   23loPI   GL2  358  17.136   2.594   8.901  0.0121  0.2809 -0.2768
   23loPI   C1A  359  17.686   2.887   8.684 -0.0328 -0.3294 -0.4361
   23loPI   C2A  360  17.603   2.942   8.258  0.1625 -0.3180  0.1125
   23loPI   C3A  361  17.526   2.866   7.768  0.1243  0.1431  0.0381
   23loPI   C4A  362  17.792   2.836   7.386 -0.3345 -0.0911 -0.1430
   23loPI   C5A  363  17.885   2.748   6.956  0.0779  0.1196  0.2175
   23loPI   C6A  364  18.197   2.536   6.674  0.1854  0.0654 -0.0768
   23loPI   C1B  365  17.209   2.779   8.570 -0.3369  0.1053 -0.0367
   23loPI   C2B  366  17.025   2.792   8.008 -0.1506 -0.1473  0.2855
   23loPI   C3B  367  17.075   2.756   7.639  0.3157 -0.0614  0.1840
   23loPI   C4B  368  17.343   2.676   7.200  0.3556  0.3409 -0.2440
   24loPI    C1  369  15.414  11.800  10.040 -0.0784  0.0888  0.0019
   24loPI    C2  370  15.115  11.643  10.255 -0.0380  0.0132  0.0033
   24loPI    C3  371  15.494  11.542  10.335 -0.0359 -0.1788 -0.2399
   24loPI   PO4  372  15.365  11.762   9.781  0.2114 -0.0337 -0.1799
   24loPI   GL1  373  15.614  11.808   9.396 -0.1011  0.4486 -0.1777
   24loPI   GL2  374  15.310  11.585   9.299  0.0659 -0.0344 -0.1845
   24loPI   C1A  375  15.560  11.880   9.009  0.0601 -0.1395  0.4573
   24loPI   C2A  376  15.475  11.990   8.591  0.1328  0.0612  0.1653
   24loPI   C3A  377  15.801  12.162   8.259  0.1099  0.1440 -0.3137
   24loPI   C4A  378  15.844  12.220   7.795  0.0431 -0.3093  0.0052
   24loPI   C5A  379  15.674  11.988   7.458 -0.1890  0.2539 -0.1232
   24loPI   C6A  380  15.823  11.716   7.091  0.1021  0.4667  0.3092
   24loPI   C1B  381  15.497  11.413   8.888  0.0424 -0.1296 -0.1110
   24loPI   C2B  382  15.398  11.492   8.453 -0.1284 -0.0967  0.4283
   24loPI   C3B  383  15.209  11.415   8.090  0.1041 -0.0058 -0.0952
   24loPI   C4B  384  15.277  11.483   7.668  0.2058  0.1652  0.1149
   25loPI    C1  385   0.792  13.154  10.296 -0.1704 -0.0799 -0.2808
   25loPI    C2  386   1.078  12.957  10.494 -0.0318  0.0719 -0.3284
   25loPI    C3  387   0.696  12.843  10.529  0.0036  0.0276 -0.0626
   25loPI   PO4  388   0.899  13.245   9.986  0.1271  0.2214  0.0169
   25loPI   GL1  389   1.039  12.912   9.681 -0.2113  0.0668 -0.1256
   25loPI   GL2  390   0.771  13.111   9.525  0.2774 -0.1096 -0.0249
   25loPI   C1A  391   0.984  12.765   9.209  0.0719 -0.1125 -0.2631
   25loPI   C2A  392   0.971  12.505   8.767  0.2826 -0.0953  0.1118
   25loPI   C3A  393   1.004  12.566   8.307  0.0182 -0.0069  0.0006
   25loPI   C4A  394   0.720  12.740   7.999 -0.0681 -0.0456 -0.0086
   25loPI   C5A  395   0.393  13.048   7.935  0.1030 -0.0802  0.1152
   25loPI   C6A  396  -0.125  13.074   7.888  0.0091  0.0570  0.1710
   25loPI   C1B  397   0.560  13.096   9.141 -0.0446 -0.3068  0.1564
   25loPI   C2B  398   0.257  13.175   8.992  0.2503 -0.1169 -0.2520
   25loPI   C3B  399  -0.125  13.093   8.831  0.3931 -0.3310 -0.1590
   25loPI   C4B  400  -0.581  12.908   8.635 -0.1760 -0.1068 -0.1093
   26loPI    C1  401  11.893   4.820   9.755  0.0860  0.1215  0.1422
   26loPI    C2  402  12.105   4.534   9.936 -0.2051 -0.1351  0.0857
   26loPI    C3  403  11.775   4.439   9.731 -0.1742  0.2151 -0.1347
   26loPI   PO4  404  12.031   4.908   9.564 -0.1513  0.1325  0.0123
   26loPI   GL1  405  11.868   4.904   9.076  0.3705 -0.2695 -0.1969
   26loPI   GL2  406  12.141   5.169   9.139  0.2293  0.1762 -0.2161
   26loPI   C1A  407  12.147   4.661   8.838 -0.2512 -0.1073 -0.1765
   26loPI   C2A  408  12.302   4.471   8.460  0.1206 -0.2591 -0.0059
   26loPI   C3A  409  12.547   4.605   8.093 -0.0367  0.3069 -0.0346
   26loPI   C4A  410  12.834   4.421   7.702  0.3130 -0.1060 -0.1075
   26loPI   C5A  411  13.171   4.483   7.378  0.0199 -0.0146  0.2024
   26loPI   C6A  412  13.570   4.386   7.234  0.2012 -0.2132 -0.0044
   26loPI   C1B  413  12.137   5.328   8.752 -0.0754  0.2200 -0.0430
   26loPI   C2B  414  12.476   5.415   8.453  0.3237 -0.1237  0.3447
   26loPI   C3B  415  12.568   5.114   8.039 -0.0955  0.1337 -0.2724
   26loPI   C4B  416  12.572   4.894   7.651 -0.4108  0.4072 -0.0142
   27loPI    C1  417   2.694  15.415   9.810 -0.0501 -0.1049 -0.1608
   27loPI    C2  418   2.546  15.147  10.068 -0.0154 -0.2342 -0.2740
   27loPI    C3  419   2.941  15.208  10.048 -0.0359 -0.0405 -0.1193
   27loPI   PO4  420   2.461  15.424   9.621 -0.0714  0.0524  0.4150
   27loPI   GL1  421   2.184  15.511   9.274 -0.0904 -0.1087  0.1486
   27loPI   GL2  422   1.828  15.630   9.306  0.2174  0.0184 -0.0093
   27loPI   C1A  423   2.105  15.393   8.812  0.2056  0.2257  0.1019
   27loPI   C2A  424   2.264  15.601   8.380 -0.0159 -0.0777 -0.0441
   27loPI   C3A  425   1.992  15.665   8.001 -0.4309  0.1131  0.0692
   27loPI   C4A  426   1.867  15.780   7.605 -0.1070 -0.1128 -0.0852
   27loPI   C5A  427   1.633  15.646   7.164  0.3009 -0.1858  0.1925
   27loPI   C6A  428   1.165  15.721   7.295 -0.0814 -0.0966  0.3110
   27loPI   C1B  429   1.800  15.740   8.983 -0.0524 -0.1978  0.0818
   27loPI   C2B  430   1.774  15.671   8.519 -0.1836 -0.3062  0.1034
   27loPI   C3B  431   1.649  15.333   8.141  0.0939 -0.0294 -0.1429
   27loPI   C4B  432   1.528  15.351   7.718 -0.2096  0.1766 -0.0003
   28loPI    C1  433   7.401  17.141   9.678  0.0726 -0.1666  0.2180
   28loPI    C2  434   7.107  17.348   9.853 -0.0118 -0.1380  0.0456
   28loPI    C3  435   7.476  17.353  10.008  0.0009  0.1893  0.0114
   28loPI   PO4  436   7.290  16.860   9.598 -0.1917 -0.0928  0.1757
   28loPI   GL1  437   7.182  16.585   9.303  0.1500 -0.0936  0.2138
   28loPI   GL2  438   7.502  16.484   9.172 -0.0533 -0.0844 -0.0858
   28loPI   C1A  439   7.252  16.765   8.931  0.1473 -0.4889  0.1756
   28loPI   C2A  440   7.427  16.960   8.588  0.1347 -0.1928  0.1376
   28loPI   C3A  441   7.400  17.192   8.171 -0.0977 -0.2617 -0.0279
   28loPI   C4A  442   7.247  17.440   7.799 -0.1738 -0.1927 -0.0530
   28loPI   C5A  443   7.319  17.239   7.451  0.0082 -0.0193  0.1352
   28loPI   C6A  444   7.074  17.062   7.047 -0.2744  0.1294 -0.1264
   28loPI   C1B  445   7.781  16.614   8.767 -0.1070  0.1978 -0.0760
   28loPI   C2B  446   7.899  16.718   8.305 -0.1090  0.0557  0.0207
   28loPI   C3B  447   7.732  16.882   7.876  0.3175 -0.0565 -0.0767
   28loPI   C4B  448   7.883  17.074   7.549  0.1380 -0.0531 -0.0748
   29loPI    C1  449  11.631   5.465   9.722  0.1835 -0.1288  0.0140
   29loPI    C2  450  11.480   5.554  10.081  0.1115 -0.1308 -0.0155
   29loPI    C3  451  11.264   5.622   9.752  0.3130  0.2014 -0.0834
   29loPI   PO4  452  11.637   5.275   9.649  0.3059  0.4017 -0.1515
   29loPI   GL1  453  11.580   5.266   9.262  0.0384 -0.2624  0.1002
   29loPI   GL2  454  11.552   5.583   9.284  0.1966  0.0907 -0.1871
   29loPI   C1A  455  11.614   5.337   8.873  0.0009  0.1600 -0.0965
   29loPI   C2A  456  11.620   4.991   8.509 -0.2522  0.0676 -0.2184
   29loPI   C3A  457  11.572   5.079   8.100 -0.1842  0.0641 -0.0329
   29loPI   C4A  458  11.637   4.966   7.719 -0.1271 -0.2281 -0.4118
   29loPI   C5A  459  11.344   4.946   7.312 -0.2720 -0.1643 -0.0832
   29loPI   C6A  460  11.168   5.121   6.985  0.0527 -0.2544  0.0129
   29loPI   C1B  461  11.846   5.778   8.829 -0.0166 -0.0110  0.0401
   29loPI   C2B  462  11.861   5.658   8.393 -0.2081  0.1423 -0.0078
   29loPI   C3B  463  12.051   5.336   8.074  0.0894  0.2046  0.0263
   29loPI   C4B  464  12.285   5.312   7.642 -0.1081 -0.0127 -0.0310
   30loPI    C1  465  12.095  15.530  10.222  0.1116 -0.0705 -0.0876
   30loPI    C2  466  12.295  15.844  10.369 -0.1562  0.0358  0.0556
   30loPI    C3  467  12.474  15.487  10.345  0.1314  0.1842 -0.0551
   30loPI   PO4  468  12.039  15.574   9.949 -0.2809 -0.0809 -0.1145
   30loPI   GL1  469  12.014  15.452   9.548  0.1720  0.0732  0.3226
   30loPI   GL2  470  11.699  15.461   9.431  0.1161  0.1107 -0.2704
   30loPI   C1A  471  12.261  15.647   9.163 -0.0319 -0.1970 -0.2996
   30loPI   C2A  472  12.257  15.647   8.669 -0.1171  0.0818 -0.0451
   30loPI   C3A  473  12.410  15.432   8.378 -0.0062 -0.1854 -0.1928
   30loPI   C4A  474  12.349  15.216   8.017  0.0251 -0.0534 -0.0049
   30loPI   C5A  475  12.250  15.201   7.596  0.2862  0.1026  0.0031
   30loPI   C6A  476  12.333  15.522   7.370  0.0226 -0.2148  0.1870
   30loPI   C1B  477  11.784  15.460   8.944 -0.2410  0.0365  0.0203
   30loPI   C2B  478  11.696  15.452   8.545  0.0192  0.0822  0.1153
   30loPI   C3B  479  11.896  15.541   8.187  0.0878  0.2592  0.0724
   30loPI   C4B  480  12.027  15.725   7.867 -0.2912 -0.0677  0.3299
   31loPI    C1  481   4.910   4.592   9.969 -0.1311  0.1894  0.0177
   31loPI    C2  482   4.600   4.456  10.182  0.0138 -0.1258  0.0327
   31loPI    C3  483   4.929   4.232  10.142  0.1212  0.0748 -0.2401
   31loPI   PO4  484   4.886   4.666   9.767  0.0113  0.2652 -0.1232
   31loPI   GL1  485   4.912   4.447   9.292 -0.1624  0.2575  0.0179
   31loPI   GL2  486   5.157   4.701   9.380 -0.1348  0.1841  0.2759
   31loPI   C1A  487   4.647   4.393   8.813 -0.0674 -0.1573  0.1277
   31loPI   C2A  488   4.714   4.337   8.371  0.1673 -0.3355 -0.0110
   31loPI   C3A  489   4.670   4.399   7.962 -0.2896 -0.0148  0.1490
   31loPI   C4A  490   4.856   4.509   7.537  0.0318  0.2160  0.1061
   31loPI   C5A  491   5.312   4.473   7.315 -0.1467  0.0048 -0.1858
   31loPI   C6A  492   5.598   4.360   7.048  0.0397 -0.2473 -0.2099
   31loPI   C1B  493   5.161   4.626   8.899 -0.0560  0.4519 -0.0026
   31loPI   C2B  494   5.063   4.672   8.596  0.0594 -0.1202  0.2020
   31loPI   C3B  495   5.076   4.703   8.141 -0.3256 -0.0443  0.0569
   31loPI   C4B  496   5.137   4.871   7.705 -0.1508  0.1364 -0.2599
   32loPI    C1  497   7.984   0.454   9.527  0.0551  0.0094 -0.1788
   32loPI    C2  498   8.152   0.754   9.730  0.1810 -0.2967  0.1819
   32loPI    C3  499   7.767   0.775   9.624  0.1644 -0.0497  0.2828
   32loPI   PO4  500   8.172   0.351   9.357 -0.1048 -0.1249 -0.3167
   32loPI   GL1  501   8.221  -0.007   9.112 -0.1506 -0.1839  0.0512
   32loPI   GL2  502   8.522   0.110   9.080  0.0268  0.1391 -0.1279
   32loPI   C1A  503   8.050  -0.062   8.744  0.2030 -0.1242  0.1439
   32loPI   C2A  504   8.004  -0.077   8.291  0.0147  0.2332 -0.0796
   32loPI   C3A  505   7.960  -0.031   7.835 -0.0496 -0.0833 -0.0460
   32loPI   C4A  506   7.995  -0.327   7.493 -0.0499 -0.0215  0.0467
   32loPI   C5A  507   8.181  -0.652   7.191 -0.2924  0.0996 -0.4516
   32loPI   C6A  508   8.171  -1.064   6.982 -0.1348 -0.2981  0.0913
   32loPI   C1B  509   8.613   0.126   8.729 -0.3572  0.2748  0.0140
   32loPI   C2B  510   8.827   0.093   8.391  0.0921 -0.3626 -0.1952
   32loPI   C3B  511   9.076   0.328   8.071 -0.2871 -0.0318 -0.2043
   32loPI   C4B  512   9.498   0.324   7.804 -0.1181  0.1645  0.2413
   33loPI    C1  513  17.273   1.763   9.731 -0.1174  0.0096  0.4190
   33loPI    C2  514  16.892   1.734   9.615  0.0541  0.0775 -0.1936
   33loPI    C3  515  17.024   1.515   9.922 -0.3918 -0.2089 -0.1970
   33loPI   PO4  516  17.443   1.742   9.558 -0.2325  0.0492 -0.3149
   33loPI   GL1  517  17.540   1.858   9.153 -0.4745  0.4271 -0.0432
   33loPI   GL2  518  17.821   1.912   9.026 -0.3427  0.0759 -0.0195
   33loPI   C1A  519  17.323   1.890   8.832 -0.1646 -0.1129  0.1898
   33loPI   C2A  520  17.264   1.939   8.404 -0.0489 -0.1466 -0.1533
   33loPI   C3A  521  17.304   1.820   8.054  0.1937  0.2496  0.1472
   33loPI   C4A  522  17.157   1.600   7.707  0.5091 -0.2506 -0.0904
   33loPI   C5A  523  17.153   1.771   7.208 -0.0883 -0.0553  0.3071
   33loPI   C6A  524  17.510   1.962   7.038 -0.1709 -0.0517 -0.0859
   33loPI   C1B  525  17.821   1.688   8.662 -0.1746  0.0835  0.3401
   33loPI   C2B  526  17.758   1.794   8.211  0.0651  0.2074 -0.2555
   33loPI   C3B  527  17.706   1.975   7.782  0.3063  0.2246 -0.0208
   33loPI   C4B  528  17.846   2.396   7.718 -0.1289  0.1417  0.0022
   34loPI    C1  529  18.586  18.562   9.959  0.0865 -0.1275  0.0143
   34loPI    C2  530  18.218  18.412   9.910  0.0255 -0.0186  0.1326
   34loPI    C3  531  18.344  18.520  10.274  0.2284 -0.1910  0.1161
   34loPI   PO4  532  18.649  18.508   9.661 -0.3780 -0.0890 -0.3521
   34loPI   GL1  533  18.710  18.756   9.296 -0.0468  0.2099 -0.1689
   34loPI   GL2  534  19.059  18.634   9.178 -0.0236 -0.2818 -0.0807
   34loPI   C1A  535  18.634  18.373   9.021 -0.1166 -0.0930  0.0791
   34loPI   C2A  536  18.729  18.278   8.634  0.1841 -0.2568  0.3242
   34loPI   C3A  537  18.727  18.361   8.233  0.3463 -0.2704  0.0610
   34loPI   C4A  538  18.887  18.445   7.814  0.4306 -0.1865  0.0438
   34loPI   C5A  539  18.709  18.718   7.554  0.1774 -0.3370 -0.1692
   34loPI   C6A  540  18.715  18.991   7.390  0.0090  0.2566 -0.0302
   34loPI   C1B  541  19.174  18.407   8.828 -0.0157 -0.1675  0.2717
   34loPI   C2B  542  19.143  18.417   8.469 -0.1861 -0.2134 -0.0228
   34loPI   C3B  543  19.267  18.343   8.069 -0.1285 -0.1270 -0.0646
   34loPI   C4B  544  19.333  18.489   7.605 -0.0495 -0.3628 -0.0037
   35loPI    C1  545   5.819  10.297   9.991 -0.0577 -0.0927  0.0745
   35loPI    C2  546   6.089  10.457  10.238 -0.0501 -0.0493  0.0381
   35loPI    C3  547   6.176  10.123  10.035  0.0172  0.0253 -0.0568
   35loPI   PO4  548   5.700  10.574   9.919 -0.2471  0.2135  0.1968
   35loPI   GL1  549   5.519  10.752   9.702 -0.1137  0.1347  0.1093
   35loPI   GL2  550   5.642  11.022   9.618 -0.0320 -0.0834 -0.0637
   35loPI   C1A  551   5.330  10.826   9.212  0.1938 -0.0586 -0.0679
   35loPI   C2A  552   5.360  10.721   8.783  0.1602 -0.0251  0.0880
   35loPI   C3A  553   5.198  10.321   8.645 -0.0841 -0.2026 -0.1109
   35loPI   C4A  554   5.490   9.970   8.393 -0.2751 -0.1963  0.1114
   35loPI   C5A  555   5.607   9.776   7.999  0.1865 -0.2168  0.1101
   35loPI   C6A  556   5.516   9.357   7.894  0.2670  0.5015  0.1860
   35loPI   C1B  557   5.792  10.990   9.239  0.0405 -0.1548  0.0764
   35loPI   C2B  558   5.849  10.949   8.838 -0.0825  0.1799  0.0953
   35loPI   C3B  559   5.988  10.795   8.487 -0.0442  0.2561 -0.4066
   35loPI   C4B  560   5.983  10.706   8.159 -0.0817 -0.0429  0.0976
   36loPI    C1  561   2.183   4.524   9.297  0.2638 -0.1350 -0.0463
   36loPI    C2  562   2.016   4.248   9.534  0.3044  0.0610  0.2150
   36loPI    C3  563   2.360   4.422   9.640  0.3101  0.1703  0.0228
   36loPI   PO4  564   2.260   4.296   9.016  0.0452 -0.0164  0.1372
   36loPI   GL1  565   2.203   4.247   8.658 -0.2056  0.0387  0.3902
   36loPI   GL2  566   2.124   4.617   8.659 -0.0101 -0.5279 -0.3063
   36loPI   C1A  567   2.230   4.299   8.215 -0.3848  0.2639  0.0325
   36loPI   C2A  568   2.317   4.330   7.800 -0.1456  0.2388  0.0022
   36loPI   C3A  569   2.243   4.364   7.380 -0.1283  0.1890 -0.3427
   36loPI   C4A  570   1.972   4.441   7.052  0.3804  0.2776  0.3435
   36loPI   C5A  571   1.664   4.214   6.783 -0.1718 -0.1709 -0.2244
   36loPI   C6A  572   1.442   3.877   6.968  0.1001  0.0003 -0.1710
   36loPI   C1B  573   2.125   4.776   8.269 -0.0827  0.0238  0.1511
   36loPI   C2B  574   2.141   4.779   7.907 -0.0833 -0.4459 -0.3306
   36loPI   C3B  575   2.326   4.812   7.559  0.1491 -0.2228  0.2670
   36loPI   C4B  576   2.679   5.040   7.261  0.1511 -0.1017  0.0229
   37loPI    C1  577   1.137  14.469  10.278  0.1662  0.0537  0.0266
   37loPI    C2  578   1.461  14.701  10.314  0.0927  0.1464  0.0946
   37loPI    C3  579   1.246  14.606  10.637  0.0726  0.0550  0.0546
   37loPI   PO4  580   1.187  14.442   9.943 -0.3181  0.1505 -0.2861
   37loPI   GL1  581   1.253  14.223   9.561  0.0584 -0.1790 -0.0168
   37loPI   GL2  582   0.858  14.129   9.378  0.0116 -0.0261 -0.0676
   37loPI   C1A  583   1.243  14.319   9.137 -0.0356  0.0986  0.1087
   37loPI   C2A  584   1.346  14.093   8.694  0.1253 -0.1741  0.1738
   37loPI   C3A  585   1.636  14.079   8.289  0.0597 -0.0100  0.0233
   37loPI   C4A  586   1.584  14.096   7.852 -0.0772  0.0090 -0.0932
   37loPI   C5A  587   1.245  13.793   7.602  0.1653 -0.0193  0.0528
   37loPI   C6A  588   0.848  13.732   7.408 -0.1973 -0.3328  0.0903
   37loPI   C1B  589   0.830  14.086   8.978  0.0653  0.1585  0.0641
   37loPI   C2B  590   0.833  14.019   8.626  0.0478 -0.0697  0.1714
   37loPI   C3B  591   0.846  13.890   8.190 -0.1546  0.2615  0.3760
   37loPI   C4B  592   0.866  14.091   7.792 -0.1285 -0.1836  0.2233
   38loPI    C1  593  10.794  14.630   9.873  0.2474  0.1911  0.1328
   38loPI    C2  594  10.708  14.373  10.167 -0.2223  0.0222 -0.1401
   38loPI    C3  595  10.755  14.762  10.248  0.1116 -0.0863  0.2186
   38loPI   PO4  596  10.526  14.504   9.713 -0.0551  0.2196  0.0205
   38loPI   GL1  597  10.495  14.264   9.360 -0.2611  0.0900 -0.1884
   38loPI   GL2  598  10.688  14.521   9.253  0.0638 -0.0787 -0.1167
   38loPI   C1A  599  10.156  14.445   9.049 -0.1420  0.1265  0.0271
   38loPI   C2A  600  10.165  14.508   8.642  0.2281  0.1541  0.2353
   38loPI   C3A  601  10.358  14.692   8.267  0.3446 -0.3499  0.0728
   38loPI   C4A  602  10.211  14.824   7.827  0.1375 -0.1359 -0.3828
   38loPI   C5A  603  10.431  14.813   7.473  0.1768 -0.1482  0.2033
   38loPI   C6A  604  10.775  14.837   7.318  0.2230  0.0452 -0.0352
   38loPI   C1B  605  10.667  14.507   8.816  0.4033  0.0467 -0.0106
   38loPI   C2B  606  10.775  14.492   8.409  0.0276  0.1443  0.0430
   38loPI   C3B  607  10.748  14.419   7.961  0.0040 -0.0661 -0.2472
   38loPI   C4B  608  10.689  14.389   7.508  0.2926 -0.0685  0.0887
   39loPI    C1  609  17.534   9.159   9.922 -0.1441  0.0736  0.1952
   39loPI    C2  610  17.896   9.142  10.092 -0.0910  0.0260  0.0780
   39loPI    C3  611  17.690   8.806  10.026 -0.1203  0.0460  0.0672
   39loPI   PO4  612  17.554   9.345   9.736  0.1435  0.1027  0.2115
   39loPI   GL1  613  17.639   9.263   9.234 -0.0732 -0.0129  0.0357
   39loPI   GL2  614  17.377   9.166   9.211 -0.1046 -0.1330 -0.0302
   39loPI   C1A  615  17.656   9.276   8.802 -0.1676 -0.1149 -0.1152
   39loPI   C2A  616  17.399   9.143   8.395  0.1400  0.2686 -0.0589
   39loPI   C3A  617  17.482   9.283   7.880 -0.2942 -0.0779 -0.1294
   39loPI   C4A  618  17.172   9.257   7.520  0.2940 -0.3326  0.0448
   39loPI   C5A  619  16.793   9.276   7.297  0.1812 -0.1568  0.3800
   39loPI   C6A  620  16.365   9.275   7.276  0.0596 -0.2315  0.1766
   39loPI   C1B  621  17.462   8.815   8.882  0.1239  0.0296  0.0518
   39loPI   C2B  622  17.525   8.671   8.486  0.0448  0.1429  0.2266
   39loPI   C3B  623  17.685   8.858   8.047 -0.1638  0.1203 -0.0316
   39loPI   C4B  624  18.036   9.080   7.809 -0.5435 -0.2176 -0.0663
   40loPI    C1  625  18.657   1.182   9.434 -0.2687  0.4968  0.1222
   40loPI    C2  626  18.873   1.367   9.715  0.2863 -0.1316  0.1351
   40loPI    C3  627  19.033   1.292   9.357 -0.1290 -0.0763 -0.0687
   40loPI   PO4  628  18.382   1.304   9.360 -0.1408  0.3145 -0.0060
   40loPI   GL1  629  18.149   1.339   9.004 -0.3816 -0.0098 -0.0368
   40loPI   GL2  630  17.915   1.085   9.050  0.0577 -0.2022  0.1187
   40loPI   C1A  631  18.292   1.492   8.615 -0.2131  0.1718  0.1877
   40loPI   C2A  632  18.341   1.464   8.192 -0.2004 -0.2585  0.0583
   40loPI   C3A  633  18.168   1.241   7.779  0.0620  0.0051  0.1145
   40loPI   C4A  634  17.844   0.946   7.580 -0.0099  0.2385  0.0298
   40loPI   C5A  635  17.687   0.606   7.447 -0.3446  0.0502 -0.4261
   40loPI   C6A  636  17.537   0.240   7.184  0.0505  0.2145  0.0316
   40loPI   C1B  637  17.843   1.169   8.653  0.0509  0.3023  0.0940
   40loPI   C2B  638  17.877   1.237   8.288  0.2182 -0.0350  0.1400
   40loPI   C3B  639  17.951   0.877   8.044  0.0735  0.1212  0.3725
   40loPI   C4B  640  17.833   0.479   7.901 -0.1401  0.1475 -0.1151
   41loPI    C1  641   7.432   3.066   9.551  0.0325 -0.0060 -0.0004
   41loPI    C2  642   7.087   2.957   9.722 -0.0622  0.0827 -0.1325
   41loPI    C3  643   7.409   3.028   9.949 -0.1530  0.0804 -0.0016
   41loPI   PO4  644   7.371   2.949   9.244  0.0873  0.0063 -0.1422
   41loPI   GL1  645   7.263   2.988   8.782  0.0000  0.1013 -0.1342
   41loPI   GL2  646   7.083   3.147   8.832 -0.1635 -0.0157  0.2469
   41loPI   C1A  647   7.229   2.759   8.447  0.1740  0.0569 -0.0265
   41loPI   C2A  648   7.325   2.845   7.992 -0.0670 -0.0864 -0.0018
   41loPI   C3A  649   7.348   2.889   7.585 -0.0607  0.1706  0.0722
   41loPI   C4A  650   7.449   2.825   7.301  0.3734  0.3776  0.1503
   41loPI   C5A  651   7.313   2.838   6.894 -0.0301 -0.1620  0.0899
   41loPI   C6A  652   7.139   2.409   6.657  0.3193  0.0376 -0.0479
   41loPI   C1B  653   7.178   3.315   8.384  0.2581 -0.1316 -0.2584
   41loPI   C2B  654   7.171   3.411   8.019 -0.0442  0.2251  0.2253
   41loPI   C3B  655   7.530   3.703   7.776  0.0424 -0.0909  0.1646
   41loPI   C4B  656   7.395   3.757   7.363  0.2336 -0.0360  0.1224
   42loPI    C1  657  10.281   0.471  10.107 -0.0466  0.1620  0.0637
   42loPI    C2  658  10.476   0.125  10.151  0.0662  0.2142 -0.0218
   42loPI    C3  659  10.211   0.241  10.427 -0.0151  0.0324 -0.0218
   42loPI   PO4  660  10.332   0.460   9.821  0.0909 -0.0651 -0.0516
   42loPI   GL1  661  10.511   0.482   9.535  0.2627  0.1434  0.3032
   42loPI   GL2  662  10.267   0.719   9.420  0.2737 -0.0148 -0.2407
   42loPI   C1A  663  10.435   0.316   9.133 -0.2134 -0.0501  0.1978
   42loPI   C2A  664  10.612   0.183   8.709 -0.2917 -0.0437  0.0791
   42loPI   C3A  665  10.490   0.261   8.395  0.3077  0.0548  0.0846
   42loPI   C4A  666  10.781   0.381   8.039  0.1356 -0.2011  0.1772
   42loPI   C5A  667  10.529   0.320   7.699  0.1316 -0.0193  0.2369
   42loPI   C6A  668  10.545   0.588   7.396  0.2525 -0.2081  0.3114
   42loPI   C1B  669  10.486   0.840   9.160 -0.1260 -0.0893 -0.2923
   42loPI   C2B  670  10.672   0.725   8.809  0.2321  0.2143 -0.2392
   42loPI   C3B  671  10.971   0.523   8.465  0.0865  0.2385  0.2389
   42loPI   C4B  672  11.091   0.142   8.459  0.1681 -0.3076  0.0345
   43loPI    C1  673  17.990  16.724  10.202  0.0334 -0.0326  0.0321
   43loPI    C2  674  17.850  16.449  10.457  0.1115 -0.2053 -0.1091
   43loPI    C3  675  18.113  16.723  10.583 -0.0562 -0.1202  0.0614
   43loPI   PO4  676  17.984  16.622   9.992  0.1082  0.1255  0.4251
   43loPI   GL1  677  18.046  16.683   9.620  0.0178 -0.2726  0.1669
   43loPI   GL2  678  18.239  16.383   9.588  0.1196 -0.0229 -0.1338
   43loPI   C1A  679  17.788  16.901   9.254 -0.0122  0.0550  0.0090
   43loPI   C2A  680  17.695  16.951   8.851 -0.3478  0.2283 -0.0436
   43loPI   C3A  681  17.568  17.125   8.406 -0.2042  0.1113 -0.2447
   43loPI   C4A  682  17.315  16.952   8.099 -0.1547 -0.0258  0.1621
   43loPI   C5A  683  16.849  16.951   8.072  0.0774  0.1797 -0.2565
   43loPI   C6A  684  16.422  16.864   7.869 -0.2995  0.2067 -0.0601
   43loPI   C1B  685  18.416  16.469   9.242  0.0099 -0.1956  0.1733
   43loPI   C2B  686  18.382  16.409   8.738  0.1239  0.2010 -0.0418
   43loPI   C3B  687  18.329  16.540   8.239  0.1525  0.0525  0.0353
   43loPI   C4B  688  18.260  16.882   8.042  0.2172  0.0594  0.2410
   44loPI    C1  689   0.505  12.372  10.443 -0.1017  0.1915 -0.0721
   44loPI    C2  690   0.226  12.551  10.667 -0.0381  0.1182  0.0674
   44loPI    C3  691   0.580  12.455  10.827 -0.1033 -0.2111  0.0200
   44loPI   PO4  692   0.528  12.494  10.210  0.1733  0.1866 -0.2347
   44loPI   GL1  693   0.659  12.386   9.729  0.1136  0.0436  0.0009
   44loPI   GL2  694   0.584  12.598   9.505 -0.0685  0.0332 -0.0749
   44loPI   C1A  695   1.110  12.364   9.504  0.1528 -0.3565 -0.0461
   44loPI   C2A  696   1.185  12.227   9.121 -0.0908 -0.2346  0.0542
   44loPI   C3A  697   1.257  12.162   8.669 -0.0378  0.1430  0.0332
   44loPI   C4A  698   1.282  12.081   8.266 -0.0448 -0.0887  0.0417
   44loPI   C5A  699   1.492  12.146   7.846  0.1189 -0.1568  0.3649
   44loPI   C6A  700   1.993  12.318   7.889 -0.1217 -0.1994 -0.0416
   44loPI   C1B  701   0.699  12.378   9.193 -0.2422 -0.0279  0.1571
   44loPI   C2B  702   0.599  12.179   8.783  0.0570  0.0839  0.1371
   44loPI   C3B  703   0.748  12.120   8.406  0.2836  0.3090 -0.3779
   44loPI   C4B  704   0.866  11.705   8.201 -0.1857  0.2046 -0.1823
   45loPI    C1  705   3.037  17.034  10.063 -0.3507  0.1218 -0.0775
   45loPI    C2  706   3.196  17.180  10.400  0.0412  0.1161 -0.2553
   45loPI    C3  707   3.040  16.812  10.396  0.0716  0.1008 -0.0901
   45loPI   PO4  708   3.182  17.238   9.897 -0.2921  0.1687  0.2380
   45loPI   GL1  709   3.442  17.143   9.445 -0.0979 -0.0899  0.6029
   45loPI   GL2  710   3.576  17.324   9.363 -0.2938  0.3221 -0.2200
   45loPI   C1A  711   3.162  17.023   9.094  0.1270  0.2311  0.1496
   45loPI   C2A  712   3.288  16.841   8.755  0.2757 -0.1779  0.0389
   45loPI   C3A  713   3.224  16.934   8.336 -0.1055  0.1401 -0.3780
   45loPI   C4A  714   3.287  16.920   7.843  0.0537 -0.0242  0.0537
   45loPI   C5A  715   3.409  16.559   7.529  0.1715 -0.0886  0.3446
   45loPI   C6A  716   3.088  16.318   7.329  0.3704  0.4436 -0.1261
   45loPI   C1B  717   3.372  17.410   8.913  0.1260  0.0240  0.2893
   45loPI   C2B  718   3.576  17.327   8.602 -0.2987  0.2947 -0.2251
   45loPI   C3B  719   3.475  17.279   8.162 -0.1338 -0.0395  0.1257
   45loPI   C4B  720   3.627  17.408   7.700 -0.0468 -0.0794 -0.3532
   46loPI    C1  721  16.020   2.123   9.498  0.1685  0.0092  0.1953
   46loPI    C2  722  15.771   2.424   9.586  0.0635  0.0445 -0.2032
   46loPI    C3  723  16.021   2.283   9.865 -0.0780  0.3164  0.0668
   46loPI   PO4  724  15.934   2.136   9.246 -0.3049  0.0337 -0.3093
   46loPI   GL1  725  15.968   1.983   8.824 -0.0631  0.0164  0.1970
   46loPI   GL2  726  16.038   2.425   8.674 -0.0502 -0.5014  0.0858
   46loPI   C1A  727  15.917   1.945   8.417 -0.0276 -0.1088 -0.0682
   46loPI   C2A  728  15.817   1.860   8.003 -0.0075 -0.1742 -0.2442
   46loPI   C3A  729  15.533   1.933   7.659  0.0493 -0.0397 -0.0885
   46loPI   C4A  730  15.354   2.467   7.549 -0.0288  0.2557 -0.1045
   46loPI   C5A  731  15.312   2.833   7.303  0.1382 -0.0241  0.3021
   46loPI   C6A  732  14.994   2.943   7.021 -0.2242 -0.0788 -0.0780
   46loPI   C1B  733  16.024   2.414   8.166  0.0544  0.1742 -0.0788
   46loPI   C2B  734  15.920   2.394   7.680  0.2024 -0.0475  0.1033
   46loPI   C3B  735  15.717   2.222   7.317  0.4362  0.0339  0.4234
   46loPI   C4B  736  15.559   1.849   7.132  0.1382 -0.2204  0.0512
   47loPI    C1  737  10.460   8.260   9.601  0.2550  0.1513 -0.1997
   47loPI    C2  738  10.445   8.277  10.000 -0.2091 -0.2493 -0.1897
   47loPI    C3  739  10.296   8.577   9.781  0.0758 -0.0137 -0.0672
   47loPI   PO4  740  10.348   7.976   9.557 -0.0125 -0.0579 -0.3168
   47loPI   GL1  741  10.346   7.666   9.236 -0.3302  0.0331  0.0501
   47loPI   GL2  742  10.103   7.642   9.123 -0.0919 -0.2473 -0.1098
   47loPI   C1A  743  10.404   7.951   8.812 -0.0680 -0.0008 -0.1388
   47loPI   C2A  744  10.430   7.976   8.333  0.2854  0.0763  0.1238
   47loPI   C3A  745  10.561   8.108   7.962  0.3036  0.1837 -0.3595
   47loPI   C4A  746  10.482   7.901   7.562 -0.1859  0.2835 -0.4157
   47loPI   C5A  747  10.617   7.449   7.516 -0.0095  0.0085 -0.1816
   47loPI   C6A  748  10.975   7.203   7.510  0.0464 -0.0369 -0.1362
   47loPI   C1B  749   9.968   7.532   8.634  0.1099 -0.0123  0.2482
   47loPI   C2B  750   9.904   7.531   8.202 -0.2008  0.0110  0.0564
   47loPI   C3B  751   9.618   7.323   7.885 -0.1033 -0.0833  0.2867
   47loPI   C4B  752   9.493   7.003   7.547  0.0337 -0.4082 -0.0044
   48loPI    C1  753   6.041   8.382  10.187 -0.3739 -0.0980 -0.1829
   48loPI    C2  754   5.759   8.460  10.460 -0.2535 -0.2123 -0.0240
   48loPI    C3  755   6.095   8.270  10.568 -0.0855 -0.0186 -0.1981
   48loPI   PO4  756   5.954   8.284   9.956  0.0486  0.0300 -0.0384
   48loPI   GL1  757   6.140   8.076   9.706  0.1907  0.1592 -0.0669
   48loPI   GL2  758   6.325   7.683   9.773  0.1633 -0.0513 -0.0815
   48loPI   C1A  759   6.026   7.804   9.417  0.2466 -0.2079 -0.0498
   48loPI   C2A  760   5.714   7.676   9.238  0.1169  0.2180 -0.3240
   48loPI   C3A  761   5.653   7.740   8.897  0.1194  0.1333  0.0901
   48loPI   C4A  762   5.682   8.103   8.639  0.0650 -0.0519 -0.3385
   48loPI   C5A  763   5.791   8.135   8.196  0.0597  0.0498  0.2329
   48loPI   C6A  764   6.115   8.251   7.901 -0.2495  0.1472 -0.0102
   48loPI   C1B  765   6.314   7.340   9.429  0.5193 -0.1071  0.0866
   48loPI   C2B  766   6.149   7.282   9.065  0.0979  0.0657 -0.2089
   48loPI   C3B  767   6.283   7.250   8.643  0.2745 -0.1128  0.0304
   48loPI   C4B  768   6.312   7.228   8.260 -0.1240 -0.0206  0.2438
   49loPI    C1  769   8.416   1.193   9.892 -0.0723 -0.0025  0.0754
   49loPI    C2  770   8.564   1.540  10.023 -0.0618  0.0065  0.0399
   49loPI    C3  771   8.602   1.210  10.246 -0.0011  0.0117  0.0375
   49loPI   PO4  772   8.465   1.161   9.632 -0.0021 -0.1001  0.0896
   49loPI   GL1  773   8.651   1.274   9.155 -0.2079 -0.0402 -0.4302
   49loPI   GL2  774   8.919   1.097   9.051 -0.7004 -0.2880  0.0064
   49loPI   C1A  775   9.016   1.533   9.156 -0.3819  0.2142 -0.0365
   49loPI   C2A  776   9.315   1.689   8.848  0.1485 -0.0974 -0.0450
   49loPI   C3A  777   9.387   1.680   8.370  0.1191  0.5764  0.1993
   49loPI   C4A  778   9.345   1.742   7.961 -0.1223  0.0312 -0.0112
   49loPI   C5A  779   9.394   1.877   7.547 -0.0646 -0.2397 -0.0536
   49loPI   C6A  780   9.572   1.845   7.166  0.2031 -0.0909 -0.1787
   49loPI   C1B  781   9.138   1.147   8.634  0.2688  0.0694  0.1242
   49loPI   C2B  782   9.210   1.239   8.166 -0.0067  0.5917  0.0024
   49loPI   C3B  783   9.054   1.422   7.604 -0.5019 -0.0131 -0.2885
   49loPI   C4B  784   9.383   1.389   7.255  0.1981 -0.2623  0.0565
   50loPI    C1  785   4.326   7.107   9.753  0.0799  0.0549 -0.1110
   50loPI    C2  786   4.172   7.075  10.121 -0.0294 -0.0916 -0.1687
   50loPI    C3  787   4.568   7.054  10.067 -0.0084 -0.0035 -0.0525
   50loPI   PO4  788   4.141   7.179   9.605 -0.0429 -0.1064 -0.2328
   50loPI   GL1  789   3.998   7.180   9.196 -0.2013  0.0908 -0.0836
   50loPI   GL2  790   3.754   7.153   9.001 -0.1041 -0.0152  0.0684
   50loPI   C1A  791   4.155   7.402   8.795 -0.2943  0.1805  0.0394
   50loPI   C2A  792   4.282   7.478   8.279  0.1587  0.0717  0.3523
   50loPI   C3A  793   4.206   7.396   7.800 -0.0911 -0.1772 -0.2490
   50loPI   C4A  794   4.348   7.198   7.381 -0.0079 -0.2609 -0.2389
   50loPI   C5A  795   4.489   7.090   6.950  0.4659 -0.0274  0.1895
   50loPI   C6A  796   4.372   7.028   6.575  0.0929  0.3666 -0.0238
   50loPI   C1B  797   3.773   7.204   8.514  0.2044 -0.3309 -0.0881
   50loPI   C2B  798   3.512   7.387   8.291 -0.2648 -0.1110 -0.0597
   50loPI   C3B  799   3.347   7.627   7.946  0.0068  0.2499 -0.0503
   50loPI   C4B  800   3.316   7.701   7.459 -0.1585 -0.4054  0.0077
   51loPI    C1  801   9.085  13.975   9.564  0.2795  0.0599  0.2272
   51loPI    C2  802   8.983  13.951   9.950  0.0077 -0.0857  0.1493
   51loPI    C3  803   9.129  14.293   9.803 -0.4792  0.1712  0.2429
   51loPI   PO4  804   8.897  13.894   9.459  0.0829  0.0984  0.0346
   51loPI   GL1  805   8.711  13.764   9.076 -0.1669  0.0907  0.0637
   51loPI   GL2  806   8.484  13.928   9.206  0.2027  0.1666 -0.0235
   51loPI   C1A  807   8.926  13.788   8.757  0.0541 -0.1653 -0.0193
   51loPI   C2A  808   9.228  13.815   8.427  0.0242  0.1629  0.1077
   51loPI   C3A  809   9.488  13.879   8.112 -0.0407  0.0336  0.0187
   51loPI   C4A  810   9.636  14.057   7.764  0.2695 -0.0803  0.4975
   51loPI   C5A  811   9.860  14.041   7.454 -0.1295 -0.2543 -0.0192
   51loPI   C6A  812  10.084  13.786   7.260 -0.1770 -0.1498  0.3630
   51loPI   C1B  813   8.434  13.939   8.687  0.0331  0.2771 -0.0694
   51loPI   C2B  814   8.611  13.865   8.354  0.1557  0.1451  0.1489
   51loPI   C3B  815   8.625  13.825   7.894  0.1023  0.2222  0.2177
   51loPI   C4B  816   8.406  13.832   7.498 -0.0828  0.1573  0.1832
   52loPI    C1  817   9.597   2.766   9.755  0.0753  0.1418 -0.1600
   52loPI    C2  818   9.636   2.964  10.101 -0.2101 -0.0856  0.0075
   52loPI    C3  819   9.288   2.789  10.009  0.0455 -0.5454 -0.1155
   52loPI   PO4  820   9.831   2.624   9.751  0.1462  0.0110  0.1907
   52loPI   GL1  821   9.831   2.463   9.329  0.2115  0.0526 -0.1195
   52loPI   GL2  822  10.038   2.273   9.190 -0.0151 -0.0880  0.1033
   52loPI   C1A  823   9.569   2.322   8.973 -0.1195 -0.2091 -0.1180
   52loPI   C2A  824   9.618   2.456   8.511  0.6021  0.2546 -0.0529
   52loPI   C3A  825   9.952   2.593   8.196 -0.2231  0.3066 -0.0663
   52loPI   C4A  826  10.133   2.491   7.859  0.3167  0.2155  0.2407
   52loPI   C5A  827  10.226   2.295   7.439  0.1565 -0.1354  0.1386
   52loPI   C6A  828  10.422   2.130   7.048 -0.0616 -0.0608 -0.0032
   52loPI   C1B  829  10.186   2.340   8.726  0.1196  0.1223 -0.0610
   52loPI   C2B  830  10.295   2.183   8.362 -0.0730 -0.5032  0.1129
   52loPI   C3B  831  10.483   2.172   8.015  0.0597 -0.0235 -0.0422
   52loPI   C4B  832  10.484   1.936   7.601 -0.2185 -0.2181 -0.0970
   53loPI    C1  833  12.953  15.474  10.329  0.2888 -0.2827 -0.1018
   53loPI    C2  834  12.861  15.234  10.636 -0.0181  0.0137  0.0435
   53loPI    C3  835  13.226  15.396  10.612  0.0502 -0.1175  0.1794
   53loPI   PO4  836  12.785  15.367  10.026 -0.4313 -0.2870  0.0215
   53loPI   GL1  837  12.812  15.398   9.606  0.4509  0.1835  0.1017
   53loPI   GL2  838  12.617  15.255   9.414  0.2138  0.2629 -0.2603
   53loPI   C1A  839  13.007  15.537   9.223  0.1644 -0.0863  0.1520
   53loPI   C2A  840  13.239  15.502   8.849  0.0573 -0.2642 -0.2406
   53loPI   C3A  841  13.525  15.632   8.463 -0.0267  0.1575 -0.0977
   53loPI   C4A  842  13.443  15.836   8.077 -0.2774  0.2047 -0.3434
   53loPI   C5A  843  13.606  16.261   7.892  0.0447 -0.1335  0.1611
   53loPI   C6A  844  14.031  16.446   7.755 -0.2253 -0.1404  0.2165
   53loPI   C1B  845  12.496  15.244   9.034  0.0081  0.1403  0.1646
   53loPI   C2B  846  12.744  15.299   8.769  0.2880  0.0075 -0.1280
   53loPI   C3B  847  12.990  15.430   8.403  0.2283  0.1718  0.0683
   53loPI   C4B  848  13.269  15.283   8.169  0.1789  0.0385  0.3655
   54loPI    C1  849   2.949   8.192   9.629 -0.0817  0.0952  0.0315
   54loPI    C2  850   3.018   7.901   9.895 -0.0162  0.0151 -0.0723
   54loPI    C3  851   3.001   7.815   9.505 -0.0816  0.1372 -0.0968
   54loPI   PO4  852   3.105   8.349   9.628 -0.4147 -0.2180  0.0355
   54loPI   GL1  853   3.237   8.678   9.525 -0.0182  0.0479  0.2693
   54loPI   GL2  854   3.454   8.503   9.334  0.0718  0.0233 -0.0004
   54loPI   C1A  855   3.452   9.085   9.341 -0.0567  0.1557  0.1637
   54loPI   C2A  856   3.608   9.175   8.986 -0.0432 -0.0289  0.2117
   54loPI   C3A  857   3.511   9.250   8.517 -0.1434  0.1063  0.1084
   54loPI   C4A  858   3.492   9.462   8.043 -0.2182  0.0420 -0.1826
   54loPI   C5A  859   3.201   9.431   7.665  0.1017 -0.1150  0.0270
   54loPI   C6A  860   2.984   9.505   7.200  0.0137 -0.0389 -0.2570
   54loPI   C1B  861   3.279   8.458   8.946  0.2112  0.2406 -0.3334
   54loPI   C2B  862   3.226   8.654   8.575  0.1886  0.2786 -0.2521
   54loPI   C3B  863   3.348   8.728   8.227 -0.1092 -0.0675 -0.0479
   54loPI   C4B  864   3.478   8.925   7.921 -0.3258 -0.0823 -0.0166
   55loPI    C1  865   3.550   6.327   9.645  0.3507 -0.0289 -0.2518
   55loPI    C2  866   3.478   5.953   9.765 -0.4738  0.1712 -0.0551
   55loPI    C3  867   3.597   6.229  10.029 -0.0621  0.1026 -0.1619
   55loPI   PO4  868   3.729   6.283   9.456  0.2828  0.3100 -0.0487
   55loPI   GL1  869   3.655   6.013   9.122  0.0515 -0.4388 -0.2159
   55loPI   GL2  870   3.997   6.186   9.067  0.1520 -0.0242 -0.2318
   55loPI   C1A  871   3.519   6.189   8.784  0.1506 -0.4997 -0.1579
   55loPI   C2A  872   3.463   6.140   8.375 -0.2600  0.0526 -0.0114
   55loPI   C3A  873   3.358   6.209   7.951  0.0856 -0.2217  0.0471
   55loPI   C4A  874   3.601   6.441   7.622  0.0473  0.0044  0.4730
   55loPI   C5A  875   3.536   6.800   7.392 -0.0647  0.4122 -0.0876
   55loPI   C6A  876   3.490   6.874   6.922 -0.0985 -0.0558  0.1067
   55loPI   C1B  877   4.060   6.365   8.646 -0.0229 -0.2928  0.1523
   55loPI   C2B  878   3.988   6.309   8.171  0.0429  0.2697 -0.2074
   55loPI   C3B  879   3.868   6.129   7.895 -0.1373 -0.1348  0.0858
   55loPI   C4B  880   3.918   6.106   7.444 -0.2822 -0.0936  0.1085
   56loPI    C1  881  16.735   7.545   9.798 -0.1161  0.2351  0.1734
   56loPI    C2  882  16.954   7.457  10.120 -0.1492 -0.1663  0.0914
   56loPI    C3  883  16.559   7.508  10.155 -0.1256 -0.0146  0.1447
   56loPI   PO4  884  16.743   7.395   9.617  0.2568  0.2003  0.0384
   56loPI   GL1  885  16.593   7.211   9.371  0.0270  0.2677  0.1059
   56loPI   GL2  886  16.595   6.884   9.377 -0.0343  0.1163  0.2346
   56loPI   C1A  887  16.675   7.388   8.955  0.2281 -0.1145 -0.0736
   56loPI   C2A  888  16.825   7.284   8.472 -0.0142 -0.2975  0.3613
   56loPI   C3A  889  16.774   7.123   8.159 -0.2620  0.0668 -0.3877
   56loPI   C4A  890  16.765   6.932   7.704  0.1689 -0.1127  0.2538
   56loPI   C5A  891  16.568   6.950   7.261 -0.0872  0.1708 -0.1999
   56loPI   C6A  892  16.401   7.237   7.004  0.2862 -0.2103 -0.1727
   56loPI   C1B  893  16.733   6.880   8.908 -0.1815  0.2025  0.0224
   56loPI   C2B  894  16.668   6.761   8.509  0.0146  0.1146  0.0682
   56loPI   C3B  895  16.636   6.544   8.210 -0.0068 -0.2055  0.1730
   56loPI   C4B  896  16.557   6.509   7.854  0.1265  0.3162 -0.1285
   57loPI    C1  897   8.041  19.080   9.596 -0.1150  0.0073 -0.0118
   57loPI    C2  898   7.912  18.940   9.947  0.3275 -0.0724  0.1245
   57loPI    C3  899   7.740  19.263   9.786 -0.1774 -0.2988  0.1905
   57loPI   PO4  900   8.198  18.804   9.512  0.2669  0.2557  0.1720
   57loPI   GL1  901   8.616  18.712   9.292 -0.0379 -0.0267  0.1809
   57loPI   GL2  902   8.834  18.877   9.151  0.1536 -0.4988 -0.2670
   57loPI   C1A  903   8.435  18.719   8.864 -0.1160  0.3062  0.1425
   57loPI   C2A  904   8.425  18.816   8.487 -0.1183 -0.0947 -0.0606
   57loPI   C3A  905   8.350  18.794   8.015  0.0750 -0.3329  0.0785
   57loPI   C4A  906   8.454  19.039   7.613  0.1126  0.4457 -0.1769
   57loPI   C5A  907   8.371  19.148   7.278  0.1811  0.1108 -0.0294
   57loPI   C6A  908   8.344  19.323   6.884 -0.0629 -0.0538  0.1257
   57loPI   C1B  909   8.913  18.857   8.760  0.2996  0.1891  0.2022
   57loPI   C2B  910   8.901  18.770   8.326  0.0743 -0.2821  0.0095
   57loPI   C3B  911   8.873  18.978   7.927 -0.2301  0.0822  0.0536
   57loPI   C4B  912   9.098  18.787   7.559  0.0599  0.0214 -0.3803
   58loPI    C1  913   0.081  12.585  10.041 -0.0756 -0.0116 -0.0747
   58loPI    C2  914  -0.296  12.454  10.008 -0.0886  0.0251 -0.0727
   58loPI    C3  915  -0.049  12.289  10.277 -0.1942  0.2086  0.1399
   58loPI   PO4  916   0.184  12.553   9.827  0.1899 -0.0624  0.2116
   58loPI   GL1  917   0.245  12.918   9.502  0.0065  0.1794 -0.1344
   58loPI   GL2  918   0.039  13.100   9.437 -0.0694  0.0394  0.2545
   58loPI   C1A  919   0.272  12.667   9.135  0.0516 -0.3585  0.3540
   58loPI   C2A  920   0.409  12.645   8.760 -0.1546  0.0204  0.2371
   58loPI   C3A  921   0.393  12.478   8.356 -0.2365 -0.1815  0.1945
   58loPI   C4A  922   0.424  12.274   7.974  0.0448  0.3315 -0.3421
   58loPI   C5A  923   0.327  12.530   7.598 -0.0564  0.1020  0.0250
   58loPI   C6A  924   0.139  12.971   7.488 -0.1930  0.0471 -0.2373
   58loPI   C1B  925   0.036  13.498   9.299 -0.1918  0.0818  0.1844
   58loPI   C2B  926   0.022  13.590   8.867  0.1118  0.2765 -0.0567
   58loPI   C3B  927  -0.139  13.543   8.605  0.4193  0.1708  0.0600
   58loPI   C4B  928  -0.204  13.142   8.351  0.2587 -0.1171 -0.0283
   59loPI    C1  929   5.763  18.619   9.469  0.1308 -0.0329  0.2272
   59loPI    C2  930   5.600  18.333   9.696  0.0983 -0.2196 -0.0259
   59loPI    C3  931   5.681  18.692   9.853 -0.1211 -0.2759  0.2227
   59loPI   PO4  932   5.828  18.568   9.297 -0.0756  0.1614  0.5488
   59loPI   GL1  933   5.550  18.384   8.920 -0.0548 -0.0302 -0.0491
   59loPI   GL2  934   5.335  18.085   8.884 -0.0199  0.2342  0.4473
   59loPI   C1A  935   5.705  18.434   8.494  0.2686  0.3595 -0.0025
   59loPI   C2A  936   5.718  18.400   7.964  0.4746  0.3305 -0.1377
   59loPI   C3A  937   5.557  18.410   7.603  0.2877 -0.1552  0.3342
   59loPI   C4A  938   5.461  18.437   7.135  0.0129  0.1167  0.1156
   59loPI   C5A  939   5.355  18.266   6.721 -0.2728 -0.1315  0.2119
   59loPI   C6A  940   5.529  18.089   6.303  0.0152 -0.0840  0.0864
   59loPI   C1B  941   5.430  17.855   8.484 -0.3326 -0.1362  0.1271
   59loPI   C2B  942   5.467  17.828   8.078  0.0448 -0.2409  0.1696
   59loPI   C3B  943   5.463  17.524   7.766  0.2490 -0.1840 -0.1627
   59loPI   C4B  944   5.637  17.439   7.398 -0.0469 -0.0858 -0.0971
   60loPI    C1  945   8.154  15.463   9.703  0.2036  0.0173 -0.0717
   60loPI    C2  946   8.074  15.852   9.653 -0.1716 -0.0381  0.0614
   60loPI    C3  947   8.050  15.688  10.017  0.0141 -0.1815  0.0108
   60loPI   PO4  948   8.321  15.459   9.531  0.0181  0.2323  0.0802
   60loPI   GL1  949   8.498  15.359   9.191 -0.1282  0.0685 -0.1332
   60loPI   GL2  950   8.476  15.613   9.005 -0.0041 -0.2593  0.0597
   60loPI   C1A  951   8.658  15.220   8.754 -0.3069 -0.0565  0.0681
   60loPI   C2A  952   8.518  14.991   8.328 -0.0251  0.2861  0.3775
   60loPI   C3A  953   8.590  15.087   7.947  0.4204 -0.3323 -0.2355
   60loPI   C4A  954   8.675  14.918   7.537  0.3388 -0.1656 -0.2819
   60loPI   C5A  955   9.041  14.649   7.191  0.0023 -0.1765 -0.0145
   60loPI   C6A  956   9.265  14.420   6.843 -0.3294  0.3037  0.1970
   60loPI   C1B  957   8.339  15.843   8.625 -0.1001 -0.3180  0.2755
   60loPI   C2B  958   8.559  15.902   8.224 -0.2487 -0.0240  0.1926
   60loPI   C3B  959   8.996  16.129   7.957  0.2055  0.3191 -0.0904
   60loPI   C4B  960   9.177  16.324   7.579 -0.1143  0.1453  0.0573
   61loPI    C1  961   3.219   8.829  10.295 -0.2399 -0.0791  0.2679
   61loPI    C2  962   2.948   9.118  10.241 -0.1546 -0.0644 -0.1085
   61loPI    C3  963   3.146   9.093  10.587 -0.0957  0.3871 -0.1030
   61loPI   PO4  964   3.344   8.824  10.023  0.0285 -0.0488 -0.1849
   61loPI   GL1  965   3.133   9.093   9.719  0.4959 -0.2802  0.0818
   61loPI   GL2  966   3.030   9.330   9.687  0.1061  0.0577  0.1604
   61loPI   C1A  967   2.937   8.973   9.337 -0.0384 -0.1260 -0.2429
   61loPI   C2A  968   3.094   8.941   8.973  0.2010 -0.2423 -0.0638
   61loPI   C3A  969   3.005   9.106   8.490  0.0892 -0.2190  0.1996
   61loPI   C4A  970   3.022   9.237   8.056 -0.1542 -0.0611 -0.0993
   61loPI   C5A  971   2.759   9.302   7.645  0.1061  0.2173 -0.1472
   61loPI   C6A  972   2.457   9.478   7.280  0.0708  0.0439  0.2900
   61loPI   C1B  973   2.966   9.463   9.235 -0.7361 -0.3071  0.1741
   61loPI   C2B  974   3.052   9.448   8.843  0.2281 -0.2219 -0.0115
   61loPI   C3B  975   3.156   9.596   8.485  0.2605  0.0233 -0.1969
   61loPI   C4B  976   3.061   9.792   8.070  0.1027  0.2827 -0.1724
   62loPI    C1  977   4.561   8.444   9.866 -0.5161  0.0728 -0.0589
   62loPI    C2  978   4.506   8.132  10.111 -0.0510 -0.0252 -0.0689
   62loPI    C3  979   4.545   8.501  10.262  0.1140 -0.0693 -0.0024
   62loPI   PO4  980   4.314   8.426   9.688  0.1526 -0.1215  0.1033
   62loPI   GL1  981   4.426   8.275   9.328  0.2453 -0.1550 -0.0131
   62loPI   GL2  982   4.569   8.050   9.229  0.2223 -0.1404  0.3803
   62loPI   C1A  983   4.390   8.541   9.025  0.0716  0.0153 -0.0858
   62loPI   C2A  984   4.417   8.566   8.650  0.2363 -0.0573 -0.1852
   62loPI   C3A  985   4.362   8.814   8.337  0.1916 -0.1930 -0.0337
   62loPI   C4A  986   4.465   8.907   7.879  0.1064 -0.0234 -0.2512
   62loPI   C5A  987   4.696   8.734   7.568 -0.0096  0.1865 -0.0217
   62loPI   C6A  988   4.729   8.486   7.230  0.0181 -0.1956 -0.2051
   62loPI   C1B  989   4.748   8.276   8.828 -0.1009  0.2791  0.0037
   62loPI   C2B  990   4.726   8.394   8.320  0.0287  0.1692  0.3525
   62loPI   C3B  991   4.955   8.309   7.976 -0.0679  0.1456  0.1163
   62loPI   C4B  992   4.946   8.155   7.529  0.2474  0.2380  0.1391
   63loPI    C1  993  11.119   8.520  10.108 -0.0179  0.2397  0.0649
   63loPI    C2  994  10.865   8.450  10.409  0.1636 -0.2336  0.1156
   63loPI    C3  995  11.252   8.518  10.485  0.1830 -0.2091 -0.0030
   63loPI   PO4  996  10.913   8.383   9.805 -0.1761  0.1845  0.0351
   63loPI   GL1  997  10.945   8.544   9.295  0.1400 -0.1008  0.3615
   63loPI   GL2  998  10.688   8.729   9.450  0.0092  0.0535  0.0425
   63loPI   C1A  999  10.901   8.695   8.954  0.1380  0.1787 -0.0998
   63loPI   C2A 1000  10.878   8.915   8.589 -0.1099 -0.0404 -0.0037
   63loPI   C3A 1001  11.194   8.676   8.273 -0.1807 -0.2074  0.3807
   63loPI   C4A 1002  11.180   8.803   7.841  0.1053  0.0070 -0.0854
   63loPI   C5A 1003  11.230   9.119   7.457 -0.1322 -0.1056 -0.1112
   63loPI   C6A 1004  11.116   9.403   7.109 -0.0304  0.3514 -0.1218
   63loPI   C1B 1005  10.429   8.454   9.119 -0.2234  0.1129 -0.3989
   63loPI   C2B 1006  10.386   8.406   8.709 -0.2111 -0.0385 -0.1314
   63loPI   C3B 1007  10.197   8.460   8.234  0.2337  0.1209  0.0575
   63loPI   C4B 1008  10.102   8.318   7.823  0.1600 -0.2949  0.2805
   64loPI    C1 1009  15.016   7.633   9.466 -0.1890 -0.1451 -0.1875
   64loPI    C2 1010  14.892   7.350   9.721 -0.3463  0.0061 -0.0939
   64loPI    C3 1011  14.936   7.728   9.846  0.1135 -0.0223 -0.1520
   64loPI   PO4 1012  15.124   7.446   9.294  0.1729  0.1639 -0.1187
   64loPI   GL1 1013  14.934   7.161   9.170  0.0061 -0.0610  0.0928
   64loPI   GL2 1014  14.635   7.432   9.134 -0.1714  0.2613 -0.0694
   64loPI   C1A 1015  14.915   7.025   8.756  0.0808  0.0093 -0.0849
   64loPI   C2A 1016  14.856   6.804   8.299 -0.3007  0.0460  0.2592
   64loPI   C3A 1017  14.686   6.747   7.867 -0.3584  0.0582 -0.1801
   64loPI   C4A 1018  14.555   6.760   7.512  0.0824 -0.1446 -0.0681
   64loPI   C5A 1019  14.178   6.888   7.313 -0.1114 -0.1497  0.0248
   64loPI   C6A 1020  13.832   6.836   7.088 -0.1367  0.1544  0.2819
   64loPI   C1B 1021  14.624   7.343   8.645 -0.1194 -0.3266 -0.0386
   64loPI   C2B 1022  14.768   7.341   8.301 -0.1602  0.1125 -0.0671
   64loPI   C3B 1023  14.765   7.308   7.893  0.2701 -0.1446 -0.1661
   64loPI   C4B 1024  14.952   7.041   7.516 -0.1201 -0.2445  0.0177
   65loPI    C1 1025   5.886   0.884   9.170  0.0665  0.0875 -0.1243
   65loPI    C2 1026   6.271   0.798   9.237  0.0356  0.1213  0.1038
   65loPI    C3 1027   6.033   0.901   9.542 -0.1460  0.1348 -0.0410
   65loPI   PO4 1028   5.953   1.108   8.950 -0.1070  0.1828  0.1310
   65loPI   GL1 1029   6.100   1.025   8.513 -0.0861 -0.1019  0.1663
   65loPI   GL2 1030   6.134   0.731   8.566 -0.2016  0.3152  0.1061
   65loPI   C1A 1031   5.949   1.126   8.121 -0.0183  0.1198  0.5417
   65loPI   C2A 1032   5.885   1.141   7.669 -0.2184 -0.0378  0.1712
   65loPI   C3A 1033   5.867   1.239   7.262 -0.0060 -0.4824  0.1158
   65loPI   C4A 1034   5.749   1.382   6.845  0.0265  0.0543 -0.0706
   65loPI   C5A 1035   5.970   1.338   6.430 -0.5052 -0.3063 -0.3718
   65loPI   C6A 1036   6.282   1.178   6.067 -0.4821  0.1418  0.1891
   65loPI   C1B 1037   6.376   0.737   8.098  0.1910  0.0059 -0.1137
   65loPI   C2B 1038   6.263   0.861   7.818 -0.1101 -0.3117 -0.1648
   65loPI   C3B 1039   6.332   0.973   7.339  0.4143 -0.0953 -0.0163
   65loPI   C4B 1040   6.348   1.380   7.103  0.1363  0.1008 -0.3004
   66loPI    C1 1041   9.824  11.928   9.953 -0.1324 -0.1089 -0.0514
   66loPI    C2 1042   9.928  11.558  10.066  0.0674 -0.0793 -0.1347
   66loPI    C3 1043   9.759  11.807  10.329  0.2800 -0.1030  0.0272
   66loPI   PO4 1044   9.701  11.915   9.641 -0.1039 -0.1442  0.1252
   66loPI   GL1 1045   9.950  12.131   9.242  0.2820 -0.0468 -0.0246
   66loPI   GL2 1046   9.832  11.801   9.136 -0.1446 -0.0450 -0.2343
   66loPI   C1A 1047   9.680  12.506   9.092 -0.1962 -0.3135 -0.0440
   66loPI   C2A 1048   9.717  12.625   8.607 -0.0790 -0.1649 -0.2725
   66loPI   C3A 1049   9.861  12.456   8.182 -0.3048  0.0058 -0.1013
   66loPI   C4A 1050  10.038  12.364   7.866 -0.1017 -0.1583 -0.1283
   66loPI   C5A 1051   9.891  12.126   7.520  0.1167  0.1127  0.1241
   66loPI   C6A 1052   9.746  12.036   7.171  0.0515  0.6086  0.1148
   66loPI   C1B 1053  10.100  11.833   8.759 -0.3048  0.0324 -0.3213
   66loPI   C2B 1054  10.497  11.679   8.392 -0.0370 -0.1445  0.1034
   66loPI   C3B 1055  10.684  11.598   7.977 -0.2598  0.0914  0.1870
   66loPI   C4B 1056  11.042  11.638   7.685 -0.2436 -0.1307 -0.0573
   67loPI    C1 1057  13.224  11.191  10.081 -0.0815 -0.0852 -0.0462
   67loPI    C2 1058  13.115  11.574  10.051  0.3331  0.0386 -0.0316
   67loPI    C3 1059  13.074  11.382  10.399  0.0117  0.0307 -0.0712
   67loPI   PO4 1060  13.359  11.194   9.849 -0.0294 -0.0377  0.1512
   67loPI   GL1 1061  13.086  11.409   9.511  0.0480  0.2053 -0.0666
   67loPI   GL2 1062  13.301  11.170   9.293  0.0486 -0.3834 -0.6477
   67loPI   C1A 1063  13.101  11.659   9.127 -0.3515  0.0188  0.0313
   67loPI   C2A 1064  13.289  11.841   8.715  0.1594 -0.0875 -0.0828
   67loPI   C3A 1065  13.368  11.688   8.295  0.3353  0.0156  0.0345
   67loPI   C4A 1066  13.464  11.579   7.894  0.0707  0.0816 -0.3429
   67loPI   C5A 1067  13.561  11.506   7.449  0.0904 -0.3396  0.3522
   67loPI   C6A 1068  13.404  11.471   7.072 -0.1951 -0.4324 -0.5671
   67loPI   C1B 1069  13.327  11.179   8.883 -0.0704  0.1344  0.0280
   67loPI   C2B 1070  13.375  11.022   8.446  0.1402 -0.1962 -0.0277
   67loPI   C3B 1071  13.561  11.163   8.138  0.2183  0.0074 -0.1694
   67loPI   C4B 1072  13.868  11.237   7.830  0.0283  0.0335  0.0525
   68loPI    C1 1073   9.780   2.096   9.948 -0.0593 -0.0415  0.2071
   68loPI    C2 1074   9.394   2.016  10.014 -0.0820 -0.0618  0.0556
   68loPI    C3 1075   9.544   2.373  10.113 -0.0956 -0.1176  0.2831
   68loPI   PO4 1076   9.778   2.041   9.640 -0.0682 -0.0394  0.1466
   68loPI   GL1 1077   9.515   1.865   9.256 -0.0070 -0.3052  0.1804
   68loPI   GL2 1078   9.180   2.052   9.135 -0.0186  0.0912  0.2702
   68loPI   C1A 1079   9.728   1.836   9.008  0.1948 -0.1948 -0.1548
   68loPI   C2A 1080   9.803   1.964   8.625 -0.0947  0.3056  0.0602
   68loPI   C3A 1081   9.734   2.072   8.145 -0.0569  0.0245 -0.2215
   68loPI   C4A 1082   9.752   2.116   7.681 -0.1672  0.2685  0.0628
   68loPI   C5A 1083   9.718   2.309   7.266 -0.1739 -0.1432  0.0354
   68loPI   C6A 1084   9.947   2.371   7.003 -0.2386  0.1777  0.0388
   68loPI   C1B 1085   9.134   2.127   8.584 -0.1287  0.1986 -0.2659
   68loPI   C2B 1086   9.292   2.216   8.181  0.0155  0.1536 -0.2579
   68loPI   C3B 1087   9.152   2.304   7.757 -0.1081  0.1955  0.2897
   68loPI   C4B 1088   9.140   2.366   7.364  0.2956 -0.1307 -0.0699
   69loPI    C1 1089   4.973  12.621  10.180  0.0718  0.1737 -0.1567
   69loPI    C2 1090   4.858  12.610  10.563  0.0615 -0.0891 -0.1659
   69loPI    C3 1091   4.719  12.896  10.321 -0.0696 -0.0256 -0.0171
   69loPI   PO4 1092   4.919  12.340  10.046  0.1237 -0.1131  0.4924
   69loPI   GL1 1093   4.901  12.094   9.572  0.0368  0.0969  0.1275
   69loPI   GL2 1094   4.787  12.385   9.478  0.1422 -0.2309  0.2344
   69loPI   C1A 1095   4.927  11.746   9.308 -0.0733  0.0332  0.0368
   69loPI   C2A 1096   4.790  11.678   8.940  0.0424 -0.1712  0.0329
   69loPI   C3A 1097   4.753  11.548   8.594 -0.1530 -0.0161 -0.2853
   69loPI   C4A 1098   4.667  11.399   8.268 -0.2334 -0.1175 -0.1433
   69loPI   C5A 1099   4.628  11.293   7.872 -0.1790 -0.3002 -0.2712
   69loPI   C6A 1100   4.702  10.956   7.620 -0.3795  0.2053  0.1177
   69loPI   C1B 1101   4.906  12.214   9.015  0.0977 -0.1707 -0.0651
   69loPI   C2B 1102   4.837  12.124   8.597  0.1780 -0.0810  0.0749
   69loPI   C3B 1103   4.958  11.911   8.229  0.1275  0.1193 -0.0665
   69loPI   C4B 1104   4.850  11.710   7.787  0.1842  0.0669 -0.1214
   70loPI    C1 1105  17.738  18.019   9.829 -0.0246 -0.1881 -0.2370
   70loPI    C2 1106  17.684  17.851  10.189 -0.0635 -0.1140 -0.2082
   70loPI    C3 1107  17.869  18.204  10.159 -0.1207 -0.0878 -0.2548
   70loPI   PO4 1108  17.735  17.730   9.650 -0.0038  0.0631  0.4097
   70loPI   GL1 1109  17.413  17.542   9.457 -0.5138  0.1934  0.1585
   70loPI   GL2 1110  17.481  17.844   9.222  0.2333  0.0133 -0.2271
   70loPI   C1A 1111  17.424  17.247   9.155 -0.1998  0.2477  0.1874
   70loPI   C2A 1112  17.265  17.224   8.777  0.1617  0.1277  0.0939
   70loPI   C3A 1113  16.949  17.349   8.369 -0.2563 -0.2978 -0.1616
   70loPI   C4A 1114  16.852  17.382   7.878  0.2006  0.0850  0.2768
   70loPI   C5A 1115  16.768  17.323   7.515  0.1824  0.2704 -0.0730
   70loPI   C6A 1116  16.808  17.519   7.305  0.0201 -0.1368 -0.0953
   70loPI   C1B 1117  17.566  17.622   8.845 -0.1341  0.0770 -0.3006
   70loPI   C2B 1118  17.471  17.673   8.449  0.0867 -0.4337 -0.0635
   70loPI   C3B 1119  17.446  17.462   8.029  0.1739  0.3394  0.3422
   70loPI   C4B 1120  17.297  17.302   7.685  0.2277  0.1216 -0.0214
   71loPI    C1 1121   1.112   9.957  10.465  0.0822  0.0683 -0.0007
   71loPI    C2 1122   1.491  10.025  10.575  0.1278 -0.5368  0.2580
   71loPI    C3 1123   1.192  10.097  10.831  0.0573 -0.0509  0.0508
   71loPI   PO4 1124   1.196   9.868  10.102  0.1338  0.2128 -0.1377
   71loPI   GL1 1125   1.402   9.937   9.601  0.3174 -0.0183  0.0073
   71loPI   GL2 1126   1.708   9.835   9.573 -0.4896  0.2789  0.0534
   71loPI   C1A 1127   1.131   9.787   9.247  0.0891 -0.1609 -0.1382
   71loPI   C2A 1128   1.137   9.900   8.769  0.3074  0.2259 -0.1284
   71loPI   C3A 1129   1.230   9.753   8.326  0.1178  0.0776  0.1200
   71loPI   C4A 1130   1.455   9.763   7.973  0.3694  0.0710  0.0814
   71loPI   C5A 1131   1.794   9.951   7.659  0.0424 -0.2211 -0.1063
   71loPI   C6A 1132   2.169   9.866   7.488  0.2333 -0.1383  0.2856
   71loPI   C1B 1133   1.640   9.823   9.130 -0.0733 -0.1735  0.3102
   71loPI   C2B 1134   1.668   9.849   8.676  0.1662  0.0676 -0.1639
   71loPI   C3B 1135   1.748  10.109   8.299  0.2294  0.3233  0.0003
   71loPI   C4B 1136   1.612  10.265   7.978 -0.0195 -0.1614 -0.1280
   72loPI    C1 1137   5.662  17.316   9.412  0.0965 -0.0044  0.0475
   72loPI    C2 1138   6.041  17.241   9.309  0.0661  0.0066 -0.0746
   72loPI    C3 1139   5.809  16.945   9.446  0.1384  0.0140  0.0656
   72loPI   PO4 1140   5.682  17.570   9.187 -0.0091 -0.0332 -0.0548
   72loPI   GL1 1141   5.599  17.590   8.885 -0.0444  0.1994 -0.0780
   72loPI   GL2 1142   5.264  17.576   8.935 -0.0319  0.0927  0.0643
   72loPI   C1A 1143   5.470  17.321   8.458  0.2948 -0.2529  0.1709
   72loPI   C2A 1144   5.446  17.060   8.122  0.1194  0.1393  0.0831
   72loPI   C3A 1145   5.336  16.706   7.763 -0.0816  0.0195 -0.1815
   72loPI   C4A 1146   5.304  16.548   7.412  0.3121 -0.0491  0.1215
   72loPI   C5A 1147   5.141  16.311   7.117  0.0858  0.1614  0.6425
   72loPI   C6A 1148   5.273  16.200   6.875 -0.2001 -0.1907  0.0029
   72loPI   C1B 1149   5.031  17.409   8.694 -0.2361 -0.0121 -0.4030
   72loPI   C2B 1150   4.875  17.236   8.388  0.6083 -0.2791  0.0735
   72loPI   C3B 1151   5.012  17.215   7.946 -0.0790  0.1579 -0.0949
   72loPI   C4B 1152   5.143  17.143   7.592  0.2357  0.4658 -0.1616
   73loPI    C1 1153  12.972  16.260  10.037  0.0996 -0.0038  0.0006
   73loPI    C2 1154  12.980  16.245  10.436 -0.1921  0.3084  0.0224
   73loPI    C3 1155  12.693  16.052  10.234  0.0955 -0.0500 -0.0534
   73loPI   PO4 1156  13.220  16.336   9.996 -0.0987 -0.0402  0.1830
   73loPI   GL1 1157  13.501  16.094   9.700  0.1213 -0.1174  0.1717
   73loPI   GL2 1158  13.832  15.916   9.752  0.0221  0.0891 -0.2878
   73loPI   C1A 1159  13.095  15.995   9.431 -0.1509  0.4046  0.0807
   73loPI   C2A 1160  13.040  15.982   8.999  0.3134 -0.1462  0.0931
   73loPI   C3A 1161  13.155  16.018   8.574 -0.1067 -0.0285 -0.1122
   73loPI   C4A 1162  12.991  16.224   8.205  0.2942 -0.2329 -0.0042
   73loPI   C5A 1163  12.873  16.510   7.913  0.0236 -0.0363 -0.2036
   73loPI   C6A 1164  13.105  16.781   7.749  0.4183  0.1323 -0.1850
   73loPI   C1B 1165  13.999  15.627   9.452 -0.1514  0.1057  0.0531
   73loPI   C2B 1166  13.945  15.538   8.967  0.1855  0.1294 -0.0476
   73loPI   C3B 1167  14.019  15.753   8.551 -0.1265  0.1524  0.0455
   73loPI   C4B 1168  14.022  16.035   8.064  0.2644 -0.2706 -0.2659
   74loPI    C1 1169   6.240  14.969   9.619 -0.0454 -0.0013  0.0160
   74loPI    C2 1170   5.997  14.673   9.736  0.2222 -0.2512 -0.0492
   74loPI    C3 1171   6.260  14.830   9.994 -0.1393  0.1597  0.0818
   74loPI   PO4 1172   6.402  14.914   9.435  0.2131 -0.1151  0.0019
   74loPI   GL1 1173   6.302  14.554   9.138  0.2337  0.2124 -0.0027
   74loPI   GL2 1174   6.492  14.695   8.980 -0.1739  0.2926 -0.2884
   74loPI   C1A 1175   6.034  14.174   8.908 -0.2590 -0.0713 -0.1570
   74loPI   C2A 1176   6.047  14.061   8.558 -0.0347  0.0880 -0.0501
   74loPI   C3A 1177   5.692  14.110   8.352  0.1070 -0.1548 -0.0720
   74loPI   C4A 1178   5.622  13.915   7.904  0.2405  0.1809 -0.3434
   74loPI   C5A 1179   5.531  13.744   7.519  0.0294 -0.0316 -0.0352
   74loPI   C6A 1180   5.276  13.994   7.293 -0.1467  0.3217  0.1086
   74loPI   C1B 1181   6.640  14.747   8.599 -0.1721 -0.3749 -0.1047
   74loPI   C2B 1182   6.761  14.777   8.137 -0.0687  0.1412 -0.0428
   74loPI   C3B 1183   6.906  14.772   7.694 -0.3892 -0.0347  0.2181
   74loPI   C4B 1184   7.262  14.703   7.398  0.1956 -0.0550 -0.2145
   75loPI    C1 1185   3.343  16.448  10.043  0.2872  0.0491  0.0891
   75loPI    C2 1186   3.332  16.741   9.770 -0.0739  0.1487  0.2051
   75loPI    C3 1187   3.517  16.800  10.120  0.2264  0.0858  0.0600
   75loPI   PO4 1188   3.275  16.217   9.933 -0.2410  0.1229 -0.1301
   75loPI   GL1 1189   3.296  16.073   9.525  0.0551 -0.2184 -0.1710
   75loPI   GL2 1190   3.513  16.359   9.525  0.0069 -0.0806 -0.0578
   75loPI   C1A 1191   3.081  16.103   9.175 -0.1921  0.1521  0.0813
   75loPI   C2A 1192   2.887  16.119   8.898 -0.0936  0.1707 -0.0088
   75loPI   C3A 1193   2.592  15.962   8.461 -0.3362  0.3159  0.0786
   75loPI   C4A 1194   2.429  15.900   7.978  0.0545  0.1000  0.1631
   75loPI   C5A 1195   2.601  15.770   7.541 -0.0038 -0.0599 -0.1900
   75loPI   C6A 1196   2.749  15.925   7.137  0.1104  0.1886 -0.3066
   75loPI   C1B 1197   3.284  16.558   9.316 -0.0622 -0.2479 -0.1622
   75loPI   C2B 1198   2.897  16.531   9.149 -0.1021 -0.3180  0.0355
   75loPI   C3B 1199   2.726  16.860   8.889 -0.2552 -0.1855 -0.0475
   75loPI   C4B 1200   2.907  17.232   8.710  0.2323 -0.1637 -0.1866
   76loPI    C1 1201  16.244  11.947  10.283  0.0087 -0.0308  0.0585
   76loPI    C2 1202  16.276  11.575  10.139 -0.1557 -0.0063 -0.0445
   76loPI    C3 1203  15.918  11.753  10.155 -0.1025  0.0852  0.1625
   76loPI   PO4 1204  16.326  12.108  10.217 -0.0800  0.2447 -0.1431
   76loPI   GL1 1205  16.621  12.112   9.781  0.0420 -0.4458  0.1671
   76loPI   GL2 1206  16.414  11.853   9.705  0.2120  0.1116 -0.1724
   76loPI   C1A 1207  16.505  12.398   9.396 -0.2265 -0.0545  0.0035
   76loPI   C2A 1208  16.481  12.519   8.946 -0.4911  0.3075  0.5361
   76loPI   C3A 1209  16.601  12.633   8.515  0.0442  0.0984 -0.1040
   76loPI   C4A 1210  16.763  12.381   8.184 -0.0079 -0.1441 -0.0155
   76loPI   C5A 1211  16.651  12.059   7.795 -0.1628 -0.2879 -0.5858
   76loPI   C6A 1212  16.679  11.655   7.736  0.0623 -0.0988  0.2924
   76loPI   C1B 1213  16.375  11.730   9.258 -0.1392 -0.3132 -0.0496
   76loPI   C2B 1214  16.364  11.629   8.774  0.0457 -0.1441 -0.1082
   76loPI   C3B 1215  16.243  11.376   8.460  0.1732  0.0246  0.3872
   76loPI   C4B 1216  16.275  11.349   7.955  0.0350 -0.2495  0.0886
   77loPI    C1 1217   2.650   3.481   9.568  0.0590  0.1411 -0.2062
   77loPI    C2 1218   2.940   3.548   9.301  0.1829 -0.0174 -0.1133
   77loPI    C3 1219   2.811   3.175   9.366 -0.1942  0.0736 -0.3101
   77loPI   PO4 1220   2.359   3.665   9.399 -0.0601 -0.4005 -0.0326
   77loPI   GL1 1221   2.463   3.746   8.973  0.2583 -0.1880 -0.2350
   77loPI   GL2 1222   2.610   3.553   8.962  0.4400 -0.0414  0.2234
   77loPI   C1A 1223   2.529   3.883   8.480  0.2924  0.3423  0.1740
   77loPI   C2A 1224   2.491   3.890   8.102 -0.3436  0.1482  0.2301
   77loPI   C3A 1225   2.790   3.755   7.826 -0.0276  0.0516  0.0911
   77loPI   C4A 1226   2.899   3.672   7.442 -0.1344  0.0574 -0.0106
   77loPI   C5A 1227   3.164   3.857   7.093  0.0821  0.1100 -0.0163
   77loPI   C6A 1228   3.150   4.130   6.793  0.0896 -0.1265 -0.4791
   77loPI   C1B 1229   2.463   3.365   8.534  0.0839 -0.0988  0.0016
   77loPI   C2B 1230   2.456   3.340   8.061 -0.1891  0.2220  0.1283
   77loPI   C3B 1231   2.541   3.303   7.600 -0.5676  0.0336 -0.2168
   77loPI   C4B 1232   2.406   3.402   7.213 -0.0303  0.2619  0.2566
   78loPI    C1 1233  10.303   2.576   9.643  0.0774 -0.0380 -0.1724
   78loPI    C2 1234  10.259   2.181   9.695 -0.0871  0.0022  0.0031
   78loPI    C3 1235  10.431   2.403   9.980  0.2018  0.0262 -0.1864
   78loPI   PO4 1236  10.422   2.553   9.396 -0.2330  0.2451 -0.1013
   78loPI   GL1 1237  10.642   2.162   9.295  0.0240 -0.0951  0.1670
   78loPI   GL2 1238  10.930   2.220   9.302  0.1540  0.0555 -0.1817
   78loPI   C1A 1239  10.562   1.980   8.906 -0.0518  0.1902  0.2688
   78loPI   C2A 1240  10.677   1.726   8.541 -0.1410  0.1336  0.0249
   78loPI   C3A 1241  10.646   1.608   8.094 -0.1218  0.2444 -0.2855
   78loPI   C4A 1242  10.632   1.372   7.676  0.1220 -0.2233  0.0487
   78loPI   C5A 1243  10.838   1.599   7.342 -0.1312 -0.0056 -0.1909
   78loPI   C6A 1244  11.305   1.726   7.285  0.1351 -0.2757 -0.1224
   78loPI   C1B 1245  11.010   2.192   8.891 -0.1002  0.0398  0.0631
   78loPI   C2B 1246  10.744   2.269   8.480 -0.1174  0.0800  0.0130
   78loPI   C3B 1247  10.976   2.421   8.061 -0.0844 -0.5014  0.0830
   78loPI   C4B 1248  10.689   2.440   7.669  0.1449 -0.1030  0.0423
   79loPI    C1 1249   3.856  15.359  10.068  0.0832 -0.3780  0.0513
   79loPI    C2 1250   3.456  15.363  10.069  0.0834  0.0143  0.0347
   79loPI    C3 1251   3.658  15.465  10.399  0.1717 -0.2060  0.0503
   79loPI   PO4 1252   3.961  15.472   9.912  0.0150 -0.1343 -0.0609
   79loPI   GL1 1253   3.789  15.489   9.386  0.0948 -0.1070 -0.0901
   79loPI   GL2 1254   3.639  15.639   9.511 -0.0986  0.1010  0.1643
   79loPI   C1A 1255   3.843  15.421   8.971  0.0879 -0.2145 -0.2764
   79loPI   C2A 1256   3.770  15.327   8.463  0.1878 -0.4193  0.1520
   79loPI   C3A 1257   3.747  15.307   8.057  0.0462  0.0091 -0.2939
   79loPI   C4A 1258   3.801  15.222   7.606  0.0107  0.2150  0.0784
   79loPI   C5A 1259   4.009  14.793   7.413  0.0951  0.1170  0.0760
   79loPI   C6A 1260   3.951  14.356   7.497  0.2368  0.6345 -0.0936
   79loPI   C1B 1261   3.564  15.910   9.144  0.3556 -0.2241  0.1569
   79loPI   C2B 1262   3.710  15.798   8.712  0.2372  0.0127  0.0606
   79loPI   C3B 1263   3.538  15.711   8.254 -0.1045 -0.0697 -0.0726
   79loPI   C4B 1264   3.369  15.677   7.959 -0.4922  0.2203  0.0863
   80loPI    C1 1265   0.091   2.773   9.251 -0.0410 -0.3419  0.0863
   80loPI    C2 1266  -0.152   2.862   9.556  0.1180  0.1561  0.0764
   80loPI    C3 1267   0.239   2.945   9.581  0.1883 -0.0974 -0.1383
   80loPI   PO4 1268   0.014   2.970   9.113 -0.1267 -0.0989 -0.0262
   80loPI   GL1 1269  -0.034   3.352   8.991  0.2890 -0.2177 -0.1137
   80loPI   GL2 1270   0.208   3.445   8.942 -0.1268 -0.1186  0.3537
   80loPI   C1A 1271  -0.156   3.312   8.523  0.2432  0.0710  0.0642
   80loPI   C2A 1272  -0.272   3.296   8.042  0.0128 -0.2084  0.1070
   80loPI   C3A 1273  -0.287   3.324   7.590  0.2779 -0.4621  0.2681
   80loPI   C4A 1274  -0.563   3.426   7.291 -0.1367  0.0832  0.1304
   80loPI   C5A 1275  -0.751   3.124   7.084 -0.0615 -0.2807 -0.0863
   80loPI   C6A 1276  -0.874   2.677   7.238  0.0896  0.1041  0.2494
   80loPI   C1B 1277   0.331   3.321   8.495  0.1474 -0.2731 -0.3303
   80loPI   C2B 1278   0.207   3.073   8.079  0.1898 -0.2283  0.2857
   80loPI   C3B 1279   0.051   2.924   7.612  0.1694  0.1271  0.0252
   80loPI   C4B 1280   0.275   2.781   7.195 -0.0955 -0.0739  0.1337
   81loPI    C1 1281  13.856   8.539   9.933 -0.1449 -0.2149  0.4517
   81loPI    C2 1282  14.173   8.296   9.954 -0.0220 -0.1094 -0.0475
   81loPI    C3 1283  13.839   8.173   9.772 -0.0179  0.0316 -0.1527
   81loPI   PO4 1284  13.938   8.797   9.781 -0.0742  0.2181  0.2033
   81loPI   GL1 1285  13.775   8.726   9.431  0.1931  0.1181  0.0863
   81loPI   GL2 1286  13.770   8.457   9.375  0.2060  0.0632 -0.1020
   81loPI   C1A 1287  13.803   8.989   9.049  0.0518  0.1468 -0.1372
   81loPI   C2A 1288  13.824   8.918   8.630  0.1265 -0.3250 -0.2400
   81loPI   C3A 1289  13.817   8.924   8.081  0.1276  0.1496 -0.1844
   81loPI   C4A 1290  13.526   9.196   7.711  0.2654  0.3167 -0.2191
   81loPI   C5A 1291  13.360   9.497   7.468 -0.1571  0.3055  0.2546
   81loPI   C6A 1292  13.359   9.748   7.016 -0.3561 -0.2483  0.3158
   81loPI   C1B 1293  13.630   8.499   8.956 -0.3499  0.0881 -0.0130
   81loPI   C2B 1294  13.608   8.474   8.473 -0.3422  0.0069  0.2391
   81loPI   C3B 1295  13.679   8.401   8.032 -0.1120  0.4194  0.1307
   81loPI   C4B 1296  13.940   8.543   7.626  0.0016  0.4087 -0.1075
   82loPI    C1 1297  15.696  17.122  10.219 -0.2982  0.0304  0.1136
   82loPI    C2 1298  15.849  17.435  10.022  0.0799 -0.1175  0.1643
   82loPI    C3 1299  15.566  17.492  10.299  0.0709  0.1674  0.0996
   82loPI   PO4 1300  15.765  16.937  10.047  0.1937  0.0283  0.0320
   82loPI   GL1 1301  15.670  16.581   9.674  0.2572  0.0308 -0.1207
   82loPI   GL2 1302  15.900  16.505   9.666 -0.0302 -0.2909  0.4758
   82loPI   C1A 1303  15.613  16.673   9.181  0.1101  0.2385  0.2273
   82loPI   C2A 1304  15.840  16.443   8.826 -0.1064 -0.3025  0.2753
   82loPI   C3A 1305  15.833  16.360   8.457  0.0039 -0.0262  0.0290
   82loPI   C4A 1306  16.040  16.019   8.200 -0.0612  0.0152 -0.2375
   82loPI   C5A 1307  16.312  15.863   7.942 -0.2401  0.0220 -0.1139
   82loPI   C6A 1308  16.263  15.645   7.546  0.4303  0.0687  0.2167
   82loPI   C1B 1309  15.642  16.099   9.477  0.1876  0.2119  0.4106
   82loPI   C2B 1310  15.531  16.080   9.101  0.3968  0.0160  0.0882
   82loPI   C3B 1311  15.431  16.186   8.772  0.0223  0.1797  0.2045
   82loPI   C4B 1312  15.279  16.374   8.415  0.2047  0.2487 -0.2376
   83loPI    C1 1313   5.651   1.213   9.481  0.2394 -0.1357  0.0201
   83loPI    C2 1314   5.779   1.160   9.856  0.0886  0.1516  0.1144
   83loPI    C3 1315   5.387   1.146   9.774  0.1346 -0.1189 -0.0698
   83loPI   PO4 1316   5.773   1.516   9.353 -0.4282  0.1085  0.1936
   83loPI   GL1 1317   5.523   1.778   9.187  0.1930 -0.0665  0.0391
   83loPI   GL2 1318   5.260   1.733   9.169  0.2954  0.1127 -0.4521
   83loPI   C1A 1319   5.544   2.077   8.906 -0.3070  0.0126  0.1292
   83loPI   C2A 1320   5.580   2.153   8.448 -0.0634  0.1390  0.0343
   83loPI   C3A 1321   5.654   2.187   8.011  0.3072  0.1266 -0.1055
   83loPI   C4A 1322   5.781   1.994   7.679 -0.1339 -0.1293 -0.1306
   83loPI   C5A 1323   5.564   2.023   7.361  0.0107 -0.1997 -0.1041
   83loPI   C6A 1324   5.409   2.257   7.122  0.1753  0.2235  0.2096
   83loPI   C1B 1325   4.880   1.605   8.992 -0.1336  0.0235  0.2168
   83loPI   C2B 1326   4.673   1.649   8.657  0.3554  0.1355  0.1091
   83loPI   C3B 1327   4.804   1.800   8.389 -0.1186 -0.1379 -0.3625
   83loPI   C4B 1328   4.789   1.925   8.006 -0.1759 -0.4503  0.1450
   84loPI    C1 1329   9.623  18.074   9.890  0.0082  0.0372  0.0525
   84loPI    C2 1330   9.602  18.229  10.258  0.2090  0.0361  0.0653
   84loPI    C3 1331   9.345  18.349   9.976 -0.1054 -0.1424  0.2698
   84loPI   PO4 1332   9.913  18.062   9.870 -0.0455 -0.1178  0.0560
   84loPI   GL1 1333  10.042  18.060   9.429 -0.3191 -0.1522 -0.2900
   84loPI   GL2 1334  10.177  17.879   9.222 -0.3103  0.0090  0.0296
   84loPI   C1A 1335  10.436  18.328   9.278 -0.0410 -0.0073 -0.2192
   84loPI   C2A 1336  10.583  18.309   8.917  0.2523  0.3078 -0.0485
   84loPI   C3A 1337  10.758  18.536   8.552  0.3962  0.1412  0.0014
   84loPI   C4A 1338  10.923  18.506   8.156  0.0633  0.0833 -0.0796
   84loPI   C5A 1339  11.247  18.405   7.790 -0.1038 -0.1340  0.0458
   84loPI   C6A 1340  11.649  18.052   7.777 -0.0398  0.2078  0.1371
   84loPI   C1B 1341  10.119  18.029   8.798 -0.0523  0.3649 -0.0757
   84loPI   C2B 1342  10.316  17.957   8.329 -0.3092 -0.3180 -0.2980
   84loPI   C3B 1343  10.520  17.593   8.095 -0.0157  0.2227  0.3052
   84loPI   C4B 1344  10.803  17.189   8.210 -0.0172  0.1577  0.0151
   85loPI    C1 1345   3.414   2.927   9.669  0.2816  0.2581  0.0282
   85loPI    C2 1346   3.158   3.213   9.780  0.2764  0.2015  0.1645
   85loPI    C3 1347   3.021   2.852   9.674  0.3003  0.1656  0.2550
   85loPI   PO4 1348   3.601   3.108   9.488  0.1673 -0.0065  0.0731
   85loPI   GL1 1349   3.767   2.933   9.132 -0.0674  0.1004 -0.1014
   85loPI   GL2 1350   3.641   2.719   9.187  0.0315 -0.2107 -0.3601
   85loPI   C1A 1351   3.907   3.125   8.718 -0.5117 -0.0445 -0.0526
   85loPI   C2A 1352   3.994   3.168   8.328  0.1228 -0.0603  0.0852
   85loPI   C3A 1353   4.091   3.111   7.845  0.0990 -0.2393  0.1562
   85loPI   C4A 1354   3.859   3.236   7.436 -0.0018  0.3947  0.1215
   85loPI   C5A 1355   3.776   3.242   7.008  0.0802  0.5277  0.0489
   85loPI   C6A 1356   4.123   3.160   6.634 -0.0384  0.1726  0.1372
   85loPI   C1B 1357   3.578   2.616   8.714  0.1212 -0.0639 -0.0175
   85loPI   C2B 1358   3.566   2.505   8.253  0.0443  0.2721 -0.0949
   85loPI   C3B 1359   3.618   2.568   7.846 -0.0037 -0.0066 -0.0493
   85loPI   C4B 1360   3.709   2.669   7.437  0.0315  0.0250  0.0898
   86loPI    C1 1361   9.190  10.237   9.864 -0.0633  0.1707  0.0609
   86loPI    C2 1362   9.097  10.000  10.172 -0.2396  0.1632  0.0025
   86loPI    C3 1363   9.007  10.389  10.185 -0.1735  0.1789 -0.0056
   86loPI   PO4 1364   9.304  10.083   9.624 -0.0801  0.1096 -0.0555
   86loPI   GL1 1365   9.510  10.158   9.211  0.3151  0.1830  0.0816
   86loPI   GL2 1366   9.791  10.086   9.184 -0.0398  0.1710  0.0499
   86loPI   C1A 1367   9.330  10.443   8.843 -0.1485 -0.1687 -0.1283
   86loPI   C2A 1368   9.287  10.577   8.416  0.1407 -0.0418  0.2237
   86loPI   C3A 1369   9.382  10.621   8.011 -0.0487  0.3815 -0.2495
   86loPI   C4A 1370   9.364  10.403   7.711 -0.3225  0.0953 -0.0864
   86loPI   C5A 1371   9.095  10.137   7.311  0.1500 -0.0162 -0.3260
   86loPI   C6A 1372   9.010  10.127   6.907 -0.2272  0.3219 -0.1578
   86loPI   C1B 1373   9.489   9.938   8.752 -0.1484 -0.4558  0.2466
   86loPI   C2B 1374   9.433   9.791   8.273 -0.0661  0.4724 -0.2770
   86loPI   C3B 1375   9.454   9.884   7.800 -0.3262 -0.0788 -0.1924
   86loPI   C4B 1376   9.568   9.913   7.434  0.1261  0.1425 -0.2910
   87loPI    C1 1377  12.444  13.882  10.179 -0.0491  0.0023 -0.1062
   87loPI    C2 1378  12.822  13.902  10.306 -0.1335 -0.1606  0.1800
   87loPI    C3 1379  12.665  13.550  10.201 -0.1482 -0.0655 -0.1261
   87loPI   PO4 1380  12.386  14.093   9.999 -0.0605 -0.3174 -0.2908
   87loPI   GL1 1381  12.601  14.305   9.580 -0.3535  0.2118  0.0988
   87loPI   GL2 1382  12.303  14.206   9.576  0.2811  0.0677  0.7251
   87loPI   C1A 1383  12.784  14.372   9.325  0.0297 -0.2395 -0.1070
   87loPI   C2A 1384  12.951  14.486   8.886  0.1659  0.2808  0.1245
   87loPI   C3A 1385  13.276  14.360   8.623  0.1750  0.1294  0.0136
   87loPI   C4A 1386  13.403  14.294   8.082 -0.0505  0.2788  0.1525
   87loPI   C5A 1387  13.426  14.634   7.725 -0.0427  0.1624  0.0621
   87loPI   C6A 1388  13.235  15.072   7.559  0.1745  0.0919 -0.0687
   87loPI   C1B 1389  12.018  14.024   9.213 -0.0638  0.0853  0.0157
   87loPI   C2B 1390  11.976  14.118   8.856  0.3645 -0.1238 -0.0167
   87loPI   C3B 1391  12.077  14.125   8.483  0.0109  0.1447  0.1211
   87loPI   C4B 1392  12.326  14.072   8.141  0.1148  0.0327 -0.1758
   88loPI    C1 1393   2.015  15.644  10.237 -0.0900 -0.1916 -0.1450
   88loPI    C2 1394   2.389  15.647  10.094 -0.0589 -0.1306 -0.0629
   88loPI    C3 1395   2.300  15.428  10.417 -0.0348  0.0583  0.0739
   88loPI   PO4 1396   1.853  15.739   9.989 -0.1728 -0.1299  0.1716
   88loPI   GL1 1397   1.654  16.010   9.828 -0.0006  0.0463 -0.2817
   88loPI   GL2 1398   1.412  15.919   9.636  0.1501  0.0120  0.0036
   88loPI   C1A 1399   1.813  16.105   9.448 -0.2693  0.0989 -0.0910
   88loPI   C2A 1400   1.930  16.213   9.035 -0.1530 -0.1863  0.0626
   88loPI   C3A 1401   1.848  16.603   8.870 -0.1249  0.3383 -0.1904
   88loPI   C4A 1402   1.926  16.608   8.324  0.1484 -0.3360 -0.1972
   88loPI   C5A 1403   2.149  16.889   8.025  0.0921  0.2914  0.1901
   88loPI   C6A 1404   2.450  16.904   7.753  0.1863 -0.0401  0.0386
   88loPI   C1B 1405   1.384  15.953   9.298  0.1591 -0.0607 -0.1565
   88loPI   C2B 1406   1.311  15.849   8.854  0.1675 -0.0316  0.2543
   88loPI   C3B 1407   1.251  15.966   8.435 -0.0018  0.1368 -0.0853
   88loPI   C4B 1408   1.529  15.972   7.982  0.2317 -0.1652  0.0443
   89loPI    C1 1409   0.369   5.342   9.851 -0.1432  0.0261  0.2395
   89loPI    C2 1410   0.694   5.448  10.059 -0.0908 -0.0473  0.1957
   89loPI    C3 1411   0.343   5.628  10.130  0.0552  0.3560 -0.0712
   89loPI   PO4 1412   0.423   5.306   9.639 -0.0400 -0.4372  0.0820
   89loPI   GL1 1413   0.321   5.190   9.265 -0.1234  0.0791  0.0180
   89loPI   GL2 1414   0.029   5.051   9.091 -0.2177 -0.1377 -0.3044
   89loPI   C1A 1415   0.404   5.349   8.819 -0.2708  0.2778 -0.2391
   89loPI   C2A 1416   0.292   5.520   8.460 -0.1846 -0.1586  0.4199
   89loPI   C3A 1417   0.317   5.998   8.268 -0.2884 -0.3741 -0.1206
   89loPI   C4A 1418   0.238   6.216   7.817  0.1550 -0.0077  0.1152
   89loPI   C5A 1419  -0.266   6.445   7.835  0.3073  0.0999 -0.0120
   89loPI   C6A 1420  -0.671   6.313   7.638 -0.0717 -0.0772 -0.1296
   89loPI   C1B 1421   0.059   5.086   8.616  0.0152  0.0526  0.0704
   89loPI   C2B 1422   0.051   5.079   8.105 -0.2373  0.1331  0.1411
   89loPI   C3B 1423   0.284   5.198   7.688 -0.1464  0.2557  0.3794
   89loPI   C4B 1424   0.268   5.711   7.505  0.1086 -0.0472  0.1232
   90loPI    C1 1425   9.219  17.382  10.009  0.3077  0.3357  0.0783
   90loPI    C2 1426   9.477  17.220  10.268  0.1149 -0.1391 -0.0171
   90loPI    C3 1427   9.096  17.279  10.375  0.1176 -0.0093 -0.0775
   90loPI   PO4 1428   9.336  17.173   9.775 -0.0076  0.2301 -0.2131
   90loPI   GL1 1429   9.450  17.219   9.318  0.1540  0.2111 -0.1753
   90loPI   GL2 1430   9.092  17.143   9.183  0.0566  0.4269 -0.1937
   90loPI   C1A 1431   9.712  17.176   8.935  0.2931 -0.2037  0.2932
   90loPI   C2A 1432   9.712  17.145   8.554  0.1837  0.1263 -0.0242
   90loPI   C3A 1433   9.777  17.296   8.146  0.1804 -0.0407 -0.0894
   90loPI   C4A 1434   9.771  17.270   7.731  0.2137 -0.2547 -0.4845
   90loPI   C5A 1435   9.795  17.574   7.521 -0.1552  0.2501  0.1706
   90loPI   C6A 1436   9.820  17.954   7.370  0.1129 -0.1378  0.0483
   90loPI   C1B 1437   9.286  17.463   8.860 -0.3334  0.2860 -0.3133
   90loPI   C2B 1438   9.303  17.439   8.387 -0.2111  0.3269 -0.3076
   90loPI   C3B 1439   9.246  17.491   7.980 -0.1210 -0.4490  0.1237
   90loPI   C4B 1440   9.243  17.197   7.776  0.3240  0.0965  0.1014
   91loPI    C1 1441  17.424   7.307  10.274  0.0944  0.0528  0.0433
   91loPI    C2 1442  17.739   7.498  10.430  0.0589  0.1255  0.0260
   91loPI    C3 1443  17.598   7.168  10.606 -0.0043  0.2280  0.1702
   91loPI   PO4 1444  17.516   7.308  10.039 -0.2825 -0.0566  0.3539
   91loPI   GL1 1445  17.690   7.229   9.730 -0.0742 -0.1666 -0.1331
   91loPI   GL2 1446  17.950   7.410   9.575  0.2911  0.1369 -0.1541
   91loPI   C1A 1447  17.601   7.325   9.261 -0.0952  0.1747  0.0956
   91loPI   C2A 1448  17.739   7.029   8.973 -0.1230 -0.0522 -0.3368
   91loPI   C3A 1449  17.761   6.998   8.524  0.2696  0.1505  0.1489
   91loPI   C4A 1450  17.619   6.753   8.215 -0.0663  0.1104  0.0450
   91loPI   C5A 1451  17.666   6.992   7.873  0.0722  0.1134 -0.0818
   91loPI   C6A 1452  17.282   7.062   7.665  0.1879 -0.1631  0.1006
   91loPI   C1B 1453  18.048   7.457   9.149 -0.2210 -0.0371 -0.4005
   91loPI   C2B 1454  18.194   7.352   8.772 -0.3387  0.2562  0.2359
   91loPI   C3B 1455  18.539   7.341   8.388 -0.0700  0.2214  0.0106
   91loPI   C4B 1456  18.752   7.255   7.945  0.0420 -0.0609  0.0609
   92loPI    C1 1457  15.640   3.812   9.912 -0.1648  0.0377  0.0579
   92loPI    C2 1458  15.816   3.628  10.221  0.2267  0.3336  0.0197
   92loPI    C3 1459  15.491   3.854  10.280  0.0373  0.0351  0.1415
   92loPI   PO4 1460  15.587   3.807   9.643  0.0196  0.6963  0.2385
   92loPI   GL1 1461  15.564   3.623   9.332  0.0384  0.0800  0.1761
   92loPI   GL2 1462  15.785   3.967   9.220  0.0541 -0.0294  0.1514
   92loPI   C1A 1463  15.402   3.791   8.837  0.0413  0.1686  0.0159
   92loPI   C2A 1464  15.371   3.702   8.370 -0.1571  0.3115  0.0699
   92loPI   C3A 1465  15.226   3.862   8.102 -0.0619 -0.1244 -0.1301
   92loPI   C4A 1466  14.940   3.853   7.805 -0.3777 -0.0138  0.2053
   92loPI   C5A 1467  14.654   4.131   7.533 -0.0744  0.0928  0.1263
   92loPI   C6A 1468  14.496   4.201   7.193 -0.1502  0.1041 -0.0369
   92loPI   C1B 1469  15.938   3.958   8.830 -0.2218 -0.0460 -0.0941
   92loPI   C2B 1470  15.790   4.025   8.380 -0.0318  0.2351 -0.1412
   92loPI   C3B 1471  15.617   4.118   7.948  0.1833 -0.2257  0.0653
   92loPI   C4B 1472  15.544   4.400   7.594  0.0941  0.0920 -0.1418
   93loPI    C1 1473   9.769  10.272   9.740  0.1474 -0.3472  0.0506
   93loPI    C2 1474  10.001  10.498   9.975 -0.1345  0.1879 -0.1696
   93loPI    C3 1475   9.715  10.269  10.136  0.2118 -0.0903  0.0628
   93loPI   PO4 1476   9.902  10.449   9.463 -0.3103  0.0655  0.0539
   93loPI   GL1 1477  10.196  10.592   9.208 -0.0048 -0.1457  0.1146
   93loPI   GL2 1478  10.149  10.816   9.032 -0.0009 -0.0987  0.1050
   93loPI   C1A 1479  10.494  10.597   8.759 -0.4005 -0.1141 -0.1221
   93loPI   C2A 1480  10.622  10.699   8.350  0.0775 -0.1191 -0.0179
   93loPI   C3A 1481  10.734  10.780   7.874  0.2582 -0.1647 -0.1508
   93loPI   C4A 1482  10.740  10.786   7.449  0.1747 -0.3031 -0.2584
   93loPI   C5A 1483  10.782  10.427   7.204 -0.0900 -0.1314 -0.1300
   93loPI   C6A 1484  10.901  10.276   6.701 -0.1513  0.0839  0.0524
   93loPI   C1B 1485  10.125  10.818   8.488  0.1476 -0.0212  0.1253
   93loPI   C2B 1486  10.215  10.629   8.090 -0.0522  0.0046  0.0007
   93loPI   C3B 1487  10.314  10.524   7.662 -0.1150 -0.0245  0.0161
   93loPI   C4B 1488  10.173  10.466   7.291  0.0793 -0.0259  0.2324
   94loPI    C1 1489   0.130  16.014  10.443 -0.1651  0.2720 -0.0189
   94loPI    C2 1490   0.164  15.730  10.723 -0.0017  0.1152 -0.1948
   94loPI    C3 1491  -0.028  16.071  10.807  0.0414  0.0689  0.1056
   94loPI   PO4 1492   0.298  15.916  10.213  0.2312 -0.2618  0.1037
   94loPI   GL1 1493   0.152  15.834   9.749  0.0666  0.2496 -0.1107
   94loPI   GL2 1494   0.475  15.820   9.791  0.0785 -0.1149  0.1541
   94loPI   C1A 1495  -0.002  15.757   9.333 -0.5061 -0.1381  0.2628
   94loPI   C2A 1496  -0.042  15.594   8.915 -0.4932  0.0265 -0.1243
   94loPI   C3A 1497  -0.205  15.633   8.486 -0.3491 -0.2275  0.4075
   94loPI   C4A 1498  -0.370  15.537   8.051 -0.1960 -0.3629  0.0601
   94loPI   C5A 1499  -0.639  15.744   7.763 -0.3140 -0.0149 -0.2186
   94loPI   C6A 1500  -1.065  15.741   7.750  0.0010  0.0033 -0.2275
   94loPI   C1B 1501   0.478  16.036   9.361 -0.1527 -0.0555 -0.2845
   94loPI   C2B 1502   0.477  15.991   9.008  0.0733  0.2032 -0.0573
   94loPI   C3B 1503   0.424  16.084   8.584  0.1100  0.1338 -0.0285
   94loPI   C4B 1504   0.333  16.192   8.060  0.0971 -0.0098 -0.0594
   95loPI    C1 1505  18.682   3.749   9.747  0.3662  0.1989  0.2349
   95loPI    C2 1506  18.316   3.710   9.903  0.1834 -0.4013 -0.2987
   95loPI    C3 1507  18.630   3.540  10.084  0.2042  0.0711  0.1322
   95loPI   PO4 1508  18.602   3.833   9.511 -0.1315  0.0971 -0.0235
   95loPI   GL1 1509  18.473   3.809   9.081  0.0763  0.0885 -0.1539
   95loPI   GL2 1510  18.453   4.055   8.896  0.2369  0.1126 -0.3490
   95loPI   C1A 1511  18.564   3.530   8.720 -0.0514 -0.0193 -0.0048
   95loPI   C2A 1512  18.443   3.391   8.387  0.0173 -0.2970 -0.1297
   95loPI   C3A 1513  18.417   3.434   7.912  0.0784 -0.1478  0.0428
   95loPI   C4A 1514  18.327   3.818   7.661 -0.1413 -0.1758 -0.1170
   95loPI   C5A 1515  18.308   4.217   7.455 -0.2173  0.0097  0.0340
   95loPI   C6A 1516  18.139   4.202   7.119  0.0518 -0.0544 -0.0056
   95loPI   C1B 1517  18.496   4.055   8.503 -0.0222 -0.1652  0.2862
   95loPI   C2B 1518  18.686   3.774   8.284  0.2190  0.1405 -0.1286
   95loPI   C3B 1519  18.815   3.759   7.823  0.4312 -0.1381  0.0424
   95loPI   C4B 1520  18.925   3.847   7.395 -0.3817 -0.0534 -0.0629
   96loPI    C1 1521   8.528  14.291   9.998 -0.0648 -0.0686 -0.1420
   96loPI    C2 1522   8.165  14.434  10.087  0.0494  0.2117 -0.1151
   96loPI    C3 1523   8.472  14.500  10.335  0.0905 -0.1496 -0.0649
   96loPI   PO4 1524   8.654  14.325   9.724  0.3361  0.4637  0.2296
   96loPI   GL1 1525   8.664  14.475   9.270 -0.0188  0.0004 -0.0038
   96loPI   GL2 1526   8.339  14.390   9.182 -0.2780 -0.1675 -0.1863
   96loPI   C1A 1527   8.775  14.233   8.909 -0.0514  0.1213 -0.0360
   96loPI   C2A 1528   8.935  14.220   8.457 -0.1151  0.1978 -0.0515
   96loPI   C3A 1529   9.068  14.148   7.935  0.1374  0.1077 -0.3271
   96loPI   C4A 1530   9.287  14.259   7.546  0.0903  0.1123 -0.0790
   96loPI   C5A 1531   9.497  14.413   7.334 -0.0731 -0.0402 -0.0776
   96loPI   C6A 1532   9.820  14.242   6.990  0.4073 -0.0427 -0.1302
   96loPI   C1B 1533   8.416  14.467   8.646  0.1970  0.2613 -0.2397
   96loPI   C2B 1534   8.551  14.368   8.145 -0.2058 -0.1495  0.0043
   96loPI   C3B 1535   8.372  14.628   7.827 -0.1979  0.2066  0.1158
   96loPI   C4B 1536   8.159  14.804   7.489  0.1186  0.1350 -0.0406
   97loPI    C1 1537   3.545   1.796   9.509 -0.0147 -0.0354 -0.2173
   97loPI    C2 1538   3.777   2.121   9.538  0.1893 -0.1959 -0.0139
   97loPI    C3 1539   3.479   2.064   9.798 -0.0114 -0.0458 -0.2069
   97loPI   PO4 1540   3.530   1.732   9.281 -0.2718  0.1289  0.2977
   97loPI   GL1 1541   3.235   1.441   9.041  0.4559 -0.1182 -0.0648
   97loPI   GL2 1542   3.147   1.725   8.925 -0.1729  0.1400 -0.2167
   97loPI   C1A 1543   3.032   1.179   8.666 -0.0443 -0.1035 -0.0423
   97loPI   C2A 1544   2.903   1.094   8.283 -0.0820  0.2114 -0.1663
   97loPI   C3A 1545   3.128   1.164   7.904  0.0325 -0.1459 -0.0732
   97loPI   C4A 1546   3.236   1.326   7.521  0.2774  0.2158 -0.3079
   97loPI   C5A 1547   3.391   1.425   7.117 -0.0221  0.1765 -0.0146
   97loPI   C6A 1548   3.758   1.738   7.025  0.0918  0.1439  0.3006
   97loPI   C1B 1549   3.138   1.641   8.538 -0.0975 -0.5319 -0.1399
   97loPI   C2B 1550   3.150   1.622   8.116  0.1324 -0.1266  0.0494
   97loPI   C3B 1551   3.248   1.724   7.741 -0.1381 -0.0194 -0.0829
   97loPI   C4B 1552   3.612   1.718   7.542  0.1500  0.0023 -0.1027
   98loPI    C1 1553  10.905  12.224   9.746  0.0279  0.5185 -0.1857
   98loPI    C2 1554  10.976  12.344  10.121  0.0245  0.0249 -0.0197
   98loPI    C3 1555  10.624  12.179  10.027  0.0433  0.1024 -0.2307
   98loPI   PO4 1556  11.300  12.221   9.627  0.2059 -0.1831  0.1195
   98loPI   GL1 1557  11.451  12.152   9.260 -0.1690  0.0877 -0.1374
   98loPI   GL2 1558  11.514  11.885   9.210  0.3946 -0.2946  0.2163
   98loPI   C1A 1559  11.433  12.230   8.792  0.1494  0.1315  0.2290
   98loPI   C2A 1560  11.855  12.189   8.453  0.1219  0.1556  0.2245
   98loPI   C3A 1561  12.105  11.969   8.091  0.2447  0.0194  0.4277
   98loPI   C4A 1562  12.065  11.817   7.611 -0.0227  0.0072 -0.4313
   98loPI   C5A 1563  12.177  11.984   7.207 -0.3469  0.0325 -0.4426
   98loPI   C6A 1564  12.457  12.336   7.202  0.0456  0.4346 -0.0531
   98loPI   C1B 1565  11.698  11.777   8.812  0.1489  0.0067  0.2687
   98loPI   C2B 1566  11.769  11.712   8.335 -0.0494  0.0283  0.0163
   98loPI   C3B 1567  11.986  11.486   7.981  0.1478 -0.0058  0.1589
   98loPI   C4B 1568  12.189  11.305   7.565  0.0433 -0.0299  0.0132
   99loPI    C1 1569   6.209   3.017   9.549  0.2367 -0.1678 -0.1048
   99loPI    C2 1570   6.569   2.924   9.696  0.1228 -0.5435 -0.0538
   99loPI    C3 1571   6.240   2.860   9.915  0.0336 -0.0252 -0.0247
   99loPI   PO4 1572   6.241   3.113   9.310  0.2868 -0.1983  0.0573
   99loPI   GL1 1573   6.077   2.870   8.946  0.4980 -0.3078 -0.3325
   99loPI   GL2 1574   5.900   2.504   9.023 -0.1852  0.2347 -0.1576
   99loPI   C1A 1575   6.149   2.899   8.544 -0.1402  0.1735 -0.2110
   99loPI   C2A 1576   6.318   2.896   8.073 -0.3165  0.0786 -0.1073
   99loPI   C3A 1577   6.359   2.980   7.701  0.0574 -0.0368  0.1595
   99loPI   C4A 1578   6.773   3.041   7.376 -0.1729  0.1679 -0.0141
   99loPI   C5A 1579   6.905   2.741   7.112 -0.3502 -0.0503  0.1732
   99loPI   C6A 1580   7.255   2.392   7.175  0.0694  0.2871  0.0054
   99loPI   C1B 1581   5.924   2.478   8.586  0.0193  0.1145  0.2092
   99loPI   C2B 1582   5.917   2.574   8.179  0.0528  0.2576  0.0171
   99loPI   C3B 1583   6.013   2.501   7.784  0.1007 -0.1463  0.2989
   99loPI   C4B 1584   5.761   2.474   7.410 -0.1854  0.1796 -0.0975
  100loPI    C1 1585   0.228   3.430   9.577  0.0367 -0.0333 -0.2549
  100loPI    C2 1586   0.626   3.396   9.597  0.0199 -0.1546 -0.0980
  100loPI    C3 1587   0.407   3.375   9.930 -0.1017  0.1447 -0.1553
  100loPI   PO4 1588   0.245   3.648   9.395  0.1715  0.0247 -0.3124
  100loPI   GL1 1589   0.263   3.936   9.010 -0.2361 -0.0532 -0.2147
  100loPI   GL2 1590   0.073   4.195   8.846  0.1320 -0.1017 -0.4003
  100loPI   C1A 1591   0.113   3.760   8.586  0.0582  0.2653  0.2730
  100loPI   C2A 1592   0.056   3.632   8.155 -0.1512 -0.0944  0.2095
  100loPI   C3A 1593   0.124   3.555   7.678  0.2251  0.0492  0.1247
  100loPI   C4A 1594   0.215   3.686   7.309 -0.2315 -0.1984  0.2837
  100loPI   C5A 1595   0.489   3.610   6.929  0.0978 -0.0364  0.2417
  100loPI   C6A 1596   0.681   3.560   6.546  0.1560 -0.3571  0.1581
  100loPI   C1B 1597  -0.202   4.207   8.419  0.1105  0.1966 -0.1013
  100loPI   C2B 1598  -0.270   4.248   8.114 -0.0719 -0.2713 -0.2510
  100loPI   C3B 1599  -0.223   4.273   7.676  0.0492 -0.2653  0.1071
  100loPI   C4B 1600  -0.322   4.357   7.250  0.1661  0.0431  0.0375
  101loPI    C1 1601   3.165   4.002   9.466 -0.0323 -0.1253  0.0372
  101loPI    C2 1602   2.930   4.132   9.762 -0.2715 -0.3448 -0.0522
  101loPI    C3 1603   3.031   3.746   9.742  0.1882 -0.2354  0.0436
  101loPI   PO4 1604   3.137   4.045   9.253 -0.0365  0.1504 -0.3506
  101loPI   GL1 1605   3.474   3.931   8.945 -0.1041 -0.0972  0.0236
  101loPI   GL2 1606   3.296   3.604   8.892 -0.0559  0.1647  0.3100
  101loPI   C1A 1607   3.628   4.032   8.569 -0.1107  0.4717 -0.0816
  101loPI   C2A 1608   3.659   4.248   8.189 -0.2567  0.1459 -0.0130
  101loPI   C3A 1609   3.552   4.284   7.788 -0.0356  0.1604 -0.1837
  101loPI   C4A 1610   3.828   4.150   7.359  0.0670  0.0125  0.3901
  101loPI   C5A 1611   4.289   4.325   7.035 -0.0493  0.0225  0.0190
  101loPI   C6A 1612   4.438   4.716   7.345 -0.1009 -0.2180 -0.1113
  101loPI   C1B 1613   3.043   3.462   8.658  0.2331  0.0519 -0.0196
  101loPI   C2B 1614   3.114   3.405   8.204  0.1946 -0.2637  0.1233
  101loPI   C3B 1615   3.255   3.428   7.846 -0.1879  0.0270  0.1174
  101loPI   C4B 1616   3.445   3.418   7.374 -0.0108 -0.0194 -0.1740
  102loPI    C1 1617  16.042  13.953  10.199 -0.1129  0.2003 -0.1799
  102loPI    C2 1618  16.299  14.254  10.258  0.1881 -0.0629 -0.1228
  102loPI    C3 1619  16.218  13.999  10.555 -0.1778  0.0433 -0.1270
  102loPI   PO4 1620  15.959  13.832   9.944 -0.0555  0.2876 -0.2929
  102loPI   GL1 1621  16.014  13.839   9.516  0.2066  0.1089  0.1407
  102loPI   GL2 1622  15.902  14.087   9.269  0.1162 -0.3899 -0.0661
  102loPI   C1A 1623  16.160  13.614   9.248  0.1228 -0.5985  0.0564
  102loPI   C2A 1624  16.195  13.470   8.727 -0.0776 -0.4173 -0.0334
  102loPI   C3A 1625  16.326  13.518   8.247  0.1303 -0.0135 -0.1914
  102loPI   C4A 1626  15.984  13.598   7.838 -0.1692 -0.0300 -0.1763
  102loPI   C5A 1627  15.824  13.756   7.547 -0.0808  0.0073 -0.2269
  102loPI   C6A 1628  15.592  14.047   7.396 -0.1401 -0.1910 -0.3058
  102loPI   C1B 1629  15.862  14.181   8.836  0.4324  0.1003  0.1127
  102loPI   C2B 1630  15.863  14.285   8.358 -0.2620  0.2770  0.2222
  102loPI   C3B 1631  15.975  14.146   8.002  0.3901 -0.0262 -0.2546
  102loPI   C4B 1632  16.501  13.888   7.821 -0.1537  0.1296 -0.1451
  103loPI    C1 1633   7.680   1.430   9.239  0.3790 -0.1670 -0.3117
  103loPI    C2 1634   7.511   1.623   8.932 -0.3668 -0.1024  0.1126
  103loPI    C3 1635   7.806   1.796   9.139 -0.0768 -0.0151 -0.3575
  103loPI   PO4 1636   7.700   1.177   9.225 -0.2592  0.2246  0.0019
  103loPI   GL1 1637   7.533   1.100   8.837  0.2403  0.1695 -0.4978
  103loPI   GL2 1638   7.648   0.947   8.626 -0.0932  0.0938  0.1217
  103loPI   C1A 1639   7.310   1.188   8.412  0.0619 -0.0396 -0.0418
  103loPI   C2A 1640   7.219   1.137   8.018  0.2658 -0.2124 -0.0082
  103loPI   C3A 1641   7.149   0.990   7.586 -0.1674 -0.1721 -0.0798
  103loPI   C4A 1642   6.792   0.873   7.223 -0.1477 -0.2110  0.0474
  103loPI   C5A 1643   6.636   0.957   6.856  0.0070  0.0684 -0.1601
  103loPI   C6A 1644   6.221   0.990   6.751 -0.0610 -0.0454  0.0712
  103loPI   C1B 1645   7.704   0.995   8.197  0.0769 -0.1502 -0.1862
  103loPI   C2B 1646   7.735   0.974   7.660 -0.1635 -0.1774  0.0333
  103loPI   C3B 1647   7.586   0.984   7.255 -0.0047  0.2726 -0.1882
  103loPI   C4B 1648   7.246   1.041   7.105 -0.2273 -0.0474 -0.3379
  104loPI    C1 1649  12.374   6.629   9.888 -0.1803 -0.0092 -0.3593
  104loPI    C2 1650  12.120   6.708  10.186  0.0461  0.1086 -0.1944
  104loPI    C3 1651  12.249   6.334  10.127  0.2362  0.1336  0.0482
  104loPI   PO4 1652  12.245   6.806   9.700  0.2254 -0.0421 -0.1975
  104loPI   GL1 1653  12.398   7.055   9.402  0.0914 -0.3976  0.0265
  104loPI   GL2 1654  12.696   7.074   9.234 -0.0159 -0.0109 -0.0467
  104loPI   C1A 1655  12.133   7.255   9.145 -0.1470  0.1491 -0.2135
  104loPI   C2A 1656  12.082   7.385   8.702  0.3303 -0.1054 -0.0592
  104loPI   C3A 1657  11.952   7.324   8.280 -0.1216 -0.2062  0.2813
  104loPI   C4A 1658  11.824   7.194   7.923  0.1123 -0.0207  0.0909
  104loPI   C5A 1659  11.883   7.391   7.467 -0.0646  0.1946 -0.3026
  104loPI   C6A 1660  11.585   7.331   7.112 -0.1532 -0.0640  0.1448
  104loPI   C1B 1661  12.735   7.308   8.839 -0.2790  0.3894  0.1341
  104loPI   C2B 1662  12.643   7.626   8.629  0.2758 -0.2183 -0.3215
  104loPI   C3B 1663  12.335   7.987   8.597  0.3718 -0.2358  0.1291
  104loPI   C4B 1664  12.313   8.154   8.186 -0.4201 -0.0836 -0.0687
  105loPI    C1 1665  17.131  12.659  10.305  0.0167 -0.0177  0.0346
  105loPI    C2 1666  17.315  12.945  10.516 -0.0851  0.0931 -0.0259
  105loPI    C3 1667  17.499  12.597  10.449 -0.1501 -0.0444  0.4667
  105loPI   PO4 1668  17.088  12.705  10.080 -0.1684  0.0748 -0.1697
  105loPI   GL1 1669  17.079  13.059   9.797  0.0591 -0.0177  0.1571
  105loPI   GL2 1670  17.145  13.327   9.785  0.0696  0.0845 -0.0480
  105loPI   C1A 1671  16.980  13.008   9.284  0.1357 -0.0791  0.1262
  105loPI   C2A 1672  16.855  13.081   8.882  0.1883  0.2791 -0.1928
  105loPI   C3A 1673  16.718  13.131   8.441 -0.1093  0.0511 -0.2089
  105loPI   C4A 1674  16.759  12.925   8.034  0.1255 -0.0307  0.2957
  105loPI   C5A 1675  17.020  12.695   7.792  0.2957  0.1434 -0.0042
  105loPI   C6A 1676  17.340  12.237   7.822 -0.0575  0.0547  0.0538
  105loPI   C1B 1677  17.265  13.429   9.354 -0.1460 -0.0401 -0.0691
  105loPI   C2B 1678  17.148  13.445   8.976  0.0697  0.0708 -0.2213
  105loPI   C3B 1679  17.144  13.316   8.569  0.1174 -0.2454  0.0350
  105loPI   C4B 1680  17.120  13.240   8.183  0.0612  0.1350 -0.0529
  106loPI    C1 1681  18.150  14.343  10.095 -0.0485  0.0588 -0.0765
  106loPI    C2 1682  18.213  13.993  10.278 -0.1449 -0.0459 -0.2410
  106loPI    C3 1683  17.998  14.277  10.459  0.6149  0.2485  0.2524
  106loPI   PO4 1684  18.312  14.360   9.898 -0.4675  0.1285 -0.1370
  106loPI   GL1 1685  18.164  14.398   9.462  0.0675 -0.1740  0.3308
  106loPI   GL2 1686  18.422  14.086   9.452 -0.4091  0.0771 -0.2344
  106loPI   C1A 1687  17.759  14.549   9.207  0.1276  0.1719 -0.2935
  106loPI   C2A 1688  17.310  14.668   9.098 -0.0908  0.3911  0.0454
  106loPI   C3A 1689  17.047  14.804   8.753  0.3912 -0.0639  0.0268
  106loPI   C4A 1690  17.294  14.719   8.336 -0.0655 -0.2238  0.1294
  106loPI   C5A 1691  17.420  14.874   8.008 -0.0476 -0.0316  0.1462
  106loPI   C6A 1692  17.525  15.082   7.562  0.2186  0.2542  0.1757
  106loPI   C1B 1693  18.310  13.951   9.123 -0.1807 -0.0507 -0.0822
  106loPI   C2B 1694  18.099  14.071   8.834 -0.3907  0.2459 -0.0248
  106loPI   C3B 1695  18.079  14.114   8.405 -0.2409  0.0307 -0.0803
  106loPI   C4B 1696  18.068  14.294   8.077  0.1008  0.1305  0.0831
  107loPI    C1 1697  10.716  15.938   9.890  0.0664 -0.0972  0.0904
  107loPI    C2 1698  10.487  16.214  10.066  0.0215 -0.0195 -0.0873
  107loPI    C3 1699  10.455  16.149   9.673  0.4162  0.1049 -0.1443
  107loPI   PO4 1700  10.672  15.634   9.987  0.1114 -0.0810  0.4113
  107loPI   GL1 1701  10.387  15.396   9.782 -0.1214  0.0619  0.2636
  107loPI   GL2 1702  10.229  15.668   9.643 -0.4249 -0.0703 -0.1714
  107loPI   C1A 1703  10.252  15.234   9.372 -0.0380 -0.3070  0.1213
  107loPI   C2A 1704  10.407  15.022   9.115 -0.1604 -0.2522 -0.0316
  107loPI   C3A 1705  10.332  14.941   8.685  0.0977 -0.1964  0.2390
  107loPI   C4A 1706  10.258  15.179   8.323 -0.4913  0.2071 -0.2386
  107loPI   C5A 1707  10.053  15.313   7.950  0.0857 -0.0942  0.0675
  107loPI   C6A 1708   9.974  15.237   7.533  0.3156 -0.1608 -0.1557
  107loPI   C1B 1709  10.020  15.651   9.209  0.0088  0.0751  0.3815
  107loPI   C2B 1710  10.056  15.570   8.838  0.2271  0.1512 -0.0055
  107loPI   C3B 1711   9.888  15.472   8.489  0.2361  0.1639  0.3963
  107loPI   C4B 1712   9.571  15.323   8.267  0.0116  0.0351  0.2357
  108loPI    C1 1713   8.937  12.428   9.381 -0.1500  0.3020 -0.0669
  108loPI    C2 1714   9.023  12.760   9.586  0.3524  0.0471  0.1532
  108loPI    C3 1715   8.983  12.411   9.778 -0.0179 -0.0522 -0.0932
  108loPI   PO4 1716   8.740  12.424   9.211 -0.0869  0.0326 -0.1274
  108loPI   GL1 1717   8.660  12.759   8.893 -0.2753  0.1444 -0.0190
  108loPI   GL2 1718   8.386  12.944   9.007  0.2732 -0.0611  0.0287
  108loPI   C1A 1719   8.798  12.950   8.576 -0.1329 -0.1300 -0.5225
  108loPI   C2A 1720   8.671  12.811   8.226  0.4176 -0.2372  0.0665
  108loPI   C3A 1721   8.928  12.565   8.113  0.1055  0.0510  0.4461
  108loPI   C4A 1722   9.058  12.480   7.776 -0.0895 -0.0413  0.0693
  108loPI   C5A 1723   9.341  12.396   7.403  0.1339 -0.4077 -0.1089
  108loPI   C6A 1724   9.195  12.409   6.985 -0.3522  0.2792  0.0359
  108loPI   C1B 1725   8.279  13.013   8.638  0.2902 -0.1993 -0.0557
  108loPI   C2B 1726   8.311  13.272   8.268 -0.0953 -0.1904 -0.0966
  108loPI   C3B 1727   8.262  13.393   7.816  0.0228 -0.1215 -0.0068
  108loPI   C4B 1728   8.267  13.379   7.357  0.0640 -0.2111 -0.1429
  109loPI    C1 1729  16.749  13.902  10.219  0.0907  0.0995 -0.1109
  109loPI    C2 1730  17.058  14.010  10.449  0.1163 -0.1561 -0.0216
  109loPI    C3 1731  16.684  14.099  10.560  0.1511  0.0818 -0.0890
  109loPI   PO4 1732  16.791  13.969  10.053 -0.0790 -0.1281 -0.0578
  109loPI   GL1 1733  16.866  13.978   9.554  0.1288  0.0946  0.1104
  109loPI   GL2 1734  16.872  13.689   9.570  0.0748 -0.1033 -0.1442
  109loPI   C1A 1735  17.050  14.003   9.149  0.0472 -0.0277  0.3262
  109loPI   C2A 1736  17.024  13.922   8.692 -0.0092 -0.1492 -0.0108
  109loPI   C3A 1737  17.218  13.781   8.342 -0.0592 -0.1520  0.3239
  109loPI   C4A 1738  17.383  13.619   8.016 -0.0622 -0.0961  0.1050
  109loPI   C5A 1739  17.441  13.822   7.682  0.0403  0.2739 -0.0201
  109loPI   C6A 1740  17.339  13.947   7.266 -0.0988  0.2622 -0.1993
  109loPI   C1B 1741  16.711  13.521   9.163 -0.1348 -0.2190 -0.3106
  109loPI   C2B 1742  16.676  13.546   8.716  0.2799 -0.2192  0.1819
  109loPI   C3B 1743  16.792  13.621   8.253  0.2413  0.1401 -0.3880
  109loPI   C4B 1744  16.750  13.381   7.892 -0.0270 -0.0375  0.1809
  110loPI    C1 1745   4.263   4.748   9.957  0.1003  0.0277 -0.1066
  110loPI    C2 1746   4.095   5.105  10.020 -0.2212 -0.0845 -0.3055
  110loPI    C3 1747   3.884   4.771  10.082  0.1936 -0.2593  0.2477
  110loPI   PO4 1748   4.348   4.770   9.750 -0.0519 -0.1356 -0.0120
  110loPI   GL1 1749   4.536   4.858   9.453  0.0946 -0.0628  0.2011
  110loPI   GL2 1750   4.338   4.591   9.257 -0.0987 -0.0129 -0.4055
  110loPI   C1A 1751   4.716   4.834   9.006  0.0967 -0.1051 -0.0875
  110loPI   C2A 1752   4.517   4.968   8.640 -0.1370 -0.0044  0.0845
  110loPI   C3A 1753   4.648   4.918   8.309  0.1772 -0.1658  0.0784
  110loPI   C4A 1754   4.547   4.918   7.869  0.0954 -0.0529 -0.0044
  110loPI   C5A 1755   4.770   5.128   7.530 -0.0106 -0.0028  0.3556
  110loPI   C6A 1756   5.032   5.043   7.050 -0.0560  0.0525  0.1435
  110loPI   C1B 1757   4.236   4.680   8.893  0.2019  0.1411 -0.2128
  110loPI   C2B 1758   4.273   4.595   8.420 -0.0562 -0.1084  0.1357
  110loPI   C3B 1759   4.188   4.646   7.959 -0.0014 -0.1381 -0.4448
  110loPI   C4B 1760   3.974   4.531   7.624 -0.0782  0.1727  0.1732
  111loPI    C1 1761   9.169   8.430  10.140 -0.1224 -0.1261  0.0920
  111loPI    C2 1762   9.507   8.513   9.942 -0.1490 -0.1236  0.0477
  111loPI    C3 1763   9.347   8.786  10.186 -0.1976 -0.0705 -0.0432
  111loPI   PO4 1764   9.014   8.271   9.879 -0.1032  0.0014 -0.1514
  111loPI   GL1 1765   8.798   8.179   9.476  0.2581 -0.0377  0.0415
  111loPI   GL2 1766   8.649   7.940   9.282  0.4201 -0.3027 -0.2163
  111loPI   C1A 1767   9.057   8.053   9.048 -0.1608 -0.0597 -0.0911
  111loPI   C2A 1768   9.092   8.352   8.680  0.0474  0.0555 -0.1400
  111loPI   C3A 1769   8.906   8.479   8.522  0.2362 -0.0167 -0.0668
  111loPI   C4A 1770   8.692   8.541   8.094  0.1176  0.2381 -0.0574
  111loPI   C5A 1771   8.436   8.863   7.881 -0.1354 -0.2311 -0.0908
  111loPI   C6A 1772   8.051   9.111   7.708 -0.1087 -0.0420  0.1649
  111loPI   C1B 1773   8.559   7.674   8.998  0.0018  0.0262 -0.3019
  111loPI   C2B 1774   8.596   7.534   8.529  0.1332  0.1681  0.3802
  111loPI   C3B 1775   8.695   7.527   8.070  0.1254 -0.0229  0.1840
  111loPI   C4B 1776   8.813   7.686   7.724 -0.0417  0.0494  0.4248
  112loPI    C1 1777  13.230   7.338   9.732  0.0091  0.1084  0.2155
  112loPI    C2 1778  13.207   7.017   9.969 -0.0371 -0.0830 -0.0437
  112loPI    C3 1779  13.446   7.323  10.068 -0.0819 -0.1445  0.2643
  112loPI   PO4 1780  13.162   7.111   9.440  0.0379 -0.2580  0.2726
  112loPI   GL1 1781  13.457   6.933   9.144  0.1232  0.2412  0.0170
  112loPI   GL2 1782  13.226   7.122   8.934  0.0528 -0.2315 -0.3689
  112loPI   C1A 1783  13.441   6.698   8.725 -0.1660  0.1287 -0.0015
  112loPI   C2A 1784  13.374   6.695   8.325 -0.5236  0.0868  0.1289
  112loPI   C3A 1785  13.472   6.636   7.864 -0.0427 -0.0570 -0.1961
  112loPI   C4A 1786  13.273   6.623   7.507  0.0899 -0.1345  0.0627
  112loPI   C5A 1787  12.979   6.402   7.214  0.0730  0.1273  0.1922
  112loPI   C6A 1788  12.721   6.157   7.087 -0.0960  0.2026  0.0129
  112loPI   C1B 1789  13.195   7.138   8.534  0.1607 -0.0921 -0.0918
  112loPI   C2B 1790  13.219   7.185   8.114 -0.1174  0.1061  0.1918
  112loPI   C3B 1791  13.305   7.058   7.721 -0.3191 -0.1489 -0.1130
  112loPI   C4B 1792  13.410   7.038   7.270  0.3079 -0.1514 -0.4251
  113loPI    C1 1793  12.401   2.283   9.964  0.2199 -0.0120  0.0885
  113loPI    C2 1794  12.172   2.020  10.159 -0.1388  0.1645 -0.0838
  113loPI    C3 1795  12.327   2.333  10.354 -0.0167  0.0292  0.0399
  113loPI   PO4 1796  12.259   2.234   9.712 -0.1185  0.2439 -0.0278
  113loPI   GL1 1797  12.276   2.288   9.296  0.1137  0.1043 -0.2097
  113loPI   GL2 1798  12.457   2.132   8.982 -0.0720 -0.0855  0.4314
  113loPI   C1A 1799  11.987   2.064   9.094  0.1875 -0.2319  0.5717
  113loPI   C2A 1800  11.838   1.961   8.600  0.0267  0.1664 -0.0807
  113loPI   C3A 1801  11.692   1.824   8.165  0.1056 -0.0673  0.2048
  113loPI   C4A 1802  11.432   1.724   7.915 -0.0884 -0.0663 -0.0168
  113loPI   C5A 1803  11.695   1.620   7.588  0.1625  0.0008 -0.1577
  113loPI   C6A 1804  11.978   1.152   7.588  0.1329 -0.1136 -0.1980
  113loPI   C1B 1805  12.336   1.934   8.679  0.2062  0.1009  0.0315
  113loPI   C2B 1806  12.172   2.025   8.241  0.0819 -0.0532  0.2306
  113loPI   C3B 1807  11.988   2.124   7.865  0.1368 -0.1176  0.2237
  113loPI   C4B 1808  12.187   2.141   7.418  0.0759 -0.2175 -0.0973
  114loPI    C1 1809  13.200   2.659   9.957  0.0885 -0.1130  0.0143
  114loPI    C2 1810  13.568   2.802  10.021  0.0702 -0.1758  0.2733
  114loPI    C3 1811  13.312   2.765  10.326 -0.0740 -0.3472  0.1340
  114loPI   PO4 1812  13.173   2.720   9.706 -0.0436 -0.2464  0.3977
  114loPI   GL1 1813  12.852   2.879   9.320  0.0971  0.2102  0.1862
  114loPI   GL2 1814  12.676   2.666   9.097 -0.1230  0.2329 -0.4255
  114loPI   C1A 1815  13.082   3.176   8.968 -0.0573  0.0965  0.3015
  114loPI   C2A 1816  12.987   3.234   8.522  0.1708  0.2371 -0.1266
  114loPI   C3A 1817  12.822   3.393   8.128 -0.4725  0.0377  0.0568
  114loPI   C4A 1818  12.659   3.545   7.681 -0.1602 -0.0050 -0.1417
  114loPI   C5A 1819  12.637   3.839   7.261 -0.0080  0.0017 -0.0001
  114loPI   C6A 1820  12.453   3.811   6.961 -0.0096 -0.2042 -0.0466
  114loPI   C1B 1821  12.687   2.730   8.793 -0.1395  0.3530 -0.1073
  114loPI   C2B 1822  12.814   2.797   8.397  0.1929 -0.2298 -0.1003
  114loPI   C3B 1823  12.843   2.626   7.979  0.0207 -0.2243  0.0423
  114loPI   C4B 1824  12.832   2.413   7.647  0.0190 -0.0171 -0.0253
  115loPI    C1 1825   0.207  13.352  10.092  0.1694  0.2469  0.1937
  115loPI    C2 1826   0.229  13.006  10.292 -0.0525  0.1247  0.0129
  115loPI    C3 1827  -0.031  13.288  10.407  0.1422  0.2421  0.1724
  115loPI   PO4 1828   0.261  13.409   9.872 -0.0932  0.2003  0.0299
  115loPI   GL1 1829   0.593  13.615   9.661  0.5173 -0.0191 -0.0550
  115loPI   GL2 1830   0.944  13.679   9.773 -0.1711  0.1718  0.1726
  115loPI   C1A 1831   0.678  13.575   9.204 -0.1447  0.2745 -0.1596
  115loPI   C2A 1832   0.776  13.513   8.721  0.0295  0.0781 -0.2399
  115loPI   C3A 1833   0.790  13.333   8.202  0.0769 -0.0017 -0.0447
  115loPI   C4A 1834   0.947  13.239   7.729  0.1402  0.1834 -0.0767
  115loPI   C5A 1835   0.958  13.139   7.294  0.0584 -0.1183  0.2387
  115loPI   C6A 1836   0.972  13.137   6.928  0.0460 -0.0211  0.1014
  115loPI   C1B 1837   1.198  13.733   9.431  0.2716  0.0945  0.2731
  115loPI   C2B 1838   1.224  13.639   8.983 -0.0306  0.1527  0.0625
  115loPI   C3B 1839   1.193  13.669   8.518  0.0146  0.1953 -0.2214
  115loPI   C4B 1840   1.226  13.604   8.051  0.3513  0.1207  0.3170
  116loPI    C1 1841   0.658  17.422  10.205 -0.0215  0.1431  0.0486
  116loPI    C2 1842   0.550  17.144  10.471  0.0308  0.0238 -0.0532
  116loPI    C3 1843   0.849  17.396  10.555  0.0239  0.0099  0.0146
  116loPI   PO4 1844   0.742  17.373  10.006  0.2112 -0.1493 -0.2331
  116loPI   GL1 1845   0.545  17.335   9.586  0.0606 -0.1535  0.1126
  116loPI   GL2 1846   0.575  17.658   9.552  0.0532  0.2785 -0.1449
  116loPI   C1A 1847   0.510  17.241   9.248 -0.1135 -0.1474  0.0898
  116loPI   C2A 1848   0.438  17.087   8.855  0.0646 -0.2157 -0.0467
  116loPI   C3A 1849   0.418  17.063   8.466  0.0283 -0.3223 -0.0025
  116loPI   C4A 1850   0.336  17.106   8.031 -0.2161 -0.4177 -0.2644
  116loPI   C5A 1851   0.068  17.196   7.620 -0.2495  0.0206 -0.0172
  116loPI   C6A 1852  -0.062  17.574   7.445 -0.1221  0.0826 -0.0272
  116loPI   C1B 1853   0.676  17.755   9.067 -0.1469  0.0855  0.0082
  116loPI   C2B 1854   0.567  17.593   8.738 -0.0238  0.0807 -0.0446
  116loPI   C3B 1855   0.504  17.599   8.273  0.0746  0.3669 -0.1185
  116loPI   C4B 1856   0.243  17.591   7.890 -0.4075  0.1482  0.1683
  117loPI    C1 1857  15.063   8.601   9.654  0.0545  0.2754 -0.0242
  117loPI    C2 1858  15.150   8.579  10.044 -0.0768  0.1593 -0.0006
  117loPI    C3 1859  15.437   8.522   9.772 -0.0359 -0.0158  0.0778
  117loPI   PO4 1860  14.796   8.504   9.589 -0.1359 -0.1221  0.1172
  117loPI   GL1 1861  14.634   8.598   9.207  0.1151 -0.1843  0.0591
  117loPI   GL2 1862  14.851   8.744   9.052 -0.4084 -0.3227  0.0062
  117loPI   C1A 1863  14.188   8.633   8.895 -0.2101 -0.1788  0.0303
  117loPI   C2A 1864  14.172   8.605   8.462  0.1349  0.2630 -0.3277
  117loPI   C3A 1865  14.342   8.708   8.011 -0.0333  0.0956 -0.5300
  117loPI   C4A 1866  14.598   8.819   7.649  0.2913  0.0031 -0.1663
  117loPI   C5A 1867  14.670   9.299   7.646 -0.0255  0.1352 -0.0061
  117loPI   C6A 1868  14.752   9.427   8.114  0.0407  0.1713 -0.0421
  117loPI   C1B 1869  14.714   8.651   8.690  0.0601 -0.1560  0.2406
  117loPI   C2B 1870  14.462   8.224   8.585 -0.1190 -0.0667  0.1701
  117loPI   C3B 1871  14.284   8.233   8.199 -0.1099  0.3558  0.0654
  117loPI   C4B 1872  14.352   8.279   7.769  0.1355  0.1018  0.1228
  118loPI    C1 1873  13.558   0.154   9.993 -0.2927  0.0183 -0.1573
  118loPI    C2 1874  13.593   0.354  10.337  0.1635 -0.0759 -0.1437
  118loPI    C3 1875  13.544   0.554   9.995 -0.0979  0.0257 -0.0492
  118loPI   PO4 1876  13.753  -0.134  10.016  0.1057 -0.0111 -0.2987
  118loPI   GL1 1877  13.746  -0.443   9.549  0.2396  0.2312  0.2449
  118loPI   GL2 1878  13.587  -0.768   9.602  0.0301  0.0640  0.1482
  118loPI   C1A 1879  13.483  -0.259   9.127  0.3246 -0.0223  0.0857
  118loPI   C2A 1880  13.261  -0.182   8.799  0.1069 -0.1178  0.2326
  118loPI   C3A 1881  12.910  -0.204   8.429  0.1615 -0.0992 -0.1014
  118loPI   C4A 1882  12.893  -0.519   8.012 -0.0492 -0.2729 -0.0464
  118loPI   C5A 1883  13.207  -0.788   7.870  0.1345 -0.4586  0.1551
  118loPI   C6A 1884  13.619  -0.949   7.913 -0.1781  0.1534 -0.0888
  118loPI   C1B 1885  13.524  -0.995   9.237  0.0454  0.1385  0.2420
  118loPI   C2B 1886  13.453  -1.032   8.802  0.1547  0.0041 -0.1389
  118loPI   C3B 1887  13.228  -1.198   8.365 -0.2433  0.1630 -0.1545
  118loPI   C4B 1888  12.823  -1.095   8.126 -0.2294 -0.1580 -0.0762
  119loPI    C1 1889   3.063   2.108   9.527  0.3545 -0.0735  0.1364
  119loPI    C2 1890   2.808   2.414   9.562  0.0040 -0.3434  0.0121
  119loPI    C3 1891   3.061   2.329   9.860 -0.0171 -0.0436  0.1190
  119loPI   PO4 1892   3.059   2.099   9.339 -0.2123  0.0081  0.2199
  119loPI   GL1 1893   3.268   2.176   9.047 -0.1462 -0.3560  0.0060
  119loPI   GL2 1894   3.626   2.237   9.067 -0.1059  0.2049  0.0687
  119loPI   C1A 1895   3.349   2.119   8.550 -0.1967 -0.2534 -0.0480
  119loPI   C2A 1896   3.380   2.122   8.108  0.1198  0.0689  0.0971
  119loPI   C3A 1897   3.230   2.222   7.627  0.2977 -0.3012 -0.0164
  119loPI   C4A 1898   3.233   1.963   7.203  0.0943 -0.2727 -0.0857
  119loPI   C5A 1899   2.974   1.596   6.920  0.0548  0.3297 -0.2281
  119loPI   C6A 1900   2.895   1.106   7.135 -0.0534  0.0185 -0.2021
  119loPI   C1B 1901   3.868   2.219   8.519 -0.0214 -0.4010  0.0051
  119loPI   C2B 1902   3.935   2.205   8.116  0.1974  0.1467  0.0049
  119loPI   C3B 1903   3.861   2.130   7.761  0.0705 -0.0645  0.2593
  119loPI   C4B 1904   3.711   2.172   7.257  0.1824  0.0111  0.4824
  120loPI    C1 1905  12.274   2.731   9.726  0.1870  0.0432 -0.0315
  120loPI    C2 1906  12.086   3.003   9.950 -0.0323  0.0750 -0.2503
  120loPI    C3 1907  12.383   2.786  10.107  0.0372  0.3261 -0.0272
  120loPI   PO4 1908  12.374   2.748   9.491  0.1824  0.2570  0.0607
  120loPI   GL1 1909  12.163   2.748   9.134 -0.4348 -0.3005  0.4896
  120loPI   GL2 1910  12.036   2.840   8.950  0.1883  0.3908 -0.2200
  120loPI   C1A 1911  12.226   2.485   8.749 -0.0541 -0.1429 -0.1985
  120loPI   C2A 1912  12.370   2.427   8.406  0.0570 -0.2057  0.0072
  120loPI   C3A 1913  12.334   2.547   8.041 -0.0312  0.3567 -0.1321
  120loPI   C4A 1914  12.338   2.577   7.641  0.2186 -0.0504  0.0615
  120loPI   C5A 1915  12.295   2.801   7.208 -0.0840 -0.4012  0.2267
  120loPI   C6A 1916  12.607   2.890   6.769 -0.0699 -0.0693  0.0706
  120loPI   C1B 1917  12.050   2.867   8.446  0.1039  0.1340  0.3012
  120loPI   C2B 1918  11.897   3.051   8.046  0.1827 -0.1641 -0.1658
  120loPI   C3B 1919  12.045   2.986   7.602 -0.2804  0.6406  0.1181
  120loPI   C4B 1920  11.965   3.216   7.289 -0.1783  0.1600 -0.0401
  121loPI    C1 1921   8.143   1.592   9.623  0.0348 -0.0265 -0.1037
  121loPI    C2 1922   7.949   1.253   9.709  0.0626  0.0456  0.2591
  121loPI    C3 1923   7.835   1.596   9.879 -0.0938  0.2588 -0.2582
  121loPI   PO4 1924   8.203   1.515   9.301  0.1866  0.3329  0.2834
  121loPI   GL1 1925   8.229   1.395   8.897 -0.1344 -0.1308 -0.2414
  121loPI   GL2 1926   8.016   1.402   8.892 -0.1829 -0.0124  0.2789
  121loPI   C1A 1927   8.630   1.183   8.641 -0.1731 -0.1260  0.0230
  121loPI   C2A 1928   8.712   1.186   8.117  0.3713  0.1752  0.0593
  121loPI   C3A 1929   8.567   1.320   7.807 -0.0367 -0.0406  0.0853
  121loPI   C4A 1930   8.571   1.479   7.363 -0.0161  0.1839 -0.0166
  121loPI   C5A 1931   8.253   1.471   7.126 -0.0381 -0.0566  0.0125
  121loPI   C6A 1932   7.926   1.111   6.935  0.2327  0.5344 -0.2248
  121loPI   C1B 1933   7.830   1.478   8.522  0.2452 -0.1610  0.1987
  121loPI   C2B 1934   7.676   1.485   8.168 -0.0552  0.2307  0.2504
  121loPI   C3B 1935   7.533   1.508   7.741  0.2845 -0.1197  0.1227
  121loPI   C4B 1936   7.444   1.466   7.304  0.1415 -0.3423  0.1851
  122loPI    C1 1937   3.075   6.555   9.681  0.0722 -0.1212  0.2652
  122loPI    C2 1938   2.876   6.208   9.670  0.0145 -0.0867  0.2135
  122loPI    C3 1939   2.857   6.438   9.996  0.0800 -0.1476  0.2608
  122loPI   PO4 1940   3.135   6.593   9.435  0.2591  0.1412 -0.1872
  122loPI   GL1 1941   3.209   6.517   9.035 -0.2282 -0.1330  0.0544
  122loPI   GL2 1942   3.194   6.911   9.071 -0.1404  0.1186 -0.1302
  122loPI   C1A 1943   3.155   6.491   8.691  0.1338  0.2763  0.0043
  122loPI   C2A 1944   2.985   6.355   8.270 -0.0306 -0.3055  0.2239
  122loPI   C3A 1945   2.861   6.286   7.785 -0.2004 -0.6138 -0.1707
  122loPI   C4A 1946   2.565   6.439   7.302 -0.1994  0.1649 -0.0212
  122loPI   C5A 1947   2.310   6.770   7.174  0.1131  0.0186 -0.2011
  122loPI   C6A 1948   2.024   6.996   6.885 -0.0940 -0.0372  0.2243
  122loPI   C1B 1949   3.323   7.068   8.707  0.1831  0.2981  0.0971
  122loPI   C2B 1950   3.064   7.142   8.376 -0.0599  0.1118 -0.3900
  122loPI   C3B 1951   3.151   7.138   8.009 -0.0845 -0.4176  0.1829
  122loPI   C4B 1952   3.010   7.214   7.668 -0.0195  0.1942 -0.2241
  123loPI    C1 1953   8.683  18.144   9.837 -0.0190 -0.1797  0.0748
  123loPI    C2 1954   8.457  18.431   9.675  0.0852 -0.2157 -0.1375
  123loPI    C3 1955   8.404  18.328  10.057 -0.2769 -0.2443 -0.1916
  123loPI   PO4 1956   8.655  17.899   9.659  0.0146  0.1654  0.2004
  123loPI   GL1 1957   8.474  18.082   9.338  0.3267  0.2935  0.1544
  123loPI   GL2 1958   8.855  18.158   9.328 -0.0091  0.1135  0.0580
  123loPI   C1A 1959   8.391  18.015   8.937  0.3895  0.0961 -0.0037
  123loPI   C2A 1960   8.411  18.139   8.490  0.2376 -0.0437  0.0451
  123loPI   C3A 1961   8.391  18.245   8.040 -0.2975  0.3474  0.0367
  123loPI   C4A 1962   8.255  18.346   7.710  0.1433 -0.1437  0.1587
  123loPI   C5A 1963   8.485  18.164   7.382 -0.2798  0.0666  0.0319
  123loPI   C6A 1964   8.492  17.570   7.329 -0.0420  0.0058 -0.0935
  123loPI   C1B 1965   8.808  18.288   8.868  0.1240 -0.0234 -0.0487
  123loPI   C2B 1966   8.862  18.280   8.381  0.1952 -0.0294 -0.0938
  123loPI   C3B 1967   8.934  18.399   7.959 -0.0641 -0.2215  0.4158
  123loPI   C4B 1968   8.879  18.324   7.636  0.0443 -0.1630  0.0636
  124loPI    C1 1969   2.509   7.611   9.604 -0.0831 -0.2749 -0.1630
  124loPI    C2 1970   2.396   7.630   9.987 -0.0166 -0.0343 -0.1538
  124loPI    C3 1971   2.356   7.288   9.784 -0.2991 -0.0901 -0.0093
  124loPI   PO4 1972   2.481   7.857   9.554  0.2230 -0.0038  0.1232
  124loPI   GL1 1973   2.671   8.038   9.133 -0.2234  0.2595  0.2470
  124loPI   GL2 1974   2.942   8.115   9.072 -0.2277  0.0502  0.0740
  124loPI   C1A 1975   2.573   8.086   8.669  0.1667 -0.2916 -0.3095
  124loPI   C2A 1976   2.493   8.142   8.307  0.0208 -0.2089  0.0179
  124loPI   C3A 1977   2.680   8.312   7.900 -0.0285  0.0149 -0.1377
  124loPI   C4A 1978   2.568   8.674   7.569 -0.4111 -0.0700 -0.0444
  124loPI   C5A 1979   2.319   9.090   7.575  0.2445  0.1974  0.0114
  124loPI   C6A 1980   2.061   9.407   7.698 -0.0197  0.0487 -0.0978
  124loPI   C1B 1981   3.050   8.207   8.577 -0.2585  0.0777 -0.0640
  124loPI   C2B 1982   3.084   8.281   8.196 -0.0546  0.2078 -0.0779
  124loPI   C3B 1983   3.102   8.021   7.739 -0.6124 -0.1712 -0.1243
  124loPI   C4B 1984   2.881   8.217   7.405  0.2750  0.0852 -0.1133
  125loPI    C1 1985   9.913   7.339  10.244  0.2668  0.1670  0.1593
  125loPI    C2 1986  10.245   7.522  10.372  0.2954  0.1814  0.0650
  125loPI    C3 1987   9.972   7.397  10.636  0.4996 -0.0693  0.1623
  125loPI   PO4 1988   9.994   7.207   9.946 -0.1970 -0.0974  0.1465
  125loPI   GL1 1989  10.086   6.908   9.545  0.0078 -0.1784  0.2478
  125loPI   GL2 1990  10.238   7.108   9.478  0.0168  0.0368  0.0572
  125loPI   C1A 1991  10.142   6.800   9.044  0.2049  0.0648 -0.0445
  125loPI   C2A 1992  10.220   6.645   8.711  0.1407 -0.0013 -0.1357
  125loPI   C3A 1993  10.017   6.452   8.210 -0.1253 -0.3001 -0.0746
  125loPI   C4A 1994  10.156   6.216   7.831  0.0978  0.0913 -0.2790
  125loPI   C5A 1995  10.359   6.425   7.424  0.2385 -0.1464 -0.3152
  125loPI   C6A 1996  10.424   6.582   6.990  0.2650 -0.2226  0.2763
  125loPI   C1B 1997   9.961   7.197   9.126 -0.0272 -0.2218 -0.0976
  125loPI   C2B 1998   9.892   7.009   8.665 -0.0810  0.0429 -0.3140
  125loPI   C3B 1999  10.038   7.050   8.240  0.4441 -0.2042  0.2306
  125loPI   C4B 2000  10.091   6.968   7.887 -0.1249 -0.2483 -0.2951
  126loPI    C1 2001   3.349  13.644   9.916  0.2491 -0.0754 -0.2577
  126loPI    C2 2002   3.272  14.009  10.062 -0.0941 -0.1541 -0.2354
  126loPI    C3 2003   3.556  13.783  10.229 -0.2870 -0.1304  0.1352
  126loPI   PO4 2004   3.388  13.683   9.687  0.2005 -0.3156 -0.3887
  126loPI   GL1 2005   3.701  13.681   9.366  0.0374 -0.1112 -0.2727
  126loPI   GL2 2006   4.035  13.666   9.290  0.0425  0.1523  0.0481
  126loPI   C1A 2007   3.498  13.575   9.046 -0.2577  0.1169  0.1034
  126loPI   C2A 2008   3.525  13.603   8.692 -0.0399 -0.1001 -0.1816
  126loPI   C3A 2009   3.258  13.643   8.379  0.2245  0.2846 -0.0311
  126loPI   C4A 2010   3.224  13.898   7.959  0.6742  0.0369 -0.1725
  126loPI   C5A 2011   3.311  13.757   7.503 -0.0698  0.0254  0.0114
  126loPI   C6A 2012   3.549  13.474   7.283 -0.0256 -0.1802 -0.1716
  126loPI   C1B 2013   4.015  13.461   8.905 -0.2003  0.1821 -0.1447
  126loPI   C2B 2014   4.311  13.193   8.782  0.0589  0.0394  0.3608
  126loPI   C3B 2015   4.617  12.956   8.563  0.0291 -0.0061 -0.0381
  126loPI   C4B 2016   4.911  12.622   8.527  0.2310 -0.0564 -0.1243
  127loPI    C1 2017   6.451   0.056   9.575 -0.1989 -0.1147 -0.1799
  127loPI    C2 2018   6.692   0.139   9.884 -0.0687  0.2113 -0.3634
  127loPI    C3 2019   6.532  -0.226   9.847 -0.1850  0.2025  0.1532
  127loPI   PO4 2020   6.439   0.223   9.384 -0.0046  0.2303  0.1467
  127loPI   GL1 2021   6.705   0.351   9.027  0.1246  0.0185  0.5276
  127loPI   GL2 2022   6.530   0.548   8.817 -0.0695  0.2288  0.3900
  127loPI   C1A 2023   6.869   0.040   8.711  0.3073  0.0453 -0.2852
  127loPI   C2A 2024   7.109  -0.230   8.518 -0.0257  0.2687  0.0335
  127loPI   C3A 2025   7.001  -0.362   8.058  0.1596 -0.0033 -0.0497
  127loPI   C4A 2026   6.905  -0.180   7.722 -0.1146 -0.0840  0.0118
  127loPI   C5A 2027   7.001   0.198   7.587 -0.1504 -0.2466  0.4013
  127loPI   C6A 2028   6.828   0.360   7.230 -0.0576  0.0650  0.2188
  127loPI   C1B 2029   6.659   0.386   8.426 -0.2599 -0.1234 -0.0937
  127loPI   C2B 2030   6.630   0.303   7.982  0.0128  0.0325 -0.0350
  127loPI   C3B 2031   6.604   0.543   7.605  0.1146  0.1095 -0.0700
  127loPI   C4B 2032   6.325   0.456   7.190 -0.2251  0.1776  0.2215
  128loPI    C1 2033  18.156   6.739   9.890  0.2074  0.0062 -0.1288
  128loPI    C2 2034  18.162   6.385  10.078 -0.0444 -0.0281 -0.1820
  128loPI    C3 2035  18.478   6.630  10.101  0.2123 -0.3404 -0.3081
  128loPI   PO4 2036  18.005   6.810   9.718  0.1656 -0.2872  0.2318
  128loPI   GL1 2037  18.080   6.951   9.331 -0.2219 -0.0879 -0.1306
  128loPI   GL2 2038  18.222   6.571   9.327 -0.1274  0.0139  0.0463
  128loPI   C1A 2039  18.462   6.938   9.128  0.0907 -0.1995 -0.0944
  128loPI   C2A 2040  18.701   6.947   8.698 -0.2291  0.1613 -0.0523
  128loPI   C3A 2041  18.831   6.840   8.225  0.0141 -0.1017 -0.0265
  128loPI   C4A 2042  18.570   6.804   7.771 -0.0106  0.2890  0.3326
  128loPI   C5A 2043  18.707   6.584   7.333  0.1092  0.1680 -0.1546
  128loPI   C6A 2044  18.718   6.589   6.934 -0.1463  0.0425 -0.0289
  128loPI   C1B 2045  18.052   6.632   8.928  0.0314  0.3160  0.4211
  128loPI   C2B 2046  18.185   6.808   8.740 -0.1889 -0.1567  0.1438
  128loPI   C3B 2047  18.217   6.896   8.370  0.1705  0.2041  0.0711
  128loPI   C4B 2048  18.213   7.092   8.041 -0.1639 -0.0023 -0.1590
  129loPI    C1 2049  18.012   1.069   9.764  0.0570  0.2414  0.0164
  129loPI    C2 2050  18.407   1.078   9.831  0.0652 -0.1241  0.0381
  129loPI    C3 2051  18.166   1.335  10.020  0.2831  0.0496  0.0841
  129loPI   PO4 2052  18.100   0.933   9.478  0.2987 -0.0310 -0.0670
  129loPI   GL1 2053  18.330   0.824   9.146  0.2200  0.2160 -0.4551
  129loPI   GL2 2054  18.377   0.601   9.118 -0.3243  0.2641  0.1496
  129loPI   C1A 2055  18.330   0.996   8.734  0.1279  0.0421  0.0926
  129loPI   C2A 2056  18.331   1.020   8.358 -0.0608 -0.5573  0.2878
  129loPI   C3A 2057  18.527   1.032   8.025  0.6385  0.0918 -0.0315
  129loPI   C4A 2058  18.588   0.936   7.665  0.0569  0.0768 -0.1557
  129loPI   C5A 2059  18.548   1.185   7.337 -0.1066  0.1011 -0.1231
  129loPI   C6A 2060  18.527   1.154   6.949  0.1339  0.3516 -0.0630
  129loPI   C1B 2061  18.529   0.286   8.762 -0.0990 -0.1248  0.1231
  129loPI   C2B 2062  18.508   0.143   8.351  0.3242  0.2425 -0.0423
  129loPI   C3B 2063  18.649   0.164   7.873  0.0136 -0.0735 -0.0078
  129loPI   C4B 2064  18.603   0.398   7.348  0.3353  0.0598 -0.0508
  130loPI    C1 2065   1.908  13.321  10.056  0.0811 -0.0476  0.0856
  130loPI    C2 2066   2.207  13.134  10.244  0.1690  0.0490  0.0433
  130loPI    C3 2067   2.218  13.531  10.197  0.2163  0.0112 -0.2862
  130loPI   PO4 2068   1.859  13.210   9.854  0.0419 -0.0092  0.0908
  130loPI   GL1 2069   2.189  13.185   9.657 -0.0335  0.0009  0.0051
  130loPI   GL2 2070   2.234  12.833   9.698 -0.1071  0.1442  0.0278
  130loPI   C1A 2071   2.232  13.053   9.194 -0.2191 -0.0443 -0.1987
  130loPI   C2A 2072   2.249  12.995   8.813  0.1163 -0.0131 -0.4484
  130loPI   C3A 2073   2.357  12.885   8.354 -0.0727  0.0203 -0.0169
  130loPI   C4A 2074   2.314  12.854   7.907 -0.2316 -0.3129 -0.4656
  130loPI   C5A 2075   2.207  12.678   7.553  0.1095 -0.2583 -0.0853
  130loPI   C6A 2076   2.033  12.271   7.408  0.1348 -0.3190  0.0943
  130loPI   C1B 2077   2.016  12.608   9.281  0.1462  0.1400  0.1395
  130loPI   C2B 2078   1.935  12.673   8.994  0.1140  0.0347 -0.0628
  130loPI   C3B 2079   1.937  12.785   8.548 -0.0007  0.0832 -0.1631
  130loPI   C4B 2080   1.808  12.900   8.139 -0.1266  0.1035 -0.0890
  131loPI    C1 2081   8.268  12.449   9.506  0.0167  0.1088 -0.1188
  131loPI    C2 2082   7.919  12.254   9.531 -0.0015  0.1324 -0.1856
  131loPI    C3 2083   8.131  12.328   9.862  0.0695 -0.1167 -0.1738
  131loPI   PO4 2084   8.195  12.629   9.274  0.1912  0.0170 -0.5542
  131loPI   GL1 2085   8.128  12.578   8.747  0.4753 -0.1449  0.0572
  131loPI   GL2 2086   8.420  12.361   8.787  0.0683 -0.1919 -0.2961
  131loPI   C1A 2087   8.138  12.463   8.297  0.1468  0.1266  0.1219
  131loPI   C2A 2088   8.197  12.816   7.966 -0.0671  0.3337 -0.0986
  131loPI   C3A 2089   8.156  12.939   7.575  0.4215 -0.0740  0.3688
  131loPI   C4A 2090   7.947  12.706   7.302 -0.1448  0.0800 -0.3993
  131loPI   C5A 2091   7.417  12.552   7.357 -0.4710  0.1568  0.0807
  131loPI   C6A 2092   7.102  12.335   7.492  0.2943 -0.1198  0.3530
  131loPI   C1B 2093   8.671  12.327   8.505 -0.0577 -0.1948 -0.0195
  131loPI   C2B 2094   8.572  12.326   7.961 -0.1170  0.0764  0.0246
  131loPI   C3B 2095   8.603  12.729   7.734 -0.0189  0.1304  0.1912
  131loPI   C4B 2096   8.668  13.082   7.823 -0.1135  0.1730  0.0493
  132loPI    C1 2097  10.704  11.738   9.525 -0.2028  0.1338  0.2420
  132loPI    C2 2098  10.845  11.632   9.884  0.0658  0.0612  0.1171
  132loPI    C3 2099  11.098  11.707   9.583 -0.1636 -0.1434 -0.1325
  132loPI   PO4 2100  10.541  11.932   9.470  0.0962  0.1134 -0.2995
  132loPI   GL1 2101  10.515  12.367   9.240  0.2185 -0.2215 -0.2736
  132loPI   GL2 2102  10.496  12.102   9.002 -0.1599  0.2486  0.0657
  132loPI   C1A 2103  10.692  12.598   8.810  0.1520 -0.1877 -0.1142
  132loPI   C2A 2104  10.584  12.647   8.349  0.1031  0.2854  0.3150
  132loPI   C3A 2105  10.277  12.816   8.064 -0.0655 -0.0679 -0.4618
  132loPI   C4A 2106  10.049  12.925   7.795 -0.4074 -0.0313 -0.1350
  132loPI   C5A 2107   9.550  12.847   7.596 -0.1614  0.2853  0.1090
  132loPI   C6A 2108   9.386  12.815   7.133 -0.0383  0.1217  0.1981
  132loPI   C1B 2109  10.653  12.105   8.694  0.0780 -0.0289  0.0637
  132loPI   C2B 2110  10.940  12.012   8.339 -0.0633 -0.0562  0.1145
  132loPI   C3B 2111  11.324  11.760   8.041 -0.1229 -0.0102  0.0720
  132loPI   C4B 2112  11.607  11.763   7.814 -0.1177  0.1194 -0.0124
  133loPI    C1 2113  11.952   3.975   9.897 -0.1482 -0.1322 -0.1577
  133loPI    C2 2114  11.602   3.944  10.087 -0.0540  0.0915  0.0580
  133loPI    C3 2115  11.895   4.167  10.243  0.2556 -0.2506 -0.0192
  133loPI   PO4 2116  11.913   3.970   9.621  0.2365 -0.3305  0.2948
  133loPI   GL1 2117  12.069   4.012   9.230  0.0501  0.0409 -0.2219
  133loPI   GL2 2118  11.798   3.775   9.028 -0.0038  0.0161  0.0550
  133loPI   C1A 2119  12.285   4.178   8.831  0.0837 -0.0861  0.0678
  133loPI   C2A 2120  12.641   4.145   8.468  0.0799 -0.1486  0.4334
  133loPI   C3A 2121  12.823   4.136   8.151 -0.0008  0.0267  0.2110
  133loPI   C4A 2122  12.958   3.965   7.808  0.1267  0.0281  0.4180
  133loPI   C5A 2123  13.137   3.935   7.455 -0.3822  0.0126 -0.1442
  133loPI   C6A 2124  13.388   3.642   7.212  0.1365 -0.0645 -0.1864
  133loPI   C1B 2125  11.656   3.830   8.578  0.1057 -0.6266  0.2037
  133loPI   C2B 2126  11.606   3.995   8.069 -0.2000 -0.0941 -0.2027
  133loPI   C3B 2127  11.879   3.974   7.683 -0.2393  0.2000 -0.5409
  133loPI   C4B 2128  12.070   3.690   7.420 -0.1118 -0.0457  0.1007
  134loPI    C1 2129   7.304   3.915  10.073  0.0632  0.2806  0.1232
  134loPI    C2 2130   7.273   3.834  10.463 -0.0478  0.1180  0.0812
  134loPI    C3 2131   7.634   3.866  10.294  0.0081 -0.5295  0.0534
  134loPI   PO4 2132   7.089   4.124  10.000 -0.1243  0.0492  0.0519
  134loPI   GL1 2133   7.038   4.359   9.633 -0.1454 -0.0475 -0.0976
  134loPI   GL2 2134   7.310   4.395   9.569 -0.0215  0.0524 -0.1067
  134loPI   C1A 2135   6.986   4.555   9.194  0.3513 -0.1709 -0.0332
  134loPI   C2A 2136   6.884   4.663   8.764 -0.0105 -0.3465 -0.0036
  134loPI   C3A 2137   6.929   4.734   8.326  0.1417  0.0732 -0.0820
  134loPI   C4A 2138   6.734   4.901   7.898  0.3731  0.0828 -0.0320
  134loPI   C5A 2139   6.589   5.201   7.514 -0.1421  0.0094 -0.4501
  134loPI   C6A 2140   6.733   5.535   7.268  0.1227 -0.1822  0.2361
  134loPI   C1B 2141   7.364   4.299   9.029 -0.0067  0.2737 -0.1787
  134loPI   C2B 2142   7.320   4.271   8.659 -0.1136  0.2281 -0.1531
  134loPI   C3B 2143   7.170   4.359   8.445  0.2292 -0.1870 -0.0994
  134loPI   C4B 2144   7.098   4.411   7.971 -0.0108  0.1427  0.2831
  135loPI    C1 2145   9.608  14.240  10.042 -0.0080 -0.2160  0.0145
  135loPI    C2 2146   9.585  13.940  10.305 -0.1054  0.0290  0.2921
  135loPI    C3 2147   9.277  14.191  10.261 -0.1006 -0.0241 -0.0795
  135loPI   PO4 2148   9.675  14.183   9.761 -0.5110  0.4154 -0.2491
  135loPI   GL1 2149   9.480  14.196   9.456  0.1961 -0.3454 -0.4006
  135loPI   GL2 2150   9.483  13.911   9.307 -0.0325 -0.0346  0.0332
  135loPI   C1A 2151   9.227  14.222   9.057 -0.0120 -0.3263  0.3205
  135loPI   C2A 2152   9.380  14.267   8.676  0.1210  0.0524 -0.0220
  135loPI   C3A 2153   9.411  14.441   8.384 -0.1805 -0.3623 -0.1419
  135loPI   C4A 2154   9.438  14.428   8.042 -0.4458  0.0318  0.0911
  135loPI   C5A 2155   9.776  14.509   7.728  0.0517  0.0019 -0.2352
  135loPI   C6A 2156  10.198  14.436   7.326  0.1994 -0.0755 -0.1205
  135loPI   C1B 2157   9.544  13.772   8.818 -0.0066 -0.0087  0.2520
  135loPI   C2B 2158   9.606  13.485   8.375  0.0476 -0.0487  0.2814
  135loPI   C3B 2159   9.743  13.445   7.909 -0.2271  0.0367  0.1793
  135loPI   C4B 2160   9.855  13.450   7.602 -0.0902  0.1049  0.1112
  136loPI    C1 2161  16.127  16.586  10.357 -0.1046 -0.0425 -0.0409
  136loPI    C2 2162  16.175  16.979  10.416 -0.0651 -0.1256  0.5289
  136loPI    C3 2163  15.847  16.794  10.551 -0.1227 -0.2769  0.1905
  136loPI   PO4 2164  16.170  16.530  10.079  0.0036 -0.0029  0.0786
  136loPI   GL1 2165  16.567  16.396   9.859  0.3438  0.2683 -0.0877
  136loPI   GL2 2166  16.468  16.681   9.726  0.1721  0.3635 -0.0056
  136loPI   C1A 2167  16.337  16.278   9.395  0.1762 -0.0244 -0.1228
  136loPI   C2A 2168  16.376  16.384   8.958  0.0886 -0.0833 -0.0359
  136loPI   C3A 2169  16.407  16.628   8.563 -0.1132 -0.1175  0.1331
  136loPI   C4A 2170  16.121  16.583   8.170  0.0186  0.0345 -0.1452
  136loPI   C5A 2171  16.094  16.328   7.771  0.1602 -0.2875 -0.0616
  136loPI   C6A 2172  15.964  16.457   7.344 -0.1163  0.3708 -0.2683
  136loPI   C1B 2173  16.210  16.799   9.342  0.0507 -0.1377 -0.2119
  136loPI   C2B 2174  16.104  16.822   8.969  0.2780 -0.1171 -0.0680
  136loPI   C3B 2175  15.990  16.874   8.605 -0.0039 -0.0731  0.0447
  136loPI   C4B 2176  16.013  17.125   8.179  0.2237 -0.0273 -0.1440
  137loPI    C1 2177  17.574   0.895  10.185 -0.1014 -0.1834 -0.0451
  137loPI    C2 2178  17.755   1.234  10.294 -0.0837 -0.1223 -0.2606
  137loPI    C3 2179  17.933   0.883  10.362 -0.0597 -0.0839 -0.1221
  137loPI   PO4 2180  17.607   0.850   9.962  0.3665 -0.1002 -0.2448
  137loPI   GL1 2181  17.575   0.814   9.501 -0.0695 -0.0858  0.0145
  137loPI   GL2 2182  17.354   0.634   9.450 -0.1713  0.2717 -0.0666
  137loPI   C1A 2183  17.472   0.875   9.068 -0.1216 -0.0268  0.1348
  137loPI   C2A 2184  17.459   0.840   8.679  0.2362 -0.0261 -0.1625
  137loPI   C3A 2185  17.569   0.871   8.366  0.0403  0.0328 -0.1587
  137loPI   C4A 2186  17.402   0.807   7.976  0.2321  0.0890  0.2698
  137loPI   C5A 2187  17.129   1.045   7.793  0.1712 -0.2583 -0.1654
  137loPI   C6A 2188  17.361   1.137   7.421 -0.1680 -0.2701  0.0100
  137loPI   C1B 2189  17.384   0.403   9.033 -0.2519 -0.1013  0.0659
  137loPI   C2B 2190  17.506   0.231   8.662  0.0172  0.1025 -0.0083
  137loPI   C3B 2191  17.663   0.168   8.323  0.1988 -0.1068  0.1509
  137loPI   C4B 2192  17.430   0.187   7.876  0.0705 -0.0533  0.1049
  138loPI    C1 2193   3.267  14.986   9.717 -0.2229  0.0793 -0.0168
  138loPI    C2 2194   3.057  14.714   9.513 -0.0095 -0.0731 -0.0372
  138loPI    C3 2195   3.028  14.732   9.912 -0.2910  0.1077 -0.0632
  138loPI   PO4 2196   3.227  15.229   9.579 -0.4232 -0.0534  0.1730
  138loPI   GL1 2197   3.272  15.391   9.262 -0.2869 -0.0014 -0.1070
  138loPI   GL2 2198   3.507  15.091   9.201 -0.0166  0.0885  0.3097
  138loPI   C1A 2199   3.241  15.735   8.849 -0.2607 -0.1170 -0.1696
  138loPI   C2A 2200   3.175  15.870   8.509 -0.1759 -0.0732  0.3645
  138loPI   C3A 2201   2.970  15.885   8.109 -0.1274  0.3719  0.0650
  138loPI   C4A 2202   2.899  16.063   7.820  0.0889 -0.3851 -0.1767
  138loPI   C5A 2203   3.110  15.835   7.484 -0.1051 -0.0315 -0.1250
  138loPI   C6A 2204   3.492  15.625   7.476  0.0878 -0.3942 -0.3573
  138loPI   C1B 2205   3.401  15.224   8.776  0.2473 -0.2120 -0.3196
  138loPI   C2B 2206   3.258  15.347   8.488  0.1612 -0.0235  0.2037
  138loPI   C3B 2207   3.296  15.196   8.169  0.0415 -0.5956  0.0415
  138loPI   C4B 2208   3.225  15.206   7.728  0.3368 -0.1344 -0.1575
  139loPI    C1 2209   1.903   7.442   9.900 -0.0303 -0.0827 -0.1632
  139loPI    C2 2210   1.941   7.719  10.187  0.1312  0.0614 -0.3214
  139loPI    C3 2211   2.067   7.345  10.251 -0.1564  0.0022 -0.0798
  139loPI   PO4 2212   1.953   7.687   9.702 -0.2382 -0.3104  0.3508
  139loPI   GL1 2213   2.126   7.558   9.275  0.3109 -0.2394 -0.0367
  139loPI   GL2 2214   2.373   7.386   9.203  0.1680 -0.1544 -0.1027
  139loPI   C1A 2215   2.003   8.016   9.145 -0.2940 -0.0827  0.3531
  139loPI   C2A 2216   2.036   8.189   8.701  0.0264 -0.4555  0.1399
  139loPI   C3A 2217   1.911   8.172   8.292 -0.0830  0.1956  0.1538
  139loPI   C4A 2218   1.401   8.104   8.210 -0.1619  0.1442 -0.2287
  139loPI   C5A 2219   1.278   7.740   7.891 -0.3105 -0.0165 -0.0684
  139loPI   C6A 2220   1.056   7.457   7.891 -0.2522 -0.0499 -0.0215
  139loPI   C1B 2221   2.425   7.563   8.789  0.0459  0.2674 -0.0841
  139loPI   C2B 2222   2.291   7.688   8.437  0.0198 -0.2721  0.2940
  139loPI   C3B 2223   2.220   7.697   8.003 -0.0220 -0.3675  0.0848
  139loPI   C4B 2224   2.233   7.671   7.512  0.2364 -0.0340  0.1252
  140loPI    C1 2225  13.406   4.700   9.758  0.1677 -0.2796  0.0411
  140loPI    C2 2226  13.085   4.701   9.996  0.0889  0.3694 -0.0507
  140loPI    C3 2227  13.448   4.629  10.149 -0.0301  0.1908  0.1536
  140loPI   PO4 2228  13.332   4.603   9.599 -0.3108 -0.0336  0.1592
  140loPI   GL1 2229  13.154   4.772   9.134  0.1785  0.0159  0.0585
  140loPI   GL2 2230  13.003   4.480   9.152  0.1744  0.1205  0.1916
  140loPI   C1A 2231  12.943   4.852   8.737  0.2594 -0.3262  0.0850
  140loPI   C2A 2232  12.962   4.843   8.325 -0.2530  0.1316  0.0291
  140loPI   C3A 2233  13.117   4.840   7.871 -0.1643  0.2879 -0.0007
  140loPI   C4A 2234  13.327   4.980   7.407 -0.0506  0.2102 -0.1948
  140loPI   C5A 2235  13.592   4.918   7.234 -0.0970  0.0795  0.1249
  140loPI   C6A 2236  13.996   4.668   7.334 -0.0687  0.1602 -0.3533
  140loPI   C1B 2237  12.674   4.490   8.809  0.3045  0.0829 -0.2549
  140loPI   C2B 2238  12.437   4.928   8.550 -0.3752 -0.1468 -0.4004
  140loPI   C3B 2239  12.078   4.900   8.304  0.1051 -0.1349 -0.4230
  140loPI   C4B 2240  12.088   4.860   7.911  0.0589 -0.2521 -0.2304
  141loPI    C1 2241   9.948   5.309   9.723 -0.0324 -0.0102  0.0921
  141loPI    C2 2242   9.942   5.192  10.105  0.0324 -0.1706  0.0451
  141loPI    C3 2243   9.642   5.091   9.861  0.0172 -0.1137  0.0397
  141loPI   PO4 2244  10.179   5.236   9.648 -0.0341  0.0887 -0.0699
  141loPI   GL1 2245  10.207   5.023   9.273 -0.1445 -0.4008  0.1057
  141loPI   GL2 2246  10.294   4.653   9.186 -0.1614  0.0937  0.0197
  141loPI   C1A 2247  10.185   5.062   8.866 -0.1824  0.0988  0.2567
  141loPI   C2A 2248  10.098   5.217   8.495 -0.0220  0.3525  0.1878
  141loPI   C3A 2249   9.916   5.148   8.142  0.2110 -0.2305 -0.0220
  141loPI   C4A 2250   9.804   4.963   7.731  0.1643 -0.0330 -0.1765
  141loPI   C5A 2251   9.882   5.068   7.455  0.0264  0.2572  0.1275
  141loPI   C6A 2252   9.836   5.402   7.157 -0.4597 -0.0775  0.1420
  141loPI   C1B 2253  10.013   4.555   8.837  0.2359 -0.1959 -0.0412
  141loPI   C2B 2254   9.915   4.673   8.531 -0.5041 -0.0793  0.0763
  141loPI   C3B 2255  10.014   4.646   8.158 -0.0741  0.0599  0.4388
  141loPI   C4B 2256   9.924   4.504   7.824 -0.2237 -0.0572 -0.1861
  142loPI    C1 2257  18.627  11.988  10.308  0.0127 -0.0033 -0.1444
  142loPI    C2 2258  18.238  12.077  10.316  0.0210  0.0474 -0.2828
  142loPI    C3 2259  18.368  11.738  10.483 -0.0755  0.0540 -0.1925
  142loPI   PO4 2260  18.657  11.984  10.018 -0.2952  0.3080 -0.0444
  142loPI   GL1 2261  18.652  12.138   9.641  0.4642 -0.3120  0.3277
  142loPI   GL2 2262  18.993  12.174   9.600  0.1864  0.4722  0.0805
  142loPI   C1A 2263  18.196  12.300   9.366  0.1785 -0.2082 -0.0530
  142loPI   C2A 2264  17.925  12.270   8.963 -0.1423 -0.1840 -0.0868
  142loPI   C3A 2265  17.645  11.997   8.553  0.1239  0.0332 -0.0071
  142loPI   C4A 2266  17.566  11.815   8.153 -0.0717 -0.1701  0.1035
  142loPI   C5A 2267  17.653  11.497   7.814  0.1215 -0.3213  0.1265
  142loPI   C6A 2268  17.601  11.043   7.646  0.0024  0.0137  0.1019
  142loPI   C1B 2269  18.852  12.198   9.190  0.0633 -0.2274  0.0404
  142loPI   C2B 2270  18.755  12.101   8.772  0.0306 -0.1352  0.0536
  142loPI   C3B 2271  18.613  12.045   8.304 -0.0737  0.0700  0.0345
  142loPI   C4B 2272  18.660  11.873   7.845 -0.5021 -0.0946 -0.0135
  143loPI    C1 2273   1.252  11.578  10.334  0.1814 -0.4184 -0.1520
  143loPI    C2 2274   1.088  11.810  10.616  0.2398 -0.1557 -0.3293
  143loPI    C3 2275   0.953  11.437  10.560  0.1783 -0.1854 -0.0070
  143loPI   PO4 2276   1.202  11.705  10.122 -0.2745  0.0224 -0.0564
  143loPI   GL1 2277   1.425  11.619   9.712 -0.1408  0.1613 -0.0934
  143loPI   GL2 2278   1.135  11.393   9.574  0.3901  0.0595  0.1892
  143loPI   C1A 2279   1.401  11.802   9.385  0.3776 -0.0062 -0.0192
  143loPI   C2A 2280   1.488  11.819   8.933  0.1556  0.2435 -0.2824
  143loPI   C3A 2281   1.790  11.574   8.586  0.0202  0.1012  0.0493
  143loPI   C4A 2282   2.155  11.445   8.351 -0.0441  0.0423  0.2052
  143loPI   C5A 2283   2.372  11.425   8.071  0.2186 -0.1332 -0.0015
  143loPI   C6A 2284   2.527  11.264   7.757 -0.1580  0.3549 -0.0055
  143loPI   C1B 2285   1.382  11.373   9.143 -0.2036 -0.0471 -0.0597
  143loPI   C2B 2286   1.428  11.205   8.749  0.0456 -0.2816  0.1209
  143loPI   C3B 2287   1.727  11.117   8.425 -0.1333  0.2989  0.0266
  143loPI   C4B 2288   1.712  11.355   8.071  0.1019 -0.4259  0.2751
  144loPI    C1 2289   7.068  18.201   9.690 -0.1261 -0.1295 -0.0390
  144loPI    C2 2290   7.156  17.852   9.866  0.1286 -0.1136 -0.1305
  144loPI    C3 2291   7.075  18.174  10.089 -0.0736 -0.2214 -0.0458
  144loPI   PO4 2292   7.235  18.162   9.432  0.0364  0.0159 -0.0142
  144loPI   GL1 2293   7.123  17.963   9.003  0.2070 -0.1003 -0.1010
  144loPI   GL2 2294   6.968  18.218   8.976 -0.1062  0.1694  0.0261
  144loPI   C1A 2295   7.089  17.925   8.495  0.1330  0.1230 -0.0065
  144loPI   C2A 2296   7.099  17.973   8.060  0.0366  0.1610 -0.1976
  144loPI   C3A 2297   6.938  17.958   7.705 -0.4038  0.3183 -0.1488
  144loPI   C4A 2298   7.226  18.183   7.381  0.1578  0.3301 -0.0556
  144loPI   C5A 2299   7.427  18.380   7.152 -0.2477  0.3815 -0.0241
  144loPI   C6A 2300   7.806  18.460   6.924 -0.2258  0.0393 -0.3840
  144loPI   C1B 2301   6.852  18.306   8.596  0.0833  0.0538 -0.3380
  144loPI   C2B 2302   6.798  18.339   8.148 -0.2671 -0.0577  0.0176
  144loPI   C3B 2303   6.656  18.350   7.761  0.2558 -0.1557  0.5671
  144loPI   C4B 2304   6.796  18.336   7.251  0.1765 -0.2780 -0.1962
  145loPI    C1 2305  11.375   9.071  10.258 -0.2710 -0.0302  0.1199
  145loPI    C2 2306  11.600   8.846  10.500  0.1989 -0.1756 -0.4293
  145loPI    C3 2307  11.624   9.245  10.519  0.1251 -0.1821 -0.1478
  145loPI   PO4 2308  11.397   8.941  10.090 -0.2909 -0.0462  0.0005
  145loPI   GL1 2309  11.450   8.885   9.694  0.3029  0.4111 -0.3271
  145loPI   GL2 2310  11.129   8.814   9.692 -0.1905  0.0409 -0.1016
  145loPI   C1A 2311  11.425   8.802   9.230  0.2393  0.2752 -0.0163
  145loPI   C2A 2312  11.448   8.467   9.086  0.0701 -0.2225  0.4368
  145loPI   C3A 2313  11.388   8.285   8.679  0.2450 -0.0864  0.0953
  145loPI   C4A 2314  11.206   8.160   8.272 -0.1294 -0.1147  0.0606
  145loPI   C5A 2315  10.995   8.273   7.869 -0.0068 -0.1781  0.0978
  145loPI   C6A 2316  10.824   8.617   7.475  0.0177 -0.0140 -0.0341
  145loPI   C1B 2317  11.003   9.120   9.383 -0.2591 -0.0496 -0.2785
  145loPI   C2B 2318  11.036   9.231   8.982 -0.2455  0.1496 -0.3944
  145loPI   C3B 2319  11.363   9.033   8.755 -0.1502  0.0025 -0.0831
  145loPI   C4B 2320  11.649   8.685   8.532  0.2366 -0.0246  0.1297
  146loPI    C1 2321  13.640   5.863  10.212  0.0776 -0.0238  0.0582
  146loPI    C2 2322  13.341   5.626  10.091  0.0656 -0.0120  0.0646
  146loPI    C3 2323  13.585   5.506  10.386  0.1822 -0.1018 -0.0668
  146loPI   PO4 2324  13.799   5.963   9.919 -0.1947 -0.3456  0.0372
  146loPI   GL1 2325  13.834   5.997   9.469 -0.2136 -0.0060  0.2043
  146loPI   GL2 2326  13.611   6.085   9.362  0.1701 -0.0074  0.1929
  146loPI   C1A 2327  14.202   5.814   9.138 -0.0239  0.0956  0.3211
  146loPI   C2A 2328  14.195   5.905   8.641  0.1481  0.2726 -0.2327
  146loPI   C3A 2329  14.146   5.999   8.213 -0.0700 -0.1127 -0.1161
  146loPI   C4A 2330  13.980   6.076   7.816  0.0995  0.0563  0.0238
  146loPI   C5A 2331  13.742   6.309   7.557  0.2562  0.2615  0.3200
  146loPI   C6A 2332  13.553   6.250   7.270  0.1172  0.5876 -0.1361
  146loPI   C1B 2333  13.679   6.012   8.946 -0.0345 -0.1732  0.1995
  146loPI   C2B 2334  13.608   6.195   8.480 -0.0442 -0.0241  0.1560
  146loPI   C3B 2335  13.846   6.488   8.180 -0.2274 -0.1363 -0.0819
  146loPI   C4B 2336  14.022   6.656   7.776  0.2368  0.0550 -0.0489
  147loPI    C1 2337   8.116   9.596  10.050 -0.0081  0.1273 -0.0335
  147loPI    C2 2338   7.937   9.763  10.366 -0.0609 -0.1817  0.1038
  147loPI    C3 2339   8.322   9.658  10.387  0.0043  0.0260 -0.0222
  147loPI   PO4 2340   8.019   9.458   9.810 -0.0158  0.1549 -0.3064
  147loPI   GL1 2341   7.815   9.439   9.437 -0.0003  0.0222 -0.0506
  147loPI   GL2 2342   8.113   9.619   9.348 -0.1254  0.0212 -0.0109
  147loPI   C1A 2343   7.522   9.362   9.138 -0.3253 -0.4356 -0.2141
  147loPI   C2A 2344   7.476   9.711   8.757 -0.2843  0.2011  0.1864
  147loPI   C3A 2345   7.341   9.557   8.406 -0.0064 -0.0641 -0.0739
  147loPI   C4A 2346   7.434   9.384   8.013  0.2770 -0.1083 -0.0105
  147loPI   C5A 2347   7.674   9.395   7.674 -0.0362 -0.1622  0.1026
  147loPI   C6A 2348   8.003   9.541   7.399 -0.2762  0.2744 -0.1047
  147loPI   C1B 2349   7.986   9.554   8.922 -0.1888  0.0698  0.2029
  147loPI   C2B 2350   7.802   9.229   8.774  0.0472  0.2647 -0.1432
  147loPI   C3B 2351   7.686   9.142   8.346 -0.3045 -0.3979 -0.0648
  147loPI   C4B 2352   7.605   8.947   7.949 -0.2501  0.0586  0.1304
  148loPI    C1 2353   0.590  11.832  10.536 -0.2278  0.2876 -0.0412
  148loPI    C2 2354   0.503  11.492  10.728  0.0731  0.0924 -0.2409
  148loPI    C3 2355   0.552  11.831  10.934  0.0625 -0.0444 -0.0092
  148loPI   PO4 2356   0.426  11.849  10.375 -0.0538  0.0402  0.0160
  148loPI   GL1 2357   0.435  11.774   9.951 -0.0527 -0.2205 -0.0063
  148loPI   GL2 2358   0.282  12.017   9.893 -0.1821 -0.2156  0.2485
  148loPI   C1A 2359   0.418  11.484   9.691 -0.0720  0.4695 -0.0984
  148loPI   C2A 2360   0.424  11.598   9.206 -0.0192  0.0156 -0.2339
  148loPI   C3A 2361   0.384  11.726   8.793  0.2523  0.1593  0.2303
  148loPI   C4A 2362   0.292  11.740   8.358  0.4193  0.2807  0.1790
  148loPI   C5A 2363   0.263  11.715   7.861 -0.0884 -0.4284 -0.1110
  148loPI   C6A 2364   0.326  12.003   7.500  0.2084 -0.1778  0.1259
  148loPI   C1B 2365   0.395  12.075   9.469  0.0598 -0.0874 -0.2648
  148loPI   C2B 2366   0.233  12.084   9.081 -0.2526 -0.1208 -0.1471
  148loPI   C3B 2367   0.075  12.168   8.595  0.1244 -0.1238  0.0198
  148loPI   C4B 2368  -0.018  12.065   8.142 -0.0700  0.1017 -0.0378
  149loPI    C1 2369   8.470  16.232   9.877  0.0623 -0.2758  0.3024
  149loPI    C2 2370   8.116  16.393   9.973  0.1523 -0.0084  0.1965
  149loPI    C3 2371   8.284  16.119  10.213 -0.1722 -0.2134  0.1955
  149loPI   PO4 2372   8.417  16.230   9.568 -0.2574  0.1452 -0.3752
  149loPI   GL1 2373   8.264  15.993   9.229  0.1652 -0.2000 -0.0773
  149loPI   GL2 2374   8.534  16.120   9.042  0.2769 -0.0225 -0.4627
  149loPI   C1A 2375   8.035  16.212   8.874 -0.0735  0.1218  0.0044
  149loPI   C2A 2376   8.042  16.215   8.406  0.3435  0.1941  0.0259
  149loPI   C3A 2377   8.136  16.189   7.973 -0.2920 -0.3341  0.1898
  149loPI   C4A 2378   8.030  16.462   7.702 -0.0939 -0.1521 -0.4126
  149loPI   C5A 2379   8.138  16.652   7.259 -0.3082  0.0573  0.1323
  149loPI   C6A 2380   8.330  17.105   7.245  0.1412 -0.1566  0.3352
  149loPI   C1B 2381   8.850  15.936   8.723  0.1176 -0.2113 -0.5181
  149loPI   C2B 2382   9.112  15.955   8.375 -0.1431  0.2544 -0.1387
  149loPI   C3B 2383   9.221  15.733   8.102 -0.2573  0.1809  0.3397
  149loPI   C4B 2384   9.701  15.654   7.891  0.1217  0.0016  0.0875
  150loPI    C1 2385  13.316   8.196   9.818  0.3460  0.1733  0.3310
  150loPI    C2 2386  13.375   7.807   9.891  0.1652  0.0838  0.0157
  150loPI    C3 2387  13.109   8.014  10.107 -0.0443 -0.0711 -0.0901
  150loPI   PO4 2388  13.340   8.223   9.557 -0.1239 -0.1662 -0.0127
  150loPI   GL1 2389  13.233   8.301   9.199  0.2527 -0.2321 -0.1026
  150loPI   GL2 2390  13.407   8.080   9.085 -0.1130  0.2099  0.1897
  150loPI   C1A 2391  13.090   8.576   8.850  0.0145  0.2932  0.0441
  150loPI   C2A 2392  13.063   8.491   8.519  0.2100  0.2126 -0.0670
  150loPI   C3A 2393  13.006   8.497   8.099 -0.0446 -0.0610  0.1212
  150loPI   C4A 2394  12.709   8.423   7.747  0.1598 -0.0190 -0.0831
  150loPI   C5A 2395  12.431   8.112   7.559 -0.1348 -0.0222  0.2660
  150loPI   C6A 2396  12.309   7.758   7.236 -0.4676 -0.0111  0.1159
  150loPI   C1B 2397  13.262   8.112   8.718 -0.0721 -0.0856  0.1716
  150loPI   C2B 2398  13.351   8.070   8.322  0.1391  0.2319  0.0655
  150loPI   C3B 2399  13.333   8.060   7.892  0.0098  0.0402  0.0630
  150loPI   C4B 2400  13.124   7.936   7.471 -0.1568 -0.0161  0.1158
  151loPI    C1 2401   3.350  11.174  10.436  0.0319 -0.6058 -0.0350
  151loPI    C2 2402   3.481  11.317  10.786  0.0589  0.0910 -0.3147
  151loPI    C3 2403   3.089  11.269  10.724  0.0582 -0.1057 -0.1670
  151loPI   PO4 2404   3.594  11.173  10.280  0.0944 -0.2278  0.0706
  151loPI   GL1 2405   3.807  10.877  10.017 -0.3016 -0.0491 -0.2200
  151loPI   GL2 2406   4.226  10.953  10.015  0.3807  0.0987  0.0995
  151loPI   C1A 2407   3.712  10.676   9.654 -0.4708 -0.2682  0.1768
  151loPI   C2A 2408   3.706  10.607   9.153  0.0905 -0.0999  0.0732
  151loPI   C3A 2409   3.744  10.593   8.699 -0.0262  0.0576 -0.0177
  151loPI   C4A 2410   3.615  10.449   8.243  0.0359 -0.1504 -0.1115
  151loPI   C5A 2411   3.618  10.245   7.805 -0.0028  0.1953  0.0851
  151loPI   C6A 2412   3.753   9.815   7.554  0.3410 -0.3844  0.2061
  151loPI   C1B 2413   4.062  11.064   9.549  0.2477  0.0896  0.0851
  151loPI   C2B 2414   3.937  11.038   9.111  0.1335 -0.0050  0.0230
  151loPI   C3B 2415   3.950  11.033   8.690 -0.1007  0.2127  0.2370
  151loPI   C4B 2416   3.960  10.894   8.286 -0.0420  0.1429 -0.2487
  152loPI    C1 2417  16.383   1.764   9.483  0.1469  0.0224  0.0318
  152loPI    C2 2418  16.298   1.625   9.848 -0.0704  0.0099 -0.0223
  152loPI    C3 2419  16.438   1.997   9.804  0.0566 -0.0246  0.0817
  152loPI   PO4 2420  16.155   1.644   9.296 -0.2061  0.1928 -0.1585
  152loPI   GL1 2421  15.812   1.582   9.092 -0.0049  0.1012 -0.3525
  152loPI   GL2 2422  15.577   1.473   9.358  0.4404  0.0825  0.0526
  152loPI   C1A 2423  15.838   1.484   8.699  0.0656  0.1608 -0.2241
  152loPI   C2A 2424  15.631   1.463   8.332 -0.1009  0.0593 -0.1461
  152loPI   C3A 2425  15.540   1.465   7.937  0.0056 -0.1267 -0.0634
  152loPI   C4A 2426  15.414   1.340   7.419 -0.3536  0.0213 -0.2331
  152loPI   C5A 2427  15.080   1.208   7.346  0.2406  0.0629 -0.4150
  152loPI   C6A 2428  14.738   1.053   7.243  0.1704  0.1183 -0.0199
  152loPI   C1B 2429  15.350   1.380   9.014 -0.1027  0.0206 -0.1938
  152loPI   C2B 2430  15.221   1.310   8.610  0.2774 -0.0597  0.2057
  152loPI   C3B 2431  15.178   1.277   8.224 -0.1648  0.0136 -0.0673
  152loPI   C4B 2432  15.059   1.313   7.799 -0.0148 -0.3471 -0.0936
  153loPI    C1 2433   9.723  15.645  10.085  0.0191  0.1023 -0.0072
  153loPI    C2 2434   9.342  15.766  10.065  0.0022  0.1008  0.2675
  153loPI    C3 2435   9.459  15.520  10.358  0.1354 -0.1966 -0.0288
  153loPI   PO4 2436   9.737  15.590   9.789  0.0345 -0.2606 -0.1215
  153loPI   GL1 2437   9.550  15.554   9.428  0.3944 -0.0317  0.1994
  153loPI   GL2 2438   9.510  15.268   9.381 -0.2607 -0.0050  0.0958
  153loPI   C1A 2439   9.448  15.797   9.107  0.4160 -0.3998 -0.2178
  153loPI   C2A 2440   9.277  16.139   8.902  0.2664  0.0259 -0.0946
  153loPI   C3A 2441   9.004  16.441   8.730 -0.0512 -0.1512  0.2465
  153loPI   C4A 2442   9.063  16.507   8.305 -0.1373 -0.0029  0.0366
  153loPI   C5A 2443   9.161  16.713   7.895  0.1935  0.0625  0.0311
  153loPI   C6A 2444   9.427  16.759   7.622 -0.1742 -0.1648  0.1655
  153loPI   C1B 2445   9.592  15.362   8.920 -0.1351 -0.1121  0.2122
  153loPI   C2B 2446   9.528  15.728   8.610 -0.1598  0.3756  0.2764
  153loPI   C3B 2447   9.651  15.888   8.328  0.0351 -0.0319  0.1172
  153loPI   C4B 2448   9.944  16.074   8.076  0.1081 -0.0617 -0.2255
  154loPI    C1 2449  12.257  16.164  10.020  0.1796 -0.0411 -0.1472
  154loPI    C2 2450  11.899  16.122  10.194  0.1819 -0.1848 -0.1756
  154loPI    C3 2451  12.172  16.365  10.355  0.0037  0.0770 -0.2609
  154loPI   PO4 2452  12.194  16.181   9.788  0.1056 -0.2533 -0.0200
  154loPI   GL1 2453  12.128  16.046   9.386 -0.2415 -0.0859  0.1736
  154loPI   GL2 2454  12.136  16.485   9.394 -0.2934 -0.0201 -0.0405
  154loPI   C1A 2455  11.990  16.057   9.013 -0.2944 -0.1043  0.1520
  154loPI   C2A 2456  12.143  16.180   8.590 -0.0192  0.0791 -0.1913
  154loPI   C3A 2457  12.037  16.089   8.218 -0.1576  0.2014 -0.0884
  154loPI   C4A 2458  12.150  16.271   7.910 -0.1130 -0.2218  0.0762
  154loPI   C5A 2459  12.567  16.150   7.666 -0.0181 -0.2847  0.1261
  154loPI   C6A 2460  12.673  15.848   7.331  0.0023  0.0265  0.3824
  154loPI   C1B 2461  11.962  16.829   9.191 -0.0503  0.0828 -0.1049
  154loPI   C2B 2462  11.688  16.911   8.797  0.0246  0.1577  0.0287
  154loPI   C3B 2463  11.315  16.781   8.696 -0.2547  0.2194 -0.0095
  154loPI   C4B 2464  11.098  17.095   8.551 -0.2458 -0.2095 -0.5440
  155loPI    C1 2465  15.035   1.150  10.082 -0.2409 -0.0411 -0.1693
  155loPI    C2 2466  14.914   1.213  10.458  0.1272  0.4472 -0.1219
  155loPI    C3 2467  15.255   1.017  10.388 -0.1360  0.0099 -0.2219
  155loPI   PO4 2468  14.855   1.081   9.925  0.3447 -0.0704  0.0321
  155loPI   GL1 2469  14.683   0.867   9.604 -0.4197 -0.0924 -0.0324
  155loPI   GL2 2470  14.853   0.684   9.543 -0.0917  0.1154  0.0039
  155loPI   C1A 2471  14.684   1.069   9.240 -0.1479  0.2493 -0.1152
  155loPI   C2A 2472  14.501   0.917   8.852 -0.1611  0.0432  0.1844
  155loPI   C3A 2473  14.398   0.795   8.323 -0.0657  0.0561 -0.2241
  155loPI   C4A 2474  14.509   0.639   7.992 -0.0113  0.0651  0.0679
  155loPI   C5A 2475  14.420   0.543   7.587  0.1172  0.2210 -0.3070
  155loPI   C6A 2476  14.186   0.722   7.148  0.0836  0.1171  0.0173
  155loPI   C1B 2477  14.654   0.487   9.182  0.0282  0.2360 -0.1108
  155loPI   C2B 2478  14.596   0.394   8.724 -0.1617 -0.0196 -0.3470
  155loPI   C3B 2479  14.594   0.222   8.299 -0.2745 -0.0204  0.3075
  155loPI   C4B 2480  14.506   0.055   7.957 -0.1861 -0.0814 -0.2269
  156loPI    C1 2481   5.418  15.785   9.666  0.1911 -0.1280  0.0739
  156loPI    C2 2482   5.665  16.002   9.893 -0.0042  0.1327  0.0427
  156loPI    C3 2483   5.627  15.609   9.958 -0.0140  0.1927  0.4236
  156loPI   PO4 2484   5.457  15.789   9.407  0.2373 -0.1907  0.2524
  156loPI   GL1 2485   5.380  15.583   9.069  0.0182 -0.1204  0.2165
  156loPI   GL2 2486   4.978  15.545   9.035 -0.2835  0.3326  0.0299
  156loPI   C1A 2487   5.531  15.631   8.706  0.0079  0.0990  0.1447
  156loPI   C2A 2488   5.491  15.532   8.257 -0.0505  0.2593 -0.0355
  156loPI   C3A 2489   5.352  15.595   7.865 -0.0793 -0.1190  0.2412
  156loPI   C4A 2490   5.522  15.773   7.545 -0.0263 -0.0876 -0.0260
  156loPI   C5A 2491   5.946  15.643   7.247 -0.2800 -0.0422 -0.0257
  156loPI   C6A 2492   6.411  15.459   7.103  0.0919 -0.1484  0.0316
  156loPI   C1B 2493   4.707  15.509   8.658  0.0310  0.1679  0.1248
  156loPI   C2B 2494   4.703  15.558   8.140 -0.2565  0.0201  0.3361
  156loPI   C3B 2495   4.787  15.287   7.783 -0.1972 -0.1331  0.3054
  156loPI   C4B 2496   4.639  14.906   7.575  0.1504  0.0580  0.1275
  157loPI    C1 2497  18.541  13.732   9.929  0.0078 -0.1700  0.0882
  157loPI    C2 2498  18.907  13.609  10.034  0.2247  0.3313 -0.0550
  157loPI    C3 2499  18.825  13.690   9.651 -0.0854  0.0741 -0.0468
  157loPI   PO4 2500  18.331  13.571   9.968 -0.2056  0.0791 -0.1065
  157loPI   GL1 2501  18.303  13.311   9.687 -0.0055 -0.2050 -0.1698
  157loPI   GL2 2502  18.643  13.216   9.649  0.3043 -0.0216  0.2715
  157loPI   C1A 2503  18.252  13.368   9.315 -0.2029 -0.1617  0.1474
  157loPI   C2A 2504  18.083  13.515   9.020 -0.1428 -0.2410  0.0956
  157loPI   C3A 2505  17.993  13.502   8.644  0.0145 -0.1200  0.0885
  157loPI   C4A 2506  18.093  13.437   8.169  0.0744 -0.3651 -0.1616
  157loPI   C5A 2507  17.835  13.449   7.773 -0.1268 -0.0641  0.1061
  157loPI   C6A 2508  17.635  13.460   7.334  0.3835 -0.1389 -0.1422
  157loPI   C1B 2509  18.718  13.255   9.221 -0.0972  0.4080 -0.1035
  157loPI   C2B 2510  18.565  13.368   8.804 -0.1379  0.1740 -0.0466
  157loPI   C3B 2511  18.477  13.335   8.411  0.0992 -0.0945  0.0499
  157loPI   C4B 2512  18.721  13.567   8.044 -0.0993  0.0990 -0.1001
  158loPI    C1 2513  13.614  15.499  10.222 -0.0486  0.0178 -0.1768
  158loPI    C2 2514  13.739  15.637  10.576 -0.0208  0.0532 -0.2004
  158loPI    C3 2515  13.985  15.418  10.349 -0.0388  0.0300 -0.1975
  158loPI   PO4 2516  13.539  15.693  10.068 -0.0037  0.5207 -0.2023
  158loPI   GL1 2517  13.411  15.548   9.735  0.3249 -0.0790  0.0471
  158loPI   GL2 2518  13.306  15.355   9.650  0.0450 -0.4890  0.3202
  158loPI   C1A 2519  13.539  15.724   9.313 -0.0314  0.2855  0.4980
  158loPI   C2A 2520  13.628  15.935   8.937  0.1272 -0.1005  0.1949
  158loPI   C3A 2521  13.662  16.213   8.652 -0.0438 -0.1144 -0.1603
  158loPI   C4A 2522  13.463  16.412   8.384 -0.1113 -0.1106 -0.0646
  158loPI   C5A 2523  13.206  16.696   8.268  0.0996 -0.1645 -0.1082
  158loPI   C6A 2524  12.769  16.954   8.238  0.1245 -0.0644 -0.0041
  158loPI   C1B 2525  13.497  15.215   9.277  0.2068 -0.2333  0.0047
  158loPI   C2B 2526  13.641  15.187   8.834  0.0567 -0.0475 -0.1071
  158loPI   C3B 2527  13.748  15.162   8.380 -0.1407 -0.1718 -0.1438
  158loPI   C4B 2528  13.890  15.511   8.068 -0.2185  0.1968 -0.0562
  159loPI    C1 2529   7.876   3.998   9.862 -0.1464 -0.0002  0.0948
  159loPI    C2 2530   8.273   4.049   9.867 -0.1626  0.1359  0.0327
  159loPI    C3 2531   8.118   3.681   9.882 -0.0298  0.0717 -0.1441
  159loPI   PO4 2532   7.762   4.079   9.713 -0.0238 -0.2206  0.1017
  159loPI   GL1 2533   7.751   4.161   9.309  0.2158 -0.0908 -0.0024
  159loPI   GL2 2534   7.718   3.947   9.140  0.3523 -0.0157  0.1729
  159loPI   C1A 2535   7.899   4.365   8.936 -0.2243 -0.0684 -0.0956
  159loPI   C2A 2536   7.774   4.464   8.620  0.1593 -0.0220  0.0382
  159loPI   C3A 2537   7.528   4.533   8.224  0.1961  0.0653  0.4835
  159loPI   C4A 2538   7.365   4.835   7.985  0.0510 -0.0005 -0.0962
  159loPI   C5A 2539   7.220   5.101   7.611 -0.2075  0.1893  0.1004
  159loPI   C6A 2540   7.089   5.209   7.332 -0.3667  0.0954  0.2251
  159loPI   C1B 2541   7.667   3.948   8.821  0.3409 -0.0063  0.2147
  159loPI   C2B 2542   7.602   4.087   8.352  0.0842  0.5023 -0.2462
  159loPI   C3B 2543   7.608   4.186   7.894 -0.1351  0.0568 -0.0454
  159loPI   C4B 2544   7.375   4.473   7.570  0.0609  0.2078  0.2688
  160loPI    C1 2545   0.386  14.245  10.370  0.2583 -0.1028  0.0754
  160loPI    C2 2546   0.760  14.114  10.424  0.2596 -0.1173  0.0307
  160loPI    C3 2547   0.458  13.945  10.625  0.2737 -0.1235  0.0467
  160loPI   PO4 2548   0.381  14.370  10.124 -0.0727  0.3501  0.0153
  160loPI   GL1 2549   0.305  14.239   9.639 -0.1221 -0.2405  0.0933
  160loPI   GL2 2550   0.463  14.445   9.465  0.1076  0.0327  0.0124
  160loPI   C1A 2551   0.264  13.941   9.339  0.3112  0.0659 -0.1105
  160loPI   C2A 2552   0.389  13.887   8.889  0.1969 -0.1561 -0.2553
  160loPI   C3A 2553   0.391  13.664   8.416 -0.1838  0.2893 -0.0654
  160loPI   C4A 2554   0.519  13.633   7.884  0.0815  0.0142 -0.0836
  160loPI   C5A 2555   0.459  13.363   7.531 -0.1012 -0.3000 -0.1999
  160loPI   C6A 2556   0.321  13.270   7.123  0.0895  0.1348 -0.1018
  160loPI   C1B 2557   0.368  14.434   9.059 -0.0468 -0.1579 -0.0519
  160loPI   C2B 2558   0.407  14.313   8.678 -0.1262  0.0072  0.2850
  160loPI   C3B 2559   0.344  14.113   8.185 -0.3421  0.1883 -0.1945
  160loPI   C4B 2560   0.262  14.103   7.826  0.0907  0.0670 -0.0558
  161loPI    C1 2561  15.693  11.010  10.039  0.2682 -0.0208  0.0910
  161loPI    C2 2562  15.553  11.029  10.413  0.0018  0.0385 -0.0102
  161loPI    C3 2563  15.587  10.675  10.230  0.2235  0.0000  0.1023
  161loPI   PO4 2564  15.751  11.251   9.931  0.0397 -0.1308  0.2252
  161loPI   GL1 2565  15.806  11.258   9.474  0.0896  0.4303  0.4767
  161loPI   GL2 2566  16.157  11.239   9.442  0.0295  0.0191  0.3180
  161loPI   C1A 2567  15.942  11.547   9.074  0.1959  0.0209 -0.0330
  161loPI   C2A 2568  15.876  11.621   8.621 -0.2272 -0.1843  0.1954
  161loPI   C3A 2569  15.951  11.724   8.206 -0.1399 -0.2178  0.1110
  161loPI   C4A 2570  16.060  11.776   7.715  0.0063 -0.1669 -0.1209
  161loPI   C5A 2571  16.246  12.005   7.455  0.0167  0.3055 -0.0606
  161loPI   C6A 2572  16.481  12.266   7.270 -0.2014  0.1114  0.0989
  161loPI   C1B 2573  16.411  11.188   9.042 -0.2622  0.0987  0.0539
  161loPI   C2B 2574  16.441  10.901   8.648  0.0891 -0.0770 -0.3341
  161loPI   C3B 2575  16.696  10.702   8.565 -0.0284  0.1240  0.0442
  161loPI   C4B 2576  17.031  10.573   8.736 -0.2388  0.0938 -0.1020
  162loPI    C1 2577  18.432  17.637  10.056 -0.2057  0.0814  0.0977
  162loPI    C2 2578  18.159  17.887   9.905 -0.1854 -0.0375 -0.1399
  162loPI    C3 2579  18.482  18.032  10.090 -0.2726  0.1080 -0.1004
  162loPI   PO4 2580  18.428  17.492   9.942  0.1783  0.0632 -0.0339
  162loPI   GL1 2581  18.322  17.509   9.520  0.1827 -0.1390 -0.0540
  162loPI   GL2 2582  18.584  17.446   9.312  0.1509 -0.0821 -0.0456
  162loPI   C1A 2583  17.983  17.413   9.148 -0.1467  0.0138  0.0611
  162loPI   C2A 2584  17.984  17.326   8.621  0.3384 -0.2522 -0.2286
  162loPI   C3A 2585  17.971  17.282   8.210  0.0911  0.0243  0.1639
  162loPI   C4A 2586  17.709  17.068   7.825  0.5016 -0.0582 -0.1403
  162loPI   C5A 2587  17.406  16.800   7.559 -0.1018  0.1314  0.0794
  162loPI   C6A 2588  17.176  17.048   7.233 -0.0977  0.2802 -0.0482
  162loPI   C1B 2589  18.464  17.338   8.891  0.3297 -0.0940  0.0577
  162loPI   C2B 2590  18.531  17.337   8.426 -0.3037  0.0643 -0.1007
  162loPI   C3B 2591  18.372  17.491   7.987  0.2568 -0.2331 -0.2501
  162loPI   C4B 2592  18.094  17.613   7.692 -0.4309 -0.0235 -0.0146
  163loPI    C1 2593   0.209   7.134  10.221 -0.1017 -0.2169 -0.1459
  163loPI    C2 2594   0.132   7.452  10.451  0.2943 -0.2186 -0.0034
  163loPI    C3 2595  -0.119   7.141  10.450  0.0628 -0.0356  0.0890
  163loPI   PO4 2596   0.581   7.024  10.214  0.0132  0.1282  0.3149
  163loPI   GL1 2597   0.636   7.213   9.776 -0.1188  0.1018  0.0358
  163loPI   GL2 2598   0.958   7.142   9.572 -0.1460 -0.0816 -0.0663
  163loPI   C1A 2599   0.526   7.378   9.343 -0.0764 -0.1907 -0.3216
  163loPI   C2A 2600   0.634   7.488   9.001 -0.2390 -0.0910 -0.1897
  163loPI   C3A 2601   0.526   7.258   8.641  0.3004  0.1729  0.0891
  163loPI   C4A 2602   0.248   6.958   8.376 -0.0118  0.3488  0.0642
  163loPI   C5A 2603   0.216   6.822   7.962 -0.0441  0.2644  0.5208
  163loPI   C6A 2604  -0.022   6.961   7.656  0.0004 -0.0551 -0.1988
  163loPI   C1B 2605   1.107   7.295   9.176  0.2726  0.1431  0.0204
  163loPI   C2B 2606   1.255   7.334   8.738 -0.0271 -0.2965 -0.2863
  163loPI   C3B 2607   1.431   7.533   8.357  0.1925  0.1179  0.1372
  163loPI   C4B 2608   1.798   7.688   8.235 -0.1192 -0.2534  0.3291
  164loPI    C1 2609   4.088  19.040   9.374  0.0653 -0.0415  0.0618
  164loPI    C2 2610   4.184  19.260   9.694 -0.1492 -0.0383  0.1252
  164loPI    C3 2611   4.008  18.903   9.741  0.1491 -0.2024  0.0209
  164loPI   PO4 2612   4.129  19.196   9.093 -0.0441  0.1182  0.1894
  164loPI   GL1 2613   3.955  19.158   8.707 -0.0646  0.2802  0.1316
  164loPI   GL2 2614   3.615  18.980   8.956 -0.1374 -0.2662  0.0390
  164loPI   C1A 2615   3.794  19.278   8.307 -0.2252  0.0676  0.0624
  164loPI   C2A 2616   3.643  19.157   7.886 -0.3426  0.0832  0.0686
  164loPI   C3A 2617   3.650  19.353   7.474  0.3001  0.0058 -0.1661
  164loPI   C4A 2618   4.027  19.555   7.278  0.3064 -0.1871 -0.0489
  164loPI   C5A 2619   4.420  19.599   6.928  0.1880  0.0496 -0.1640
  164loPI   C6A 2620   4.836  19.472   6.850  0.2315 -0.0126  0.0870
  164loPI   C1B 2621   3.449  18.981   8.580  0.0493  0.0052  0.1367
  164loPI   C2B 2622   3.234  18.930   8.172  0.0628 -0.1088  0.1548
  164loPI   C3B 2623   3.151  18.810   7.750 -0.0962 -0.1013 -0.0529
  164loPI   C4B 2624   3.314  18.939   7.352  0.0977  0.3735 -0.0887
  165loPI    C1 2625  17.029   8.741   9.441 -0.0491 -0.1295  0.1253
  165loPI    C2 2626  17.196   8.711   9.804  0.0592 -0.0763  0.0806
  165loPI    C3 2627  17.155   9.070   9.632 -0.2031 -0.0767  0.1376
  165loPI   PO4 2628  17.153   8.437   9.335  0.0797 -0.2836  0.3901
  165loPI   GL1 2629  17.075   8.372   8.920 -0.1665 -0.0316 -0.0254
  165loPI   GL2 2630  16.836   8.343   8.749  0.0738  0.2451  0.1035
  165loPI   C1A 2631  17.454   8.215   8.810  0.0378  0.0383  0.0316
  165loPI   C2A 2632  17.584   8.001   8.484 -0.2069  0.0459  0.2810
  165loPI   C3A 2633  17.370   7.918   8.125 -0.1576  0.1641 -0.0012
  165loPI   C4A 2634  17.116   8.068   7.881  0.2828  0.1877  0.2487
  165loPI   C5A 2635  17.039   8.293   7.539 -0.4302  0.2624  0.3370
  165loPI   C6A 2636  16.874   8.501   7.364  0.1508 -0.2091  0.1097
  165loPI   C1B 2637  17.141   8.273   8.427 -0.0938 -0.0675  0.2368
  165loPI   C2B 2638  17.502   8.358   8.050  0.0463 -0.2083  0.0717
  165loPI   C3B 2639  17.605   8.166   7.604 -0.2587  0.1209  0.0508
  165loPI   C4B 2640  17.672   7.969   7.283 -0.1902  0.0480 -0.2817
  166loPI    C1 2641   1.566   9.037  10.204 -0.0256  0.1841  0.1895
  166loPI    C2 2642   1.645   8.765  10.486  0.0563  0.2442  0.2247
  166loPI    C3 2643   1.900   8.817  10.183 -0.0709  0.1233  0.0956
  166loPI   PO4 2644   1.288   8.949  10.186 -0.0303  0.1380  0.2772
  166loPI   GL1 2645   0.964   8.963   9.845  0.0702  0.0190 -0.2345
  166loPI   GL2 2646   1.127   9.151   9.723 -0.0491  0.0969 -0.1237
  166loPI   C1A 2647   0.757   8.873   9.506  0.0109  0.0984  0.1007
  166loPI   C2A 2648   0.710   8.956   9.090  0.1239  0.3584 -0.0346
  166loPI   C3A 2649   0.684   8.723   8.771  0.1849 -0.4165  0.1090
  166loPI   C4A 2650   0.536   8.496   8.444  0.2454 -0.2477  0.0946
  166loPI   C5A 2651   0.322   8.499   8.082 -0.2448 -0.0726  0.1604
  166loPI   C6A 2652   0.493   8.336   7.763 -0.0417 -0.0346 -0.2674
  166loPI   C1B 2653   0.887   9.315   9.320  0.1905  0.1828 -0.1004
  166loPI   C2B 2654   0.876   9.420   8.872  0.0545  0.2016  0.1775
  166loPI   C3B 2655   0.857   9.229   8.512 -0.1015 -0.1092 -0.0708
  166loPI   C4B 2656   0.590   8.932   8.297 -0.1164 -0.2534 -0.3771
  167loPI    C1 2657  11.117   1.096  10.172  0.0579  0.0023  0.0955
  167loPI    C2 2658  10.800   1.330  10.107  0.1087 -0.0133 -0.2274
  167loPI    C3 2659  10.773   1.024  10.363 -0.1005  0.0568 -0.1632
  167loPI   PO4 2660  11.182   1.074   9.821  0.1443  0.2997  0.1270
  167loPI   GL1 2661  11.521   0.865   9.499 -0.0578  0.1375 -0.0506
  167loPI   GL2 2662  11.754   0.639   9.632  0.1227  0.0624  0.0068
  167loPI   C1A 2663  11.718   0.752   9.131 -0.0397 -0.1170  0.0617
  167loPI   C2A 2664  11.922   0.481   8.900 -0.3478 -0.1039 -0.0380
  167loPI   C3A 2665  11.970   0.504   8.568  0.0221 -0.4021  0.0455
  167loPI   C4A 2666  11.951   0.536   8.071  0.1616  0.1928  0.1696
  167loPI   C5A 2667  11.738   0.493   7.729 -0.0542 -0.1059  0.0577
  167loPI   C6A 2668  11.729  -0.015   7.654  0.0917  0.0697  0.0116
  167loPI   C1B 2669  11.816   0.340   9.342  0.1662  0.0631  0.1764
  167loPI   C2B 2670  11.563   0.171   9.063 -0.1437  0.0300 -0.0098
  167loPI   C3B 2671  11.115   0.166   8.990  0.3048  0.0542  0.2711
  167loPI   C4B 2672  10.842   0.050   9.256 -0.2664  0.1183  0.1378
  168loPI    C1 2673   9.413   6.166  10.192 -0.1171  0.3118 -0.1959
  168loPI    C2 2674   9.548   6.481  10.399  0.3050  0.0092  0.0077
  168loPI    C3 2675   9.439   6.148  10.591 -0.1972  0.0441 -0.2008
  168loPI   PO4 2676   9.531   6.188  10.002 -0.0186  0.0974 -0.3675
  168loPI   GL1 2677   9.451   6.255   9.605  0.0411  0.2164 -0.0404
  168loPI   GL2 2678   9.423   6.039   9.320 -0.1204  0.0665 -0.2324
  168loPI   C1A 2679   9.276   6.498   9.211  0.1156 -0.1707 -0.1322
  168loPI   C2A 2680   9.256   6.338   8.790 -0.0180  0.1653  0.1683
  168loPI   C3A 2681   8.973   6.225   8.524  0.3439 -0.5320  0.2144
  168loPI   C4A 2682   8.891   6.192   8.097  0.1777  0.2222 -0.2438
  168loPI   C5A 2683   8.954   6.238   7.634  0.4015  0.1543 -0.0585
  168loPI   C6A 2684   8.888   6.148   7.160  0.0570  0.1182  0.0947
  168loPI   C1B 2685   9.274   5.674   9.013  0.0128  0.1285  0.1974
  168loPI   C2B 2686   9.070   5.759   8.679  0.4695  0.0347 -0.0851
  168loPI   C3B 2687   8.802   5.743   8.313  0.0809  0.2039 -0.0064
  168loPI   C4B 2688   8.658   5.826   7.853  0.0954  0.1477 -0.4217
  169loPI    C1 2689   1.725   0.443   9.838  0.1757  0.0550 -0.1281
  169loPI    C2 2690   1.555   0.088   9.909  0.0033  0.0811 -0.3970
  169loPI    C3 2691   1.542   0.375  10.187  0.1555 -0.1255 -0.1728
  169loPI   PO4 2692   1.663   0.580   9.645 -0.1286  0.2266 -0.4622
  169loPI   GL1 2693   1.831   0.879   9.278 -0.1564  0.0980  0.0138
  169loPI   GL2 2694   1.918   0.576   9.074 -0.4760 -0.1272  0.0997
  169loPI   C1A 2695   1.882   1.047   8.815  0.1601 -0.0211  0.3077
  169loPI   C2A 2696   1.863   1.015   8.331 -0.1160 -0.3278 -0.3627
  169loPI   C3A 2697   1.893   1.014   7.916 -0.0839 -0.0721 -0.4604
  169loPI   C4A 2698   1.898   1.183   7.512  0.2054 -0.1304 -0.0104
  169loPI   C5A 2699   1.868   1.553   7.338 -0.0853  0.2946  0.0052
  169loPI   C6A 2700   1.754   1.904   7.048 -0.0494  0.2338  0.2189
  169loPI   C1B 2701   1.884   0.625   8.645 -0.1141  0.0979  0.2769
  169loPI   C2B 2702   2.041   0.565   8.244 -0.2968  0.1783  0.1632
  169loPI   C3B 2703   2.070   0.547   7.890  0.4535 -0.3186  0.2606
  169loPI   C4B 2704   2.357   0.893   7.592 -0.0943 -0.0424  0.1990
  170loPI    C1 2705   7.336   9.982  10.060  0.1702  0.3720  0.0317
  170loPI    C2 2706   7.050  10.060  10.329 -0.1087 -0.2082 -0.0811
  170loPI    C3 2707   7.416   9.951  10.451 -0.1064 -0.0437  0.0624
  170loPI   PO4 2708   7.203   9.882   9.889 -0.3516  0.1222  0.0461
  170loPI   GL1 2709   7.238   9.853   9.357 -0.3496  0.0307 -0.4569
  170loPI   GL2 2710   6.981   9.570   9.448  0.0464 -0.1006  0.1480
  170loPI   C1A 2711   7.097  10.063   8.994 -0.4612  0.0178  0.0204
  170loPI   C2A 2712   7.085   9.997   8.439 -0.0518 -0.0809  0.1762
  170loPI   C3A 2713   6.934   9.779   8.140 -0.1276  0.2501  0.2128
  170loPI   C4A 2714   6.810   9.623   7.646 -0.0423 -0.0454 -0.1115
  170loPI   C5A 2715   6.806   9.629   7.156 -0.2355 -0.3157 -0.2337
  170loPI   C6A 2716   7.232   9.611   7.107 -0.0468 -0.3783 -0.0438
  170loPI   C1B 2717   6.981   9.573   9.006 -0.3560  0.2131 -0.0866
  170loPI   C2B 2718   6.875   9.421   8.617  0.0356 -0.1317 -0.1721
  170loPI   C3B 2719   6.529   9.435   8.290  0.1413  0.0868 -0.0275
  170loPI   C4B 2720   6.436   9.293   7.879  0.1305 -0.0455  0.1973
  171loPI    C1 2721  16.773   2.315   9.596  0.2070 -0.1418 -0.0029
  171loPI    C2 2722  16.902   2.658   9.757  0.2119 -0.0193 -0.2618
  171loPI    C3 2723  16.665   2.413   9.968  0.4108  0.0222  0.0147
  171loPI   PO4 2724  16.764   2.403   9.300 -0.0835  0.2008  0.0971
  171loPI   GL1 2725  16.814   2.089   9.031  0.0042  0.0768 -0.1270
  171loPI   GL2 2726  16.449   2.105   9.031  0.0608  0.4041 -0.3317
  171loPI   C1A 2727  16.880   2.237   8.623 -0.0338  0.0161 -0.0507
  171loPI   C2A 2728  16.937   2.221   8.187 -0.1374 -0.3113 -0.1420
  171loPI   C3A 2729  16.942   2.211   7.759  0.3290 -0.0853 -0.2630
  171loPI   C4A 2730  16.761   2.322   7.472 -0.0239  0.1190  0.0058
  171loPI   C5A 2731  16.803   2.612   7.130  0.0942  0.0855 -0.1271
  171loPI   C6A 2732  16.512   2.791   6.932 -0.0878  0.1491  0.2170
  171loPI   C1B 2733  16.444   2.123   8.509  0.3831  0.1100  0.0574
  171loPI   C2B 2734  16.443   2.154   8.042  0.0138  0.3097  0.0193
  171loPI   C3B 2735  16.366   2.133   7.652  0.0178  0.0199  0.1863
  171loPI   C4B 2736  16.054   1.912   7.561  0.0118 -0.2132 -0.0597
  172loPI    C1 2737   7.539  18.553   9.587  0.1042 -0.0994 -0.0776
  172loPI    C2 2738   7.346  18.803   9.833 -0.0017 -0.1642 -0.0943
  172loPI    C3 2739   7.450  18.438   9.959  0.2312 -0.0812 -0.0412
  172loPI   PO4 2740   7.684  18.782   9.402 -0.0839 -0.0665  0.1184
  172loPI   GL1 2741   7.809  18.836   9.088 -0.2771  0.2236  0.1676
  172loPI   GL2 2742   7.452  18.905   8.970 -0.2333 -0.0879 -0.2093
  172loPI   C1A 2743   7.918  18.580   8.777 -0.0793 -0.3412  0.2925
  172loPI   C2A 2744   8.008  18.579   8.333  0.0226 -0.1883 -0.1308
  172loPI   C3A 2745   7.819  18.358   8.000 -0.0929  0.1141  0.0783
  172loPI   C4A 2746   7.641  18.203   7.605 -0.1610 -0.4218 -0.2756
  172loPI   C5A 2747   7.663  17.931   7.066  0.1578  0.0185 -0.1242
  172loPI   C6A 2748   7.748  17.692   6.772 -0.3390  0.2142  0.0068
  172loPI   C1B 2749   7.603  18.895   8.536  0.0132  0.0633 -0.5006
  172loPI   C2B 2750   7.628  18.786   8.039  0.1070  0.0684 -0.2702
  172loPI   C3B 2751   7.480  18.789   7.576 -0.1318  0.2183 -0.1243
  172loPI   C4B 2752   7.520  18.899   7.128  0.1423 -0.0511  0.2260
  173loPI    C1 2753  16.600   3.524   9.671  0.0636  0.1473  0.4925
  173loPI    C2 2754  16.974   3.659   9.716  0.1209  0.2593 -0.2080
  173loPI    C3 2755  16.902   3.266   9.718  0.1976  0.2431  0.1846
  173loPI   PO4 2756  16.534   3.537   9.452 -0.0543  0.1230  0.0888
  173loPI   GL1 2757  16.591   3.421   8.973  0.1882  0.1243 -0.2040
  173loPI   GL2 2758  16.862   3.309   8.986  0.0245 -0.1208 -0.0973
  173loPI   C1A 2759  16.363   3.588   8.675 -0.1480  0.0945  0.0768
  173loPI   C2A 2760  16.392   3.551   8.193  0.2069 -0.0807 -0.3264
  173loPI   C3A 2761  16.347   3.610   7.750 -0.2973 -0.0694  0.2045
  173loPI   C4A 2762  16.245   3.580   7.355 -0.0712  0.1048  0.1910
  173loPI   C5A 2763  16.036   3.537   6.941 -0.0781  0.2363  0.2053
  173loPI   C6A 2764  15.804   3.715   6.636 -0.0218  0.0974 -0.3563
  173loPI   C1B 2765  17.191   3.300   8.677  0.2040 -0.0399  0.2369
  173loPI   C2B 2766  17.197   3.192   8.245  0.1547 -0.0917  0.3276
  173loPI   C3B 2767  17.112   3.195   7.778 -0.3392 -0.1382 -0.1649
  173loPI   C4B 2768  17.405   3.144   7.371 -0.0909  0.2748 -0.4623
  174loPI    C1 2769   1.248  13.437  10.341 -0.0977  0.0438 -0.1620
  174loPI    C2 2770   0.887  13.606  10.373 -0.0337  0.1674 -0.0830
  174loPI    C3 2771   1.099  13.523  10.702 -0.0153  0.0393 -0.1265
  174loPI   PO4 2772   1.351  13.526  10.048  0.2436  0.0416 -0.0749
  174loPI   GL1 2773   1.364  13.304   9.638 -0.1194 -0.0455 -0.0594
  174loPI   GL2 2774   1.648  13.546   9.544 -0.2127 -0.1130 -0.0670
  174loPI   C1A 2775   1.191  13.233   9.255  0.1691  0.2760 -0.0646
  174loPI   C2A 2776   0.997  13.113   8.812  0.0016 -0.0362  0.0316
  174loPI   C3A 2777   0.737  12.914   8.503 -0.3924  0.5608 -0.0011
  174loPI   C4A 2778   0.280  13.084   8.440 -0.2232 -0.2365  0.0995
  174loPI   C5A 2779   0.095  13.453   8.097 -0.1495  0.0056 -0.0680
  174loPI   C6A 2780   0.009  13.596   7.673 -0.2314 -0.1005 -0.1288
  174loPI   C1B 2781   1.644  13.694   9.183 -0.1325  0.0725  0.0557
  174loPI   C2B 2782   1.700  13.749   8.707 -0.2554  0.0374 -0.0470
  174loPI   C3B 2783   1.693  13.558   8.301 -0.1082  0.3345 -0.1253
  174loPI   C4B 2784   1.737  13.326   7.914  0.0536 -0.0486  0.0431
  175loPI    C1 2785   1.115   4.251   9.349  0.0380 -0.4103  0.0146
  175loPI    C2 2786   1.336   4.232   9.682 -0.0724 -0.0444  0.1144
  175loPI    C3 2787   0.954   4.113   9.688  0.0447 -0.4446  0.0039
  175loPI   PO4 2788   1.183   4.119   9.218  0.0643  0.2893  0.1062
  175loPI   GL1 2789   1.458   4.148   8.913 -0.1843 -0.2324 -0.2676
  175loPI   GL2 2790   1.740   4.268   8.856 -0.0068 -0.0324  0.2552
  175loPI   C1A 2791   1.408   4.038   8.504 -0.0240 -0.2482  0.1740
  175loPI   C2A 2792   1.506   4.058   8.112  0.0062 -0.2269  0.1850
  175loPI   C3A 2793   1.254   4.112   7.726 -0.1061  0.1454  0.0009
  175loPI   C4A 2794   1.134   4.011   7.330 -0.0099  0.1211 -0.1126
  175loPI   C5A 2795   1.056   4.200   6.884  0.0092  0.0747  0.0504
  175loPI   C6A 2796   0.789   4.118   6.568 -0.1903  0.4817  0.1564
  175loPI   C1B 2797   1.789   4.374   8.355 -0.5724  0.0281 -0.1173
  175loPI   C2B 2798   1.815   4.320   7.880  0.0365 -0.1441  0.0082
  175loPI   C3B 2799   1.878   4.139   7.490  0.0730  0.0437  0.2565
  175loPI   C4B 2800   2.040   3.867   7.143 -0.0438  0.1018  0.1707
  176loPI    C1 2801   1.792  11.347  10.597  0.0938  0.1004 -0.0122
  176loPI    C2 2802   1.686  11.728  10.659 -0.1859  0.0381 -0.0925
  176loPI    C3 2803   1.918  11.539  10.925  0.0215  0.2874 -0.0924
  176loPI   PO4 2804   1.823  11.365  10.339  0.0626  0.0058  0.1451
  176loPI   GL1 2805   1.981  11.412   9.877  0.3101  0.3337  0.1760
  176loPI   GL2 2806   1.994  11.054   9.903  0.3647  0.2362  0.0622
  176loPI   C1A 2807   1.822  11.235   9.467  0.3321 -0.1221 -0.1428
  176loPI   C2A 2808   1.860  10.957   9.173  0.3025  0.0470  0.0428
  176loPI   C3A 2809   1.643  10.736   8.913 -0.5621  0.0002  0.0005
  176loPI   C4A 2810   1.547  10.709   8.594 -0.2258 -0.1798  0.1748
  176loPI   C5A 2811   1.411  10.790   8.202 -0.0133  0.0052 -0.2265
  176loPI   C6A 2812   1.518  10.892   7.812  0.1151 -0.1272 -0.0979
  176loPI   C1B 2813   2.244  10.946   9.479 -0.0246 -0.2676 -0.0455
  176loPI   C2B 2814   2.317  10.755   9.170  0.3059  0.4039 -0.1565
  176loPI   C3B 2815   2.127  10.494   9.068 -0.2422  0.0114  0.0699
  176loPI   C4B 2816   1.852  10.348   8.753 -0.0281  0.2131 -0.1436
  177loPI    C1 2817  14.175  13.300  10.152  0.1937 -0.1974  0.1642
  177loPI    C2 2818  13.922  13.601  10.223  0.2042 -0.1354 -0.0531
  177loPI    C3 2819  14.215  13.520  10.483  0.3309  0.1772 -0.0944
  177loPI   PO4 2820  14.002  13.211   9.985 -0.0904  0.1098  0.1570
  177loPI   GL1 2821  13.906  13.005   9.609 -0.3178 -0.0875 -0.1320
  177loPI   GL2 2822  13.637  13.069   9.449 -0.3867 -0.3029 -0.0067
  177loPI   C1A 2823  14.135  13.038   9.253  0.1821 -0.1763 -0.2737
  177loPI   C2A 2824  14.319  13.067   8.893 -0.1330  0.1158  0.3057
  177loPI   C3A 2825  14.332  12.988   8.403 -0.0751  0.0199  0.1969
  177loPI   C4A 2826  14.462  13.133   8.039 -0.0894  0.4075  0.0798
  177loPI   C5A 2827  14.666  13.157   7.656  0.2714  0.0029  0.1508
  177loPI   C6A 2828  15.114  13.054   7.626 -0.0332  0.2280 -0.4187
  177loPI   C1B 2829  13.674  13.066   9.059  0.2830 -0.0869 -0.2655
  177loPI   C2B 2830  13.737  13.037   8.688  0.1421 -0.1822 -0.2657
  177loPI   C3B 2831  13.723  12.996   8.254 -0.2419  0.0024 -0.2047
  177loPI   C4B 2832  13.982  12.942   7.841 -0.3645  0.1791  0.3027
  178loPI    C1 2833   2.417   8.566  10.215 -0.1250 -0.1477  0.2452
  178loPI    C2 2834   2.515   8.948  10.287 -0.2076 -0.0713 -0.0367
  178loPI    C3 2835   2.756   8.653  10.408 -0.0323  0.0802 -0.0134
  178loPI   PO4 2836   2.342   8.626   9.925 -0.1742 -0.1139  0.2147
  178loPI   GL1 2837   2.567   8.490   9.586  0.0670 -0.1029  0.4043
  178loPI   GL2 2838   2.294   8.326   9.428  0.1735  0.1434 -0.0684
  178loPI   C1A 2839   2.699   8.557   9.224 -0.1163  0.2099 -0.0197
  178loPI   C2A 2840   2.765   8.584   8.850  0.0495  0.1649  0.2085
  178loPI   C3A 2841   2.709   8.639   8.411  0.0109  0.4561  0.2414
  178loPI   C4A 2842   2.876   8.736   7.998 -0.1259 -0.0636  0.1592
  178loPI   C5A 2843   3.033   8.913   7.659 -0.2398  0.1809  0.0946
  178loPI   C6A 2844   2.995   8.723   7.301 -0.1971 -0.0464  0.1341
  178loPI   C1B 2845   2.244   8.441   9.042  0.2065 -0.1951  0.1421
  178loPI   C2B 2846   2.238   8.574   8.508 -0.0515  0.2035 -0.1701
  178loPI   C3B 2847   2.240   8.519   8.110  0.0291  0.1236  0.3125
  178loPI   C4B 2848   2.235   8.114   7.769  0.0513 -0.0574  0.1905
  179loPI    C1 2849   7.361  13.052   9.465  0.0612  0.0494 -0.0527
  179loPI    C2 2850   7.026  12.931   9.647 -0.0422  0.2376 -0.1153
  179loPI    C3 2851   7.382  12.866   9.819 -0.1252  0.2320  0.0568
  179loPI   PO4 2852   7.225  13.272   9.369 -0.1599  0.0284  0.0957
  179loPI   GL1 2853   6.974  13.322   8.975  0.1462  0.0801  0.2167
  179loPI   GL2 2854   7.133  13.723   8.998 -0.2381  0.2385 -0.5102
  179loPI   C1A 2855   6.883  13.419   8.517  0.1134 -0.2120  0.0338
  179loPI   C2A 2856   6.920  13.371   8.081  0.0492 -0.1289 -0.1874
  179loPI   C3A 2857   6.657  13.553   7.793 -0.2768 -0.0870  0.0014
  179loPI   C4A 2858   6.266  13.679   7.655 -0.2774 -0.1911 -0.1070
  179loPI   C5A 2859   6.017  13.449   7.420 -0.1477 -0.0825  0.0271
  179loPI   C6A 2860   5.596  13.257   7.476 -0.1089  0.2604 -0.0245
  179loPI   C1B 2861   7.116  13.879   8.536  0.3202  0.0140 -0.0923
  179loPI   C2B 2862   7.069  13.833   8.175  0.2321  0.2567  0.1941
  179loPI   C3B 2863   7.122  13.758   7.741  0.1064  0.1549 -0.0887
  179loPI   C4B 2864   7.429  13.664   7.445  0.1745 -0.4159 -0.0077
  180loPI    C1 2865   5.194   1.030   9.374  0.0945 -0.1943 -0.1025
  180loPI    C2 2866   4.868   1.161   9.182  0.3295  0.0849 -0.3200
  180loPI    C3 2867   4.903   1.214   9.577  0.1086  0.0445 -0.2939
  180loPI   PO4 2868   5.326   0.804   9.140 -0.0958 -0.2090 -0.1307
  180loPI   GL1 2869   5.598   0.863   8.710 -0.0648 -0.1772 -0.0644
  180loPI   GL2 2870   5.555   0.572   8.747  0.0602  0.1823 -0.2111
  180loPI   C1A 2871   5.474   1.139   8.374 -0.1068 -0.1362 -0.0900
  180loPI   C2A 2872   5.481   1.058   7.894  0.2292  0.4468  0.0195
  180loPI   C3A 2873   5.318   0.862   7.469 -0.0594  0.4797 -0.0697
  180loPI   C4A 2874   5.401   0.518   7.135 -0.2890 -0.0001  0.0350
  180loPI   C5A 2875   5.556   0.308   6.724  0.0221  0.0034 -0.0729
  180loPI   C6A 2876   5.978   0.418   6.639 -0.0614 -0.1583  0.2688
  180loPI   C1B 2877   5.733   0.672   8.197 -0.3808 -0.2924  0.2360
  180loPI   C2B 2878   5.692   0.571   7.818  0.1264  0.0033  0.0780
  180loPI   C3B 2879   5.918   0.659   7.409 -0.1770  0.0062 -0.2879
  180loPI   C4B 2880   5.882   0.764   7.022  0.2992  0.0924 -0.2836
  181loPI    C1 2881  11.108  13.773  10.014 -0.1500 -0.1106  0.1453
  181loPI    C2 2882  11.503  13.761  10.075 -0.1083  0.0493 -0.0826
  181loPI    C3 2883  11.256  13.576  10.329  0.1098 -0.0146  0.0859
  181loPI   PO4 2884  11.132  13.710   9.743 -0.0839  0.0088  0.0617
  181loPI   GL1 2885  11.228  13.456   9.382  0.2082  0.1007 -0.3370
  181loPI   GL2 2886  11.242  13.185   9.221 -0.0692  0.0598 -0.1858
  181loPI   C1A 2887  10.996  13.630   8.970 -0.2412  0.1719  0.2094
  181loPI   C2A 2888  11.138  13.542   8.513  0.1479  0.1123  0.2085
  181loPI   C3A 2889  11.167  13.523   8.081  0.1164  0.1496  0.4414
  181loPI   C4A 2890  10.769  13.458   7.725 -0.3653 -0.0193  0.2033
  181loPI   C5A 2891  10.431  13.345   7.359  0.0062  0.1530  0.0708
  181loPI   C6A 2892  10.061  13.125   7.330  0.0451  0.0688 -0.0972
  181loPI   C1B 2893  11.074  13.058   8.745 -0.1910  0.2454 -0.3105
  181loPI   C2B 2894  11.127  13.068   8.360 -0.1036 -0.2252 -0.1818
  181loPI   C3B 2895  11.275  12.827   8.024 -0.0889 -0.4469 -0.2160
  181loPI   C4B 2896  11.099  12.557   7.841 -0.2087 -0.0225 -0.4274
  182loPI    C1 2897   6.750   9.712  10.151  0.0762  0.1747 -0.0306
  182loPI    C2 2898   6.917   9.449   9.901 -0.0059  0.2687 -0.1866
  182loPI    C3 2899   7.100   9.543  10.244  0.0227  0.0081 -0.1279
  182loPI   PO4 2900   6.597   9.862   9.954 -0.1888  0.0746  0.2126
  182loPI   GL1 2901   6.247   9.692   9.694 -0.2330  0.2224 -0.0147
  182loPI   GL2 2902   6.505   9.459   9.518 -0.2224  0.2304 -0.1486
  182loPI   C1A 2903   6.062   9.670   9.324 -0.0334  0.0027  0.1504
  182loPI   C2A 2904   6.081   9.421   8.977 -0.0655 -0.0589  0.1799
  182loPI   C3A 2905   6.271   9.304   8.738 -0.0916  0.1133 -0.0153
  182loPI   C4A 2906   6.116   9.111   8.384 -0.0367  0.1641 -0.1675
  182loPI   C5A 2907   6.143   8.864   7.874  0.0162 -0.1502 -0.1063
  182loPI   C6A 2908   5.841   8.662   7.757 -0.0940  0.0806  0.3344
  182loPI   C1B 2909   6.566   9.276   9.144  0.2809 -0.0374  0.2231
  182loPI   C2B 2910   6.710   9.037   8.865 -0.1100  0.0945 -0.2604
  182loPI   C3B 2911   6.670   8.972   8.421 -0.0205 -0.0226 -0.0780
  182loPI   C4B 2912   6.661   8.886   8.101  0.3250  0.3518  0.0197
  183loPI    C1 2913   8.059   6.939  10.136  0.1392 -0.0671 -0.1255
  183loPI    C2 2914   8.174   6.673  10.412  0.3019 -0.0140 -0.1410
  183loPI    C3 2915   8.323   7.044  10.417  0.0188  0.1014 -0.0740
  183loPI   PO4 2916   8.084   6.853   9.891 -0.2293 -0.0683 -0.2472
  183loPI   GL1 2917   8.080   6.725   9.467 -0.1941 -0.2819 -0.2809
  183loPI   GL2 2918   8.484   6.857   9.543  0.1011  0.0500  0.3775
  183loPI   C1A 2919   7.938   6.492   9.111 -0.1734  0.0509 -0.2793
  183loPI   C2A 2920   8.028   6.305   8.713 -0.1105  0.1868 -0.1190
  183loPI   C3A 2921   7.932   6.032   8.402  0.1024 -0.1484  0.1688
  183loPI   C4A 2922   7.718   5.886   8.060 -0.1699 -0.1946 -0.1079
  183loPI   C5A 2923   7.358   5.730   7.668 -0.1250 -0.0286 -0.1463
  183loPI   C6A 2924   7.127   5.870   7.257 -0.3494  0.1095  0.1035
  183loPI   C1B 2925   8.793   6.641   9.262  0.0553  0.0264 -0.0922
  183loPI   C2B 2926   8.862   6.587   8.927  0.0042  0.0524  0.0180
  183loPI   C3B 2927   8.509   6.463   8.586 -0.3824 -0.0153 -0.0103
  183loPI   C4B 2928   8.126   6.463   8.197  0.1393  0.0012 -0.0794
  184loPI    C1 2929  10.442  13.821   9.886 -0.1632  0.2034 -0.0980
  184loPI    C2 2930  10.354  13.597  10.206  0.0586 -0.0816 -0.2318
  184loPI    C3 2931  10.638  13.878  10.231 -0.1571  0.1271 -0.0885
  184loPI   PO4 2932  10.437  13.702   9.692 -0.0385  0.1638  0.1600
  184loPI   GL1 2933  10.727  13.685   9.429 -0.0621 -0.0431 -0.3159
  184loPI   GL2 2934  10.886  13.935   9.284 -0.0189 -0.0843 -0.0770
  184loPI   C1A 2935  10.483  13.672   9.034 -0.1523  0.1997 -0.0086
  184loPI   C2A 2936  10.600  13.629   8.561 -0.2560 -0.2073 -0.1959
  184loPI   C3A 2937  10.643  13.388   8.238 -0.2923  0.2213 -0.1980
  184loPI   C4A 2938  10.843  13.065   7.954 -0.0729  0.1272  0.2278
  184loPI   C5A 2939  10.735  12.977   7.647  0.1169 -0.0077  0.4291
  184loPI   C6A 2940  10.425  12.670   7.437 -0.0051  0.0852  0.1888
  184loPI   C1B 2941  10.954  14.127   8.816  0.1962  0.0794  0.0778
  184loPI   C2B 2942  10.996  14.041   8.440 -0.1878  0.0888 -0.4182
  184loPI   C3B 2943  11.198  14.084   8.044  0.4058 -0.1897  0.0609
  184loPI   C4B 2944  11.093  14.136   7.632  0.0684 -0.0831 -0.0400
  185loPI    C1 2945  11.620  13.068   9.669 -0.0490  0.1331 -0.0886
  185loPI    C2 2946  11.671  13.317   9.977 -0.0175 -0.1330  0.1249
  185loPI    C3 2947  11.309  13.276   9.811  0.0280  0.2416 -0.0781
  185loPI   PO4 2948  11.730  13.114   9.519  0.1938 -0.0134  0.0183
  185loPI   GL1 2949  11.902  13.174   9.111  0.3440 -0.1298 -0.0636
  185loPI   GL2 2950  11.657  13.434   9.117 -0.1502 -0.0692  0.0994
  185loPI   C1A 2951  12.017  13.196   8.634  0.1708  0.1645 -0.1242
  185loPI   C2A 2952  12.216  13.060   8.205  0.0052 -0.2048  0.1687
  185loPI   C3A 2953  12.167  13.134   7.762 -0.2328 -0.2149  0.2466
  185loPI   C4A 2954  12.071  13.359   7.435  0.0723 -0.0034  0.0650
  185loPI   C5A 2955  11.906  13.654   7.372  0.1873  0.0903 -0.1512
  185loPI   C6A 2956  11.718  14.120   7.384 -0.4123  0.0696 -0.0856
  185loPI   C1B 2957  11.544  13.297   8.726  0.2148 -0.1417  0.2596
  185loPI   C2B 2958  11.582  13.288   8.295 -0.0631 -0.0981 -0.1374
  185loPI   C3B 2959  11.629  13.371   7.909  0.0975  0.1460  0.0318
  185loPI   C4B 2960  11.437  13.201   7.576 -0.1110 -0.0768  0.2970
  186loPI    C1 2961   8.623  10.278   9.892  0.0451 -0.0050  0.0277
  186loPI    C2 2962   8.560  10.039  10.206  0.2033  0.0712  0.1187
  186loPI    C3 2963   8.266  10.273  10.071  0.2200  0.2570  0.3964
  186loPI   PO4 2964   8.717  10.020   9.703 -0.0877 -0.2597  0.2523
  186loPI   GL1 2965   8.948   9.892   9.358 -0.1878  0.1284  0.0639
  186loPI   GL2 2966   8.625   9.911   9.214 -0.1857  0.0572 -0.0629
  186loPI   C1A 2967   9.082   9.932   8.966 -0.0663 -0.1574  0.0864
  186loPI   C2A 2968   8.988   9.743   8.549 -0.4049  0.2836  0.1540
  186loPI   C3A 2969   9.017   9.573   8.064  0.1832  0.1247  0.1275
  186loPI   C4A 2970   8.998   9.726   7.579 -0.4112  0.0061 -0.0513
  186loPI   C5A 2971   9.098   9.616   7.123 -0.1143  0.0189 -0.5378
  186loPI   C6A 2972   9.406   9.744   6.821 -0.0177  0.0545  0.3887
  186loPI   C1B 2973   8.525   9.873   8.839 -0.1124  0.1246 -0.1578
  186loPI   C2B 2974   8.366  10.183   8.516 -0.0664  0.3081  0.0174
  186loPI   C3B 2975   8.407  10.352   8.170 -0.1379  0.3597 -0.1247
  186loPI   C4B 2976   8.345  10.729   7.862 -0.1319 -0.2402  0.1173
  187loPI    C1 2977   1.495  12.309  10.338  0.0015 -0.0293 -0.0196
  187loPI    C2 2978   1.831  12.297  10.554  0.0048  0.1863 -0.0102
  187loPI    C3 2979   1.482  12.197  10.721  0.0359  0.1559  0.0369
  187loPI   PO4 2980   1.532  12.562  10.242 -0.0618  0.0594 -0.1660
  187loPI   GL1 2981   1.568  12.551   9.760  0.0926 -0.0724  0.1906
  187loPI   GL2 2982   1.415  12.719   9.448 -0.1011 -0.1071 -0.3133
  187loPI   C1A 2983   1.609  12.258   9.448 -0.3317 -0.2064  0.1359
  187loPI   C2A 2984   1.738  12.225   8.988 -0.3051 -0.0462  0.0503
  187loPI   C3A 2985   1.751  12.155   8.529 -0.0582  0.0499  0.0008
  187loPI   C4A 2986   1.767  11.877   8.203 -0.6036 -0.0889  0.3198
  187loPI   C5A 2987   1.977  11.615   7.794 -0.1324 -0.1756 -0.1097
  187loPI   C6A 2988   2.106  11.628   7.406 -0.1726 -0.0124 -0.0631
  187loPI   C1B 2989   1.481  12.701   9.108 -0.2806  0.1877 -0.1025
  187loPI   C2B 2990   1.442  12.608   8.757 -0.0244 -0.1244  0.1159
  187loPI   C3B 2991   1.520  12.541   8.215  0.2668  0.0754  0.0449
  187loPI   C4B 2992   1.201  12.589   7.799 -0.0754  0.0605  0.0749
  188loPI    C1 2993  11.322  16.188  10.018  0.0809 -0.4279 -0.1369
  188loPI    C2 2994  11.341  16.072  10.400 -0.0333 -0.2292 -0.0692
  188loPI    C3 2995  10.988  16.167  10.238  0.0465 -0.0637 -0.1481
  188loPI   PO4 2996  11.493  16.443  10.001  0.0649 -0.0497 -0.0119
  188loPI   GL1 2997  11.544  16.750   9.725  0.1512  0.1414 -0.2265
  188loPI   GL2 2998  11.801  16.982   9.612  0.4931 -0.0057 -0.1852
  188loPI   C1A 2999  11.497  16.644   9.279 -0.0305  0.3726  0.1293
  188loPI   C2A 3000  11.696  16.473   8.897  0.5586  0.3117 -0.2041
  188loPI   C3A 3001  11.728  16.473   8.496 -0.0623  0.1298  0.0570
  188loPI   C4A 3002  11.599  16.293   8.140 -0.3649  0.1345  0.4263
  188loPI   C5A 3003  11.662  16.112   7.731 -0.2432 -0.0373  0.0258
  188loPI   C6A 3004  11.535  15.966   7.366 -0.0243  0.1946  0.0016
  188loPI   C1B 3005  11.446  17.119   9.263 -0.1892 -0.0803 -0.2424
  188loPI   C2B 3006  11.091  17.352   9.087  0.0866 -0.2308  0.1030
  188loPI   C3B 3007  10.742  17.258   8.847  0.4036 -0.1289 -0.1800
  188loPI   C4B 3008  10.591  17.397   8.556  0.0334 -0.0667  0.0260
  189loPI    C1 3009   7.326   7.493  10.237 -0.1603 -0.1384 -0.1224
  189loPI    C2 3010   7.492   7.411  10.592 -0.0237  0.1249 -0.1231
  189loPI    C3 3011   7.304   7.760  10.535 -0.0320  0.0902 -0.3143
  189loPI   PO4 3012   7.454   7.431  10.040 -0.0839 -0.3518 -0.0386
  189loPI   GL1 3013   7.516   7.288   9.606 -0.6844 -0.2439 -0.0817
  189loPI   GL2 3014   7.790   7.099   9.541  0.1578  0.1330  0.0067
  189loPI   C1A 3015   7.190   6.992   9.512  0.0034 -0.1841  0.1027
  189loPI   C2A 3016   7.105   7.076   9.137  0.0977 -0.0078 -0.0346
  189loPI   C3A 3017   7.032   7.082   8.775  0.2918  0.0333  0.4207
  189loPI   C4A 3018   6.814   7.172   8.409  0.2056  0.2746  0.2039
  189loPI   C5A 3019   6.728   7.050   7.974  0.2310 -0.3263 -0.0536
  189loPI   C6A 3020   6.804   7.302   7.553  0.2507 -0.1835  0.1030
  189loPI   C1B 3021   7.993   7.099   9.089 -0.1479  0.1976  0.0188
  189loPI   C2B 3022   8.102   7.280   8.691 -0.2216 -0.0102 -0.5131
  189loPI   C3B 3023   8.153   7.503   8.308 -0.1657  0.0479  0.1398
  189loPI   C4B 3024   7.976   7.658   8.005  0.2504  0.1402 -0.0495
  190loPI    C1 3025   3.871  16.394   9.971 -0.0064 -0.3453 -0.1274
  190loPI    C2 3026   4.194  16.408  10.207 -0.2261  0.2990  0.1580
  190loPI    C3 3027   3.841  16.298  10.358 -0.2746  0.2474  0.0091
  190loPI   PO4 3028   3.963  16.264   9.771 -0.2800  0.0871  0.1736
  190loPI   GL1 3029   3.996  16.280   9.286  0.1892 -0.2385 -0.1779
  190loPI   GL2 3030   4.139  16.223   9.114 -0.3133 -0.0415  0.1304
  190loPI   C1A 3031   3.651  16.411   9.016 -0.1232  0.1204 -0.0456
  190loPI   C2A 3032   3.369  16.375   8.699  0.0618  0.0802  0.1623
  190loPI   C3A 3033   3.013  16.416   8.456  0.2757  0.0223  0.3524
  190loPI   C4A 3034   2.812  16.636   8.062  0.0937 -0.1600 -0.0696
  190loPI   C5A 3035   2.868  16.716   7.603  0.0872 -0.0351  0.4758
  190loPI   C6A 3036   2.946  17.027   7.431 -0.2160 -0.0735  0.1466
  190loPI   C1B 3037   4.067  16.101   8.687  0.0868  0.0318  0.0584
  190loPI   C2B 3038   3.826  16.212   8.462  0.2087 -0.3809  0.0173
  190loPI   C3B 3039   3.478  16.196   8.154 -0.1113 -0.0783 -0.0748
  190loPI   C4B 3040   3.249  16.428   7.945 -0.0480 -0.3438  0.0788
  191loPI    C1 3041   8.490   4.616  10.321 -0.0592  0.0613 -0.1163
  191loPI    C2 3042   8.420   4.223  10.338  0.1980  0.0141 -0.0966
  191loPI    C3 3043   8.589   4.409  10.649  0.0025  0.1574 -0.0739
  191loPI   PO4 3044   8.647   4.636  10.074 -0.0497 -0.1932 -0.1941
  191loPI   GL1 3045   8.831   4.926   9.727  0.1745  0.1492 -0.0543
  191loPI   GL2 3046   8.554   5.218   9.693  0.0603 -0.2926 -0.1746
  191loPI   C1A 3047   8.834   4.625   9.304  0.1962 -0.1108  0.3463
  191loPI   C2A 3048   8.881   4.461   8.902  0.1346  0.0473 -0.0014
  191loPI   C3A 3049   8.960   4.376   8.423  0.0732  0.0786 -0.2007
  191loPI   C4A 3050   9.158   4.320   8.070  0.1375 -0.2132 -0.0812
  191loPI   C5A 3051   9.382   4.348   7.659  0.1327  0.1278  0.0728
  191loPI   C6A 3052   9.425   4.748   7.435  0.0228 -0.1866 -0.1406
  191loPI   C1B 3053   8.640   5.108   9.311  0.1315 -0.0085  0.3417
  191loPI   C2B 3054   8.785   5.019   8.894  0.1653  0.0619  0.2209
  191loPI   C3B 3055   8.965   4.854   8.555 -0.1624  0.2275 -0.1919
  191loPI   C4B 3056   8.822   4.739   8.196  0.0869 -0.0249  0.3622
  192loPI    C1 3057   4.172   6.386   9.643 -0.1960  0.1737  0.0726
  192loPI    C2 3058   3.988   6.668   9.858 -0.3823  0.0824  0.0351
  192loPI    C3 3059   4.248   6.421  10.034 -0.3016  0.2058  0.0905
  192loPI   PO4 3060   4.175   6.566   9.408 -0.0747 -0.0607  0.0372
  192loPI   GL1 3061   4.148   6.727   9.081 -0.0358  0.2868  0.1432
  192loPI   GL2 3062   4.456   6.923   9.258 -0.4424  0.0331 -0.2964
  192loPI   C1A 3063   4.166   6.875   8.703 -0.2172 -0.2670 -0.1252
  192loPI   C2A 3064   4.126   6.903   8.248  0.0969  0.0885  0.0372
  192loPI   C3A 3065   3.996   6.703   7.825 -0.2676 -0.2226 -0.2485
  192loPI   C4A 3066   4.163   6.592   7.507  0.0501 -0.0211 -0.1068
  192loPI   C5A 3067   4.337   6.289   7.150 -0.0896 -0.1886 -0.0259
  192loPI   C6A 3068   4.664   6.114   6.888  0.0595  0.1745  0.0136
  192loPI   C1B 3069   4.572   7.244   9.032  0.0711  0.1013 -0.1078
  192loPI   C2B 3070   4.580   7.184   8.600  0.0715  0.0750 -0.1886
  192loPI   C3B 3071   4.651   7.194   8.181  0.0925 -0.0311  0.0620
  192loPI   C4B 3072   4.576   6.977   7.819 -0.0385 -0.1613 -0.0465
  193loPI    C1 3073  13.849   2.480   9.695  0.0737  0.0544 -0.0001
  193loPI    C2 3074  14.066   2.159   9.599 -0.1065 -0.0198 -0.1645
  193loPI    C3 3075  14.066   2.294   9.975  0.1422 -0.0796 -0.1411
  193loPI   PO4 3076  13.618   2.489   9.615 -0.3171  0.0680 -0.0846
  193loPI   GL1 3077  13.363   2.475   9.277  0.0222 -0.0576 -0.1305
  193loPI   GL2 3078  13.366   2.767   9.126 -0.0570  0.2370 -0.2276
  193loPI   C1A 3079  13.571   2.304   8.915 -0.0221  0.2467  0.0556
  193loPI   C2A 3080  13.655   2.170   8.442 -0.2829 -0.1418 -0.3069
  193loPI   C3A 3081  13.702   2.203   8.073 -0.3135  0.2398  0.3083
  193loPI   C4A 3082  13.757   2.174   7.626 -0.1726  0.1895  0.0694
  193loPI   C5A 3083  13.597   2.088   7.197  0.1466 -0.0675 -0.1953
  193loPI   C6A 3084  13.522   1.907   6.893  0.0943  0.0793  0.0245
  193loPI   C1B 3085  13.198   2.732   8.747  0.0532  0.0371 -0.1163
  193loPI   C2B 3086  13.270   2.524   8.364 -0.0544  0.0924 -0.0304
  193loPI   C3B 3087  13.128   2.273   7.961  0.2198 -0.0468 -0.0209
  193loPI   C4B 3088  13.102   1.952   7.690  0.2182  0.2678  0.1438
  194loPI    C1 3089   0.692   1.149   9.947  0.0557  0.0712  0.1659
  194loPI    C2 3090   0.568   0.857  10.191 -0.0619  0.0154  0.0408
  194loPI    C3 3091   0.707   1.200  10.343  0.2696 -0.1822  0.1925
  194loPI   PO4 3092   0.615   0.959   9.644  0.1075  0.1236 -0.4110
  194loPI   GL1 3093   0.456   0.984   9.304 -0.0956  0.1997  0.0765
  194loPI   GL2 3094   0.293   1.265   9.076  0.1960  0.0348  0.1123
  194loPI   C1A 3095   0.773   0.820   8.926 -0.0343  0.3453 -0.1369
  194loPI   C2A 3096   0.707   0.720   8.456  0.5396  0.1601  0.0270
  194loPI   C3A 3097   0.787   0.954   8.089  0.1291 -0.1813  0.1511
  194loPI   C4A 3098   0.724   0.916   7.687 -0.1847  0.0325  0.0614
  194loPI   C5A 3099   0.933   1.051   7.373 -0.4022  0.4628 -0.0654
  194loPI   C6A 3100   1.337   0.981   7.248  0.4193 -0.0381  0.0581
  194loPI   C1B 3101   0.436   1.389   8.655 -0.1883 -0.1260 -0.1193
  194loPI   C2B 3102   0.493   1.222   8.348 -0.0364  0.0014 -0.3588
  194loPI   C3B 3103   0.337   1.206   7.877  0.1961 -0.0059 -0.0617
  194loPI   C4B 3104   0.368   1.246   7.433  0.0564 -0.3070  0.2716
  195loPI    C1 3105   7.476   1.779   9.584  0.2110 -0.0367  0.0317
  195loPI    C2 3106   7.454   2.122   9.790  0.1270 -0.0563  0.0557
  195loPI    C3 3107   7.796   2.018   9.610  0.2052 -0.0454  0.1962
  195loPI   PO4 3108   7.298   1.713   9.414 -0.0939 -0.2868  0.0812
  195loPI   GL1 3109   7.085   1.725   9.070  0.1364 -0.1567  0.0540
  195loPI   GL2 3110   7.112   2.021   8.922  0.0548 -0.3222 -0.3216
  195loPI   C1A 3111   7.221   1.738   8.558  0.2562  0.0618  0.4045
  195loPI   C2A 3112   7.267   1.816   8.099 -0.2778 -0.0549  0.1101
  195loPI   C3A 3113   7.212   1.896   7.587 -0.1089  0.2501 -0.3651
  195loPI   C4A 3114   6.890   2.239   7.453  0.3321 -0.0031  0.0185
  195loPI   C5A 3115   6.899   2.637   7.633 -0.0537  0.1413  0.0372
  195loPI   C6A 3116   6.852   2.804   8.062  0.0015  0.0293 -0.4677
  195loPI   C1B 3117   7.339   2.238   8.677  0.0832 -0.2398 -0.1652
  195loPI   C2B 3118   7.203   2.333   8.222 -0.1133  0.0810 -0.1643
  195loPI   C3B 3119   7.393   2.313   7.833  0.1837  0.1168 -0.3044
  195loPI   C4B 3120   7.621   2.371   7.501  0.4363  0.0713  0.1199
  196loPI    C1 3121   0.122   0.948   9.757  0.3170 -0.1039 -0.0654
  196loPI    C2 3122   0.204   1.153  10.091  0.2238 -0.0051 -0.1025
  196loPI    C3 3123   0.243   1.329   9.734  0.1937 -0.0686 -0.1373
  196loPI   PO4 3124  -0.097   0.872   9.625  0.0157 -0.2625  0.0058
  196loPI   GL1 3125  -0.249   0.812   9.226 -0.0189 -0.1030  0.0428
  196loPI   GL2 3126   0.048   0.709   9.195  0.0383 -0.0302 -0.0313
  196loPI   C1A 3127  -0.359   0.841   8.836 -0.3344  0.3591 -0.0192
  196loPI   C2A 3128  -0.393   0.692   8.436  0.1166  0.1823 -0.1414
  196loPI   C3A 3129  -0.307   0.613   7.996  0.3597 -0.2882  0.0358
  196loPI   C4A 3130  -0.180   0.669   7.600  0.1061  0.1767 -0.4010
  196loPI   C5A 3131  -0.207   0.790   7.201  0.0116 -0.0846 -0.0240
  196loPI   C6A 3132  -0.551   0.606   6.891 -0.0205 -0.2983  0.0182
  196loPI   C1B 3133   0.140   0.789   8.793 -0.1297 -0.0279 -0.3225
  196loPI   C2B 3134   0.159   0.702   8.381  0.0085  0.2789  0.0889
  196loPI   C3B 3135   0.283   0.697   7.972  0.0708 -0.0227  0.1878
  196loPI   C4B 3136   0.635   0.468   7.774 -0.0089 -0.2111  0.0736
  197loPI    C1 3137  13.885   7.195   9.933  0.2051 -0.0767 -0.1556
  197loPI    C2 3138  14.024   7.490  10.164 -0.0439 -0.1252  0.0602
  197loPI    C3 3139  13.852   7.576   9.814 -0.0033 -0.0236  0.0647
  197loPI   PO4 3140  14.058   7.021   9.800  0.0702  0.2065  0.0055
  197loPI   GL1 3141  14.047   6.840   9.303 -0.2297  0.1314 -0.2925
  197loPI   GL2 3142  13.725   6.516   9.237 -0.0202 -0.0830  0.2516
  197loPI   C1A 3143  13.915   6.923   8.972 -0.3503 -0.2022  0.0702
  197loPI   C2A 3144  13.765   7.060   8.571  0.0621  0.3195 -0.3843
  197loPI   C3A 3145  13.754   7.000   8.047 -0.1866 -0.1822 -0.2381
  197loPI   C4A 3146  13.771   7.119   7.640  0.1802  0.2221 -0.0710
  197loPI   C5A 3147  13.863   7.296   7.260  0.2240 -0.0920 -0.1587
  197loPI   C6A 3148  14.172   7.202   6.925 -0.2714 -0.2358 -0.0562
  197loPI   C1B 3149  13.913   6.488   8.832 -0.1180  0.2467 -0.1713
  197loPI   C2B 3150  14.234   6.355   8.536  0.3600  0.2090 -0.0673
  197loPI   C3B 3151  14.453   6.425   8.276 -0.2796  0.1737  0.0636
  197loPI   C4B 3152  14.410   6.365   7.926  0.1269  0.3376 -0.2242
  198loPI    C1 3153   3.510   5.457   9.878 -0.1687 -0.0553 -0.1737
  198loPI    C2 3154   3.177   5.281  10.012 -0.0767 -0.0828  0.0224
  198loPI    C3 3155   3.335   5.588  10.212 -0.0504  0.0081 -0.1362
  198loPI   PO4 3156   3.619   5.246   9.686  0.1585  0.2145 -0.3139
  198loPI   GL1 3157   3.807   5.277   9.266  0.1979  0.1212 -0.1733
  198loPI   GL2 3158   3.577   5.292   9.050 -0.3450 -0.4099  0.0794
  198loPI   C1A 3159   4.052   5.172   8.995 -0.4588 -0.1584  0.0076
  198loPI   C2A 3160   4.000   5.083   8.599 -0.2748  0.1634  0.0492
  198loPI   C3A 3161   4.083   5.093   8.192  0.1980  0.1525  0.0973
  198loPI   C4A 3162   4.146   5.176   7.700 -0.0289 -0.3624 -0.0221
  198loPI   C5A 3163   4.268   5.198   7.324  0.1519 -0.1162  0.2438
  198loPI   C6A 3164   4.389   5.454   6.950  0.0676 -0.1385  0.0026
  198loPI   C1B 3165   3.485   5.568   8.682 -0.1122 -0.1516  0.0440
  198loPI   C2B 3166   3.344   5.622   8.394 -0.0552 -0.2498  0.1687
  198loPI   C3B 3167   3.475   5.739   7.979  0.0933 -0.2721  0.1928
  198loPI   C4B 3168   3.533   5.891   7.592  0.2625  0.0771 -0.0537
  199loPI    C1 3169  12.852   6.634  10.154  0.1171  0.2410 -0.0209
  199loPI    C2 3170  12.917   6.389  10.464  0.1746  0.3005  0.0144
  199loPI    C3 3171  12.563   6.571  10.423  0.0524  0.0347 -0.1366
  199loPI   PO4 3172  13.105   6.529   9.997  0.2158  0.0181  0.0190
  199loPI   GL1 3173  13.192   6.430   9.457  0.1969 -0.1683  0.0298
  199loPI   GL2 3174  13.061   6.617   9.283 -0.0836 -0.0782  0.1253
  199loPI   C1A 3175  13.315   6.308   9.040  0.1698 -0.0005  0.0240
  199loPI   C2A 3176  13.156   6.320   8.586  0.0604  0.1112  0.0772
  199loPI   C3A 3177  13.068   6.284   8.238 -0.1530  0.2474  0.1559
  199loPI   C4A 3178  12.929   6.500   7.895  0.0001  0.1683  0.3928
  199loPI   C5A 3179  12.806   6.874   7.559  0.1555  0.0565  0.0930
  199loPI   C6A 3180  12.914   6.920   7.142  0.0561 -0.0699 -0.1673
  199loPI   C1B 3181  12.929   6.734   8.823  0.1309 -0.2983  0.1404
  199loPI   C2B 3182  12.875   6.752   8.373 -0.0221 -0.2767 -0.1922
  199loPI   C3B 3183  12.754   6.928   8.012 -0.3402 -0.1342 -0.2777
  199loPI   C4B 3184  12.403   7.116   7.819 -0.2360  0.2757 -0.0117
  200loPI    C1 3185  11.896   8.830  10.094 -0.3660 -0.1313  0.0139
  200loPI    C2 3186  12.118   8.498  10.097 -0.0780  0.0576  0.0175
  200loPI    C3 3187  12.117   8.741  10.415 -0.0691  0.2015 -0.0917
  200loPI   PO4 3188  12.001   9.044   9.837 -0.2000 -0.1237 -0.1611
  200loPI   GL1 3189  11.768   9.056   9.380  0.0122  0.1189 -0.1390
  200loPI   GL2 3190  11.514   9.311   9.358  0.0758 -0.2224 -0.1855
  200loPI   C1A 3191  11.816   9.025   8.926 -0.0286  0.0042 -0.0889
  200loPI   C2A 3192  11.883   9.073   8.479 -0.2414 -0.0562  0.1346
  200loPI   C3A 3193  11.869   9.079   8.081 -0.2289  0.0073  0.0236
  200loPI   C4A 3194  11.737   9.412   7.645  0.4139  0.0498 -0.0793
  200loPI   C5A 3195  11.378   9.731   7.438 -0.1115  0.0216 -0.3813
  200loPI   C6A 3196  11.120  10.107   7.200  0.0490  0.2031 -0.0293
  200loPI   C1B 3197  11.528   9.473   8.988 -0.0867  0.4452 -0.2496
  200loPI   C2B 3198  11.570   9.412   8.445  0.2373 -0.0700 -0.1056
  200loPI   C3B 3199  11.722   9.626   8.160  0.1123 -0.0020 -0.0511
  200loPI   C4B 3200  11.768   9.876   7.891 -0.1752 -0.3167 -0.1128
  201loPI    C1 3201  12.111   5.737   9.721  0.1384 -0.1268  0.0953
  201loPI    C2 3202  12.510   5.733   9.702  0.1365  0.0283  0.0071
  201loPI    C3 3203  12.328   5.808  10.050  0.1798 -0.5761  0.1710
  201loPI   PO4 3204  12.008   5.629   9.465 -0.0030 -0.1638  0.0784
  201loPI   GL1 3205  12.331   5.655   9.182 -0.0275  0.1701  0.0247
  201loPI   GL2 3206  12.257   6.099   9.062 -0.0838  0.1704 -0.1902
  201loPI   C1A 3207  12.536   5.695   8.848 -0.0357  0.0206 -0.0374
  201loPI   C2A 3208  12.688   5.914   8.427 -0.1895 -0.0171 -0.3178
  201loPI   C3A 3209  12.590   6.202   8.133 -0.2092  0.2246  0.3462
  201loPI   C4A 3210  12.543   6.217   7.782 -0.2652  0.0160  0.0504
  201loPI   C5A 3211  12.363   6.104   7.460 -0.0650  0.2531 -0.1968
  201loPI   C6A 3212  12.100   5.823   7.360 -0.0484  0.0155 -0.0019
  201loPI   C1B 3213  12.234   6.033   8.602  0.3067 -0.1256 -0.0965
  201loPI   C2B 3214  12.306   5.805   8.177  0.2390  0.1052 -0.0706
  201loPI   C3B 3215  12.480   5.703   7.923 -0.0340  0.0996 -0.3400
  201loPI   C4B 3216  12.627   5.728   7.559  0.0578 -0.1265 -0.0888
  202loPI    C1 3217  18.880  16.728  10.085 -0.2230  0.0868  0.0414
  202loPI    C2 3218  18.696  16.556   9.774 -0.2350 -0.0773  0.1384
  202loPI    C3 3219  18.483  16.682  10.088 -0.2288  0.1386  0.0573
  202loPI   PO4 3220  19.192  16.758   9.920  0.1741 -0.0009  0.3864
  202loPI   GL1 3221  19.301  16.892   9.612 -0.0776 -0.0520 -0.2510
  202loPI   GL2 3222  19.592  16.817   9.554  0.1322 -0.2446 -0.1261
  202loPI   C1A 3223  19.245  16.850   9.118  0.0012 -0.1892 -0.1437
  202loPI   C2A 3224  19.195  16.819   8.745 -0.1873  0.4871 -0.3400
  202loPI   C3A 3225  19.111  16.945   8.391  0.1481  0.0295  0.2712
  202loPI   C4A 3226  18.853  17.015   7.999  0.0232 -0.0620  0.1038
  202loPI   C5A 3227  18.697  17.194   7.711  0.1757 -0.1656 -0.0423
  202loPI   C6A 3228  18.671  17.235   7.266 -0.0267  0.2242  0.2869
  202loPI   C1B 3229  19.709  16.534   9.303  0.0463 -0.0284  0.3476
  202loPI   C2B 3230  19.626  16.606   8.845 -0.0495  0.3275 -0.0880
  202loPI   C3B 3231  19.544  16.579   8.377  0.0333  0.1194  0.0261
  202loPI   C4B 3232  19.733  16.713   8.008  0.2115  0.2461  0.2140
  203loPI    C1 3233  16.686  11.031   9.863  0.0644  0.1063 -0.0465
  203loPI    C2 3234  17.020  11.221   9.976  0.2877 -0.1480 -0.2624
  203loPI    C3 3235  16.950  10.848  10.102 -0.0340 -0.0139 -0.0291
  203loPI   PO4 3236  16.566  11.348   9.710  0.0343  0.3091 -0.0681
  203loPI   GL1 3237  16.843  11.400   9.414 -0.0277 -0.0316  0.0527
  203loPI   GL2 3238  17.123  11.310   9.382  0.2499  0.1047  0.0936
  203loPI   C1A 3239  16.803  11.480   8.967  0.0778  0.1147 -0.0387
  203loPI   C2A 3240  16.898  11.563   8.660  0.0597 -0.1168 -0.0078
  203loPI   C3A 3241  16.748  11.256   8.408  0.1305  0.0232 -0.1380
  203loPI   C4A 3242  16.549  10.993   8.054 -0.0313  0.2809  0.1969
  203loPI   C5A 3243  16.569  10.962   7.625 -0.1383  0.1377  0.2393
  203loPI   C6A 3244  16.483  10.925   7.121  0.0858  0.0532 -0.0497
  203loPI   C1B 3245  17.294  11.457   9.044  0.0695  0.2456 -0.0728
  203loPI   C2B 3246  17.420  11.546   8.604  0.3650 -0.1237 -0.3480
  203loPI   C3B 3247  17.395  11.327   8.205 -0.0501 -0.0057  0.3664
  203loPI   C4B 3248  17.047  11.187   7.993  0.2690  0.1106  0.0889
  204loPI    C1 3249   5.924   7.773  10.068  0.1862 -0.2633 -0.1698
  204loPI    C2 3250   5.985   7.750  10.463  0.0967 -0.2285 -0.1536
  204loPI    C3 3251   6.245   7.947  10.231 -0.0421  0.0675 -0.0621
  204loPI   PO4 3252   5.613   7.865  10.044  0.0171 -0.1733  0.0794
  204loPI   GL1 3253   5.435   7.882   9.675  0.0292  0.0705  0.0402
  204loPI   GL2 3254   5.628   8.078   9.538  0.1441 -0.0166  0.1676
  204loPI   C1A 3255   5.125   7.863   9.346  0.1925  0.1613 -0.3080
  204loPI   C2A 3256   5.161   7.913   8.942  0.0686 -0.0631 -0.1463
  204loPI   C3A 3257   5.171   8.015   8.501  0.2268  0.2232  0.1926
  204loPI   C4A 3258   5.282   7.885   8.099  0.2491 -0.1140 -0.0402
  204loPI   C5A 3259   5.184   7.640   7.777  0.0539 -0.0472  0.0715
  204loPI   C6A 3260   5.030   7.206   7.798 -0.0701 -0.4412  0.1246
  204loPI   C1B 3261   5.851   8.214   9.157  0.0390 -0.0725  0.1025
  204loPI   C2B 3262   5.756   8.564   8.895  0.0525  0.0905 -0.6444
  204loPI   C3B 3263   5.873   8.535   8.431  0.0988 -0.6980  0.0475
  204loPI   C4B 3264   5.696   8.916   8.135 -0.0839 -0.1003 -0.0468
  205loPI    C1 3265  14.500  11.944  10.081  0.3792  0.0355 -0.0555
  205loPI    C2 3266  14.692  12.191  10.329  0.0261  0.3545 -0.0909
  205loPI    C3 3267  14.565  12.324   9.974  0.1064  0.0326 -0.2434
  205loPI   PO4 3268  14.638  11.755  10.020 -0.5715 -0.0296 -0.0244
  205loPI   GL1 3269  14.895  11.522   9.742  0.2718 -0.0695 -0.0602
  205loPI   GL2 3270  14.933  11.252   9.537 -0.0467 -0.0595  0.1232
  205loPI   C1A 3271  14.709  11.681   9.296 -0.0345 -0.2637  0.0387
  205loPI   C2A 3272  14.616  11.587   8.901 -0.3037  0.0194  0.0334
  205loPI   C3A 3273  14.848  11.286   8.627  0.1244  0.0498  0.0761
  205loPI   C4A 3274  14.834  11.147   8.336  0.0140  0.0971  0.0121
  205loPI   C5A 3275  14.903  10.954   7.935  0.1854  0.3413 -0.0215
  205loPI   C6A 3276  15.142  10.996   7.591  0.1684  0.3010  0.0521
  205loPI   C1B 3277  14.975  11.225   9.104 -0.2357  0.3310  0.0213
  205loPI   C2B 3278  15.253  11.055   8.696  0.5528  0.2008  0.1649
  205loPI   C3B 3279  15.295  11.016   8.351  0.1077  0.5436 -0.1338
  205loPI   C4B 3280  15.469  10.801   7.937  0.2401  0.1189  0.0148
  206loPI    C1 3281  11.682  14.966   9.707  0.0785  0.0516  0.1574
  206loPI    C2 3282  11.834  15.061  10.065 -0.0903 -0.1775  0.2931
  206loPI    C3 3283  11.567  15.302   9.890  0.0601 -0.0197  0.2782
  206loPI   PO4 3284  11.971  14.960   9.613 -0.0360 -0.1581  0.3010
  206loPI   GL1 3285  12.048  15.098   9.180  0.2484  0.2336 -0.1397
  206loPI   GL2 3286  11.652  15.025   9.196 -0.0637 -0.1814 -0.0987
  206loPI   C1A 3287  12.098  15.044   8.779  0.2995  0.2226  0.1389
  206loPI   C2A 3288  12.033  15.062   8.355  0.0327  0.0787  0.0590
  206loPI   C3A 3289  11.975  14.896   7.945  0.1116  0.1324  0.0422
  206loPI   C4A 3290  11.997  14.497   7.783  0.0662  0.0560  0.0497
  206loPI   C5A 3291  12.093  14.044   7.736 -0.1991 -0.2979 -0.0484
  206loPI   C6A 3292  12.392  13.758   7.540  0.0415  0.0525  0.1842
  206loPI   C1B 3293  11.618  14.991   8.768  0.3868  0.0573  0.4112
  206loPI   C2B 3294  11.506  14.943   8.356 -0.0136  0.0633  0.2508
  206loPI   C3B 3295  11.471  14.855   7.922  0.0992 -0.0108  0.1910
  206loPI   C4B 3296  11.138  14.697   7.584  0.1871  0.5404 -0.0696
  207loPI    C1 3297  10.251   3.419   9.891  0.0454  0.3602  0.2745
  207loPI    C2 3298  10.166   3.040   9.986 -0.0536  0.3015 -0.0361
  207loPI    C3 3299  10.273   3.299  10.272  0.0814  0.0238  0.1697
  207loPI   PO4 3300  10.140   3.422   9.582 -0.0963 -0.1973  0.0976
  207loPI   GL1 3301  10.183   3.491   9.135  0.1821  0.2858 -0.1358
  207loPI   GL2 3302  10.340   3.842   9.179 -0.1786 -0.0912 -0.1992
  207loPI   C1A 3303   9.948   3.542   8.741  0.2692  0.0213 -0.1908
  207loPI   C2A 3304   9.984   3.486   8.333 -0.0647  0.0553  0.0357
  207loPI   C3A 3305   9.834   3.687   7.993 -0.2409  0.0451  0.0804
  207loPI   C4A 3306   9.840   3.574   7.546 -0.1062 -0.1844 -0.2527
  207loPI   C5A 3307   9.800   3.169   7.253  0.0364  0.0552  0.0414
  207loPI   C6A 3308   9.854   2.856   6.948  0.1632 -0.2104 -0.0849
  207loPI   C1B 3309  10.432   3.827   8.719  0.0837  0.0631  0.0686
  207loPI   C2B 3310  10.497   3.735   8.317 -0.1752 -0.0554 -0.0648
  207loPI   C3B 3311  10.643   3.943   8.014 -0.1067  0.1664  0.0789
  207loPI   C4B 3312  10.599   4.150   7.651  0.0067 -0.0522  0.1389
  208loPI    C1 3313  13.067   5.228   9.938 -0.0927 -0.1582 -0.1682
  208loPI    C2 3314  13.460   5.158   9.971 -0.0724 -0.0151 -0.0968
  208loPI    C3 3315  13.219   5.103  10.286 -0.0528  0.2503 -0.0331
  208loPI   PO4 3316  12.989   5.448   9.651  0.0374  0.2656 -0.1562
  208loPI   GL1 3317  12.952   5.294   9.170  0.2443 -0.1053 -0.0570
  208loPI   GL2 3318  12.698   5.222   9.013 -0.1283 -0.5756  0.3511
  208loPI   C1A 3319  13.317   5.141   8.854  0.0318 -0.2983  0.0016
  208loPI   C2A 3320  13.379   5.207   8.396  0.0368  0.0487 -0.0330
  208loPI   C3A 3321  13.377   5.345   7.927 -0.2265 -0.0089 -0.0432
  208loPI   C4A 3322  13.275   5.584   7.517 -0.0141  0.2650 -0.6387
  208loPI   C5A 3323  13.107   5.871   7.101  0.0852 -0.1749 -0.0800
  208loPI   C6A 3324  12.866   5.837   6.722 -0.1629 -0.0171 -0.0291
  208loPI   C1B 3325  12.939   5.308   8.620  0.0713 -0.0185  0.0387
  208loPI   C2B 3326  12.994   5.534   8.263  0.1695 -0.0534  0.0857
  208loPI   C3B 3327  12.956   5.922   7.965  0.4448  0.1501 -0.1366
  208loPI   C4B 3328  13.154   6.074   7.589 -0.0517  0.0830 -0.1633
  209loPI    C1 3329  17.073   1.027  10.170 -0.1780 -0.1229 -0.0002
  209loPI    C2 3330  16.809   0.755  10.296  0.0019 -0.1431  0.3461
  209loPI    C3 3331  17.164   0.787  10.477  0.2069 -0.0599 -0.0599
  209loPI   PO4 3332  17.112   0.967   9.818 -0.0670  0.0525  0.0449
  209loPI   GL1 3333  16.829   0.891   9.442 -0.2675  0.1933 -0.0761
  209loPI   GL2 3334  16.833   0.613   9.381  0.3900 -0.3265 -0.0601
  209loPI   C1A 3335  16.944   0.963   9.084  0.1960  0.0753 -0.0943
  209loPI   C2A 3336  16.967   0.832   8.652 -0.2886 -0.3582  0.1120
  209loPI   C3A 3337  17.019   0.881   8.323  0.1399 -0.0540  0.1842
  209loPI   C4A 3338  16.845   0.711   8.032 -0.0774  0.0642  0.2065
  209loPI   C5A 3339  16.895   0.253   7.858  0.0669 -0.0261 -0.2110
  209loPI   C6A 3340  16.669  -0.184   7.889  0.1320 -0.0872  0.2417
  209loPI   C1B 3341  16.678   0.504   8.962 -0.5373 -0.0322 -0.2230
  209loPI   C2B 3342  16.451   0.660   8.654 -0.0718 -0.0460  0.2823
  209loPI   C3B 3343  16.498   0.911   8.282  0.0643 -0.0462 -0.2312
  209loPI   C4B 3344  16.247   0.827   7.898 -0.0259 -0.0283 -0.0306
  210loPI    C1 3345  14.683   6.449   9.725 -0.1516  0.0418 -0.0946
  210loPI    C2 3346  14.331   6.567   9.874 -0.0950  0.2878 -0.1517
  210loPI    C3 3347  14.669   6.746   9.992  0.0276 -0.0435  0.0117
  210loPI   PO4 3348  14.661   6.520   9.486  0.4200  0.2846 -0.1361
  210loPI   GL1 3349  14.844   6.547   9.146 -0.1366 -0.3117 -0.0713
  210loPI   GL2 3350  15.008   6.296   9.208 -0.0378 -0.1778  0.0877
  210loPI   C1A 3351  14.783   6.413   8.726  0.1848 -0.4137  0.1113
  210loPI   C2A 3352  14.981   6.333   8.435 -0.3689 -0.3677 -0.1295
  210loPI   C3A 3353  15.044   6.385   8.056 -0.0168 -0.3458 -0.0709
  210loPI   C4A 3354  14.821   6.312   7.610 -0.1674 -0.1913  0.0205
  210loPI   C5A 3355  14.687   6.158   7.110  0.0946  0.1616  0.2520
  210loPI   C6A 3356  14.717   5.839   6.904  0.1383 -0.1282  0.1875
  210loPI   C1B 3357  14.700   5.988   8.985 -0.1590  0.0795 -0.0043
  210loPI   C2B 3358  14.680   5.918   8.536  0.0483  0.2375 -0.0475
  210loPI   C3B 3359  14.669   6.019   8.140 -0.1653  0.1064  0.1703
  210loPI   C4B 3360  14.723   5.884   7.730  0.0982 -0.0917  0.2105
  211loPI    C1 3361   6.743   8.979  10.124  0.2878  0.1713 -0.1009
  211loPI    C2 3362   6.930   8.639  10.224 -0.0499 -0.0050 -0.0562
  211loPI    C3 3363   6.684   8.817  10.485 -0.0880  0.1244 -0.1791
  211loPI   PO4 3364   6.664   8.938   9.835 -0.2984  0.2587  0.1099
  211loPI   GL1 3365   6.452   8.795   9.579 -0.1315  0.3424  0.3178
  211loPI   GL2 3366   6.173   8.607   9.672  0.0287 -0.1850  0.2964
  211loPI   C1A 3367   6.604   8.727   9.196  0.0503  0.3406  0.1723
  211loPI   C2A 3368   6.734   8.508   8.768  0.0577  0.2990 -0.3328
  211loPI   C3A 3369   6.909   8.551   8.367 -0.0082 -0.1554  0.0841
  211loPI   C4A 3370   7.060   8.665   8.022 -0.2614 -0.1128 -0.0214
  211loPI   C5A 3371   7.173   8.815   7.680 -0.0177 -0.1860 -0.1594
  211loPI   C6A 3372   7.622   8.958   7.438  0.2762 -0.3312 -0.0268
  211loPI   C1B 3373   5.746   8.812   9.471  0.3242 -0.5328 -0.3096
  211loPI   C2B 3374   5.672   9.244   9.189 -0.0686 -0.2668 -0.2711
  211loPI   C3B 3375   5.478   9.590   9.242  0.1954 -0.3869 -0.1664
  211loPI   C4B 3376   5.177   9.830   9.465  0.0535  0.0270 -0.1873
  212loPI    C1 3377   3.435  17.667   9.722 -0.2773  0.2604 -0.0657
  212loPI    C2 3378   3.233  17.932   9.943 -0.1464  0.1351  0.2087
  212loPI    C3 3379   3.467  17.661  10.120 -0.3166 -0.1980 -0.0650
  212loPI   PO4 3380   3.439  17.790   9.533 -0.1094 -0.5325 -0.1086
  212loPI   GL1 3381   3.614  18.002   9.125  0.1857  0.1525  0.2065
  212loPI   GL2 3382   3.948  17.895   8.979  0.2352  0.1437 -0.1777
  212loPI   C1A 3383   3.428  17.956   8.712 -0.2449  0.1676  0.2037
  212loPI   C2A 3384   3.494  17.945   8.360  0.0079 -0.1077  0.0967
  212loPI   C3A 3385   3.388  17.800   8.008  0.1981  0.0925  0.0973
  212loPI   C4A 3386   3.150  17.528   7.776 -0.2463  0.5288  0.0850
  212loPI   C5A 3387   2.655  17.658   7.601  0.3101 -0.4544 -0.0906
  212loPI   C6A 3388   2.283  17.661   7.375 -0.0606  0.1025 -0.3152
  212loPI   C1B 3389   3.901  17.667   8.558  0.0953 -0.0951 -0.0684
  212loPI   C2B 3390   3.956  17.642   8.094 -0.2398 -0.1333  0.3424
  212loPI   C3B 3391   4.123  17.456   7.670 -0.2438  0.0223 -0.0655
  212loPI   C4B 3392   4.194  17.212   7.349  0.1215 -0.0157  0.2022
  213loPI    C1 3393  13.884   0.766  10.303 -0.2651  0.1441  0.1274
  213loPI    C2 3394  13.937   1.028  10.601 -0.0212 -0.0019  0.2155
  213loPI    C3 3395  13.671   0.731  10.640 -0.1167  0.0834  0.2160
  213loPI   PO4 3396  13.907   0.949  10.101  0.2554  0.1945 -0.1824
  213loPI   GL1 3397  13.895   0.866   9.641  0.0589 -0.1159  0.1204
  213loPI   GL2 3398  14.146   0.862   9.504  0.3742  0.0321 -0.0587
  213loPI   C1A 3399  13.745   1.091   9.264 -0.1153 -0.0841  0.2372
  213loPI   C2A 3400  13.961   0.956   9.058 -0.1312 -0.5142 -0.0529
  213loPI   C3A 3401  14.063   0.903   8.753  0.1509  0.0584 -0.3179
  213loPI   C4A 3402  13.891   0.812   8.325 -0.4352  0.2970 -0.0475
  213loPI   C5A 3403  13.713   0.699   7.985  0.0808  0.2572  0.0334
  213loPI   C6A 3404  13.515   0.553   7.531 -0.0029 -0.0990 -0.1298
  213loPI   C1B 3405  14.180   0.494   9.369 -0.1761  0.3603  0.0099
  213loPI   C2B 3406  14.131   0.383   8.914 -0.1951 -0.0162  0.2613
  213loPI   C3B 3407  14.175   0.301   8.552  0.0586  0.2206 -0.0456
  213loPI   C4B 3408  14.079   0.324   8.062 -0.0326 -0.0066 -0.0475
  214loPI    C1 3409   5.763  15.350   9.578  0.1041  0.0298 -0.2007
  214loPI    C2 3410   5.595  14.988   9.598 -0.0735  0.1274  0.1409
  214loPI    C3 3411   5.854  15.104   9.880  0.0305  0.2439 -0.0013
  214loPI   PO4 3412   5.743  15.389   9.325 -0.0821  0.1321  0.0014
  214loPI   GL1 3413   5.775  15.199   8.927  0.0466  0.0810  0.0911
  214loPI   GL2 3414   6.024  15.408   8.895 -0.2344 -0.1570 -0.0543
  214loPI   C1A 3415   5.917  15.124   8.476 -0.0539  0.1012  0.0382
  214loPI   C2A 3416   6.288  15.072   8.186 -0.2613 -0.0254  0.1592
  214loPI   C3A 3417   6.184  14.974   7.734  0.3924  0.1030 -0.0598
  214loPI   C4A 3418   6.001  15.008   7.302 -0.0767  0.4315 -0.0655
  214loPI   C5A 3419   5.996  15.230   6.963 -0.0826  0.0413  0.0152
  214loPI   C6A 3420   6.154  15.559   6.701  0.0862  0.0423  0.1047
  214loPI   C1B 3421   6.418  15.189   8.770  0.0855 -0.0303 -0.3854
  214loPI   C2B 3422   6.745  15.218   8.502 -0.3382  0.0203 -0.0207
  214loPI   C3B 3423   6.813  15.221   7.986  0.2466  0.1856  0.0038
  214loPI   C4B 3424   6.632  15.246   7.559  0.3712 -0.0450  0.4190
  215loPI    C1 3425   8.986   5.193  10.135  0.0387 -0.1881  0.2003
  215loPI    C2 3426   8.852   5.431  10.428  0.0315  0.1497 -0.0716
  215loPI    C3 3427   8.594   5.210  10.215  0.0028  0.1385 -0.0253
  215loPI   PO4 3428   9.123   5.270   9.877  0.0367 -0.1560  0.3874
  215loPI   GL1 3429   9.301   5.279   9.444 -0.3554  0.0139 -0.1747
  215loPI   GL2 3430   9.012   5.515   9.488  0.3335 -0.0852  0.1360
  215loPI   C1A 3431   9.164   5.047   9.126  0.1899  0.0002 -0.2749
  215loPI   C2A 3432   9.219   5.311   8.667  0.0165 -0.2064  0.5017
  215loPI   C3A 3433   9.101   5.306   8.221 -0.2846  0.1180 -0.2490
  215loPI   C4A 3434   9.082   4.963   7.840  0.3130 -0.3249 -0.1549
  215loPI   C5A 3435   8.851   4.612   7.709  0.0781  0.1079 -0.1185
  215loPI   C6A 3436   8.788   4.118   7.760  0.1343 -0.2998 -0.2188
  215loPI   C1B 3437   8.821   5.493   9.103  0.1493 -0.0791 -0.2049
  215loPI   C2B 3438   8.674   5.468   8.751 -0.0865  0.0867  0.0708
  215loPI   C3B 3439   8.670   5.201   8.381 -0.0826  0.3228  0.3284
  215loPI   C4B 3440   8.688   5.312   7.905  0.0649 -0.2342 -0.0457
  216loPI    C1 3441  13.244  12.657  10.148 -0.1814 -0.2868  0.1269
  216loPI    C2 3442  12.906  12.651  10.362 -0.0882  0.2106  0.3004
  216loPI    C3 3443  13.229  12.840  10.503  0.2055 -0.0903  0.0469
  216loPI   PO4 3444  13.139  12.540   9.928  0.2869 -0.0185 -0.3831
  216loPI   GL1 3445  13.444  12.453   9.658 -0.0188 -0.0091  0.1927
  216loPI   GL2 3446  13.729  12.567   9.667  0.1360  0.3339 -0.0070
  216loPI   C1A 3447  13.475  12.196   9.269 -0.0910  0.0863  0.0081
  216loPI   C2A 3448  13.459  12.432   8.833  0.0326  0.0140  0.2395
  216loPI   C3A 3449  13.553  12.462   8.458 -0.2122 -0.0425  0.2898
  216loPI   C4A 3450  13.545  12.543   8.022 -0.0602 -0.0192 -0.0549
  216loPI   C5A 3451  13.890  12.482   7.661 -0.1183  0.1712  0.0261
  216loPI   C6A 3452  14.332  12.547   7.805 -0.3237  0.1455  0.0132
  216loPI   C1B 3453  13.787  12.557   9.287 -0.0911 -0.0432  0.3528
  216loPI   C2B 3454  14.073  12.603   9.007 -0.3305 -0.0542  0.4194
  216loPI   C3B 3455  14.026  12.525   8.620 -0.1459 -0.0255  0.0027
  216loPI   C4B 3456  13.995  12.632   8.220  0.0011  0.0404  0.1743
  217loPI    C1 3457  15.562   9.224   9.441  0.0304  0.0563 -0.0995
  217loPI    C2 3458  15.265   9.411   9.633  0.2961  0.1715  0.2089
  217loPI    C3 3459  15.322   9.019   9.687  0.1482  0.1310  0.0798
  217loPI   PO4 3460  15.748   9.398   9.458 -0.0204  0.3217  0.1367
  217loPI   GL1 3461  15.656   9.773   9.408  0.2114 -0.2676  0.3677
  217loPI   GL2 3462  15.702   9.724   9.040 -0.2142  0.1280 -0.0986
  217loPI   C1A 3463  15.375  10.065   9.237  0.0728  0.0156  0.1029
  217loPI   C2A 3464  15.477  10.483   8.914 -0.2059  0.0992  0.0029
  217loPI   C3A 3465  15.643  10.708   8.539 -0.0148  0.0599 -0.0123
  217loPI   C4A 3466  15.735  11.159   8.283  0.4801 -0.0486  0.1179
  217loPI   C5A 3467  15.805  11.337   7.908 -0.2873  0.0594  0.1256
  217loPI   C6A 3468  15.720  11.406   7.462  0.1733  0.1113  0.0727
  217loPI   C1B 3469  15.845   9.523   8.634  0.0611  0.4147  0.1785
  217loPI   C2B 3470  15.924   9.745   8.295  0.2043  0.2725 -0.0313
  217loPI   C3B 3471  15.898   9.750   7.890  0.2185  0.1695 -0.1311
  217loPI   C4B 3472  15.615   9.800   7.463 -0.0174 -0.3501 -0.1066
  218loPI    C1 3473   5.409   5.320  10.060  0.0860  0.0617 -0.1877
  218loPI    C2 3474   5.179   4.996  10.013  0.0906  0.0269  0.0213
  218loPI    C3 3475   5.433   5.019  10.322  0.3986  0.0480 -0.2285
  218loPI   PO4 3476   5.604   5.405   9.855 -0.2230 -0.0406  0.1332
  218loPI   GL1 3477   5.378   5.522   9.533 -0.0784  0.0220  0.2343
  218loPI   GL2 3478   5.751   5.780   9.492  0.2912 -0.1017 -0.0609
  218loPI   C1A 3479   5.331   5.815   9.227 -0.0920 -0.0998 -0.1947
  218loPI   C2A 3480   5.286   5.837   8.789  0.0527  0.0925 -0.0416
  218loPI   C3A 3481   5.309   5.908   8.418 -0.0511 -0.0498 -0.0317
  218loPI   C4A 3482   5.318   6.132   8.082 -0.1246  0.3193  0.1118
  218loPI   C5A 3483   5.487   6.217   7.733  0.1074  0.2491  0.1435
  218loPI   C6A 3484   5.621   6.431   7.355 -0.0732  0.1009  0.1482
  218loPI   C1B 3485   5.860   5.792   8.979 -0.3408 -0.4694 -0.1525
  218loPI   C2B 3486   5.741   6.031   8.530  0.3602  0.2592 -0.1101
  218loPI   C3B 3487   5.832   6.080   8.094  0.0295 -0.2208 -0.0433
  218loPI   C4B 3488   5.987   6.058   7.753 -0.1857 -0.0593 -0.3180
  219loPI    C1 3489  11.661   6.669   9.921  0.0253  0.0061 -0.0216
  219loPI    C2 3490  11.347   6.431   9.988  0.0279  0.0232  0.0513
  219loPI    C3 3491  11.299   6.828   9.983  0.0939  0.0366  0.3191
  219loPI   PO4 3492  11.843   6.412   9.800 -0.1613  0.1217  0.0763
  219loPI   GL1 3493  11.872   6.517   9.399 -0.0987  0.0173 -0.1166
  219loPI   GL2 3494  11.968   6.791   9.264 -0.3050 -0.1281 -0.2288
  219loPI   C1A 3495  11.838   6.377   8.916 -0.0087 -0.0727  0.0558
  219loPI   C2A 3496  11.976   6.427   8.522  0.1076 -0.1503 -0.1328
  219loPI   C3A 3497  12.040   6.178   8.082 -0.0226 -0.1939 -0.1229
  219loPI   C4A 3498  11.970   6.278   7.671 -0.0199 -0.0550  0.0674
  219loPI   C5A 3499  11.686   6.478   7.511  0.0620  0.2524  0.0132
  219loPI   C6A 3500  11.255   6.296   7.376 -0.0560 -0.3604  0.0464
  219loPI   C1B 3501  11.785   6.932   8.813 -0.2539  0.3475 -0.2201
  219loPI   C2B 3502  11.781   6.893   8.466 -0.0039 -0.2685 -0.0002
  219loPI   C3B 3503  11.869   6.660   8.070  0.0856  0.0418  0.1000
  219loPI   C4B 3504  11.989   6.890   7.610 -0.2620 -0.0036  0.0928
  220loPI    C1 3505   9.195   3.190   9.648 -0.2006 -0.4429  0.4423
  220loPI    C2 3506   9.024   3.531   9.767  0.1389 -0.0838 -0.0568
  220loPI    C3 3507   9.303   3.356   9.995 -0.0083 -0.0100  0.1835
  220loPI   PO4 3508   9.235   3.198   9.454 -0.1434 -0.2476 -0.0598
  220loPI   GL1 3509   9.212   3.465   9.154  0.3333  0.0104  0.1423
  220loPI   GL2 3510   8.993   3.592   9.182 -0.1287 -0.1947  0.2355
  220loPI   C1A 3511   9.404   3.379   8.701  0.3211  0.1372 -0.1507
  220loPI   C2A 3512   9.399   3.006   8.430  0.2673 -0.1680  0.0233
  220loPI   C3A 3513   9.415   2.723   8.099  0.2248  0.3541 -0.0146
  220loPI   C4A 3514   9.588   2.542   7.804 -0.0964  0.5866 -0.0540
  220loPI   C5A 3515   9.958   2.713   7.482  0.0699 -0.1008  0.0552
  220loPI   C6A 3516  10.314   2.734   7.085 -0.1313  0.1204 -0.1223
  220loPI   C1B 3517   8.706   3.660   8.750  0.0847  0.0979 -0.2155
  220loPI   C2B 3518   8.654   3.991   8.498  0.3849  0.0356 -0.1412
  220loPI   C3B 3519   8.531   4.207   8.183 -0.0562  0.0346  0.2005
  220loPI   C4B 3520   8.397   4.428   7.809 -0.0020 -0.0437 -0.1224
  221loPI    C1 3521   5.642   3.074   9.574 -0.1906  0.1379 -0.0583
  221loPI    C2 3522   5.708   2.965   9.194  0.1497  0.0300  0.0279
  221loPI    C3 3523   5.790   2.711   9.492  0.2657  0.2602  0.1950
  221loPI   PO4 3524   5.341   3.163   9.567  0.2323 -0.1737  0.1544
  221loPI   GL1 3525   5.208   3.270   9.139 -0.2653  0.2036  0.1585
  221loPI   GL2 3526   5.127   2.919   9.119 -0.0669  0.0143 -0.0582
  221loPI   C1A 3527   5.193   3.600   8.864  0.1903 -0.1088  0.0088
  221loPI   C2A 3528   5.221   3.560   8.468 -0.1411  0.0702  0.1475
  221loPI   C3A 3529   5.316   3.707   8.149 -0.0549  0.2569  0.1132
  221loPI   C4A 3530   5.450   3.816   7.819  0.0824 -0.2764 -0.1762
  221loPI   C5A 3531   5.599   4.172   7.632 -0.1325 -0.2666 -0.0609
  221loPI   C6A 3532   5.954   4.275   7.373  0.2052 -0.0641 -0.1244
  221loPI   C1B 3533   5.322   3.090   8.699 -0.3010  0.3528 -0.1383
  221loPI   C2B 3534   5.654   3.096   8.325  0.0890  0.2384  0.2777
  221loPI   C3B 3535   5.793   3.148   7.921 -0.1788 -0.0290  0.1577
  221loPI   C4B 3536   5.810   3.070   7.582  0.2561  0.2257 -0.1317
  222loPI    C1 3537  16.427   5.843   9.630  0.1292  0.1347  0.0749
  222loPI    C2 3538  16.157   5.664   9.864  0.0063  0.1562 -0.0490
  222loPI    C3 3539  16.524   5.510   9.829  0.1008  0.2811  0.3386
  222loPI   PO4 3540  16.175   6.143   9.612  0.2696 -0.1293  0.1214
  222loPI   GL1 3541  16.104   6.354   9.367  0.0750 -0.1495  0.1618
  222loPI   GL2 3542  16.202   6.612   9.124  0.1663  0.0746  0.1710
  222loPI   C1A 3543  15.772   6.444   8.996  0.0233  0.0346  0.2081
  222loPI   C2A 3544  15.806   6.202   8.596  0.3602  0.1678 -0.0564
  222loPI   C3A 3545  15.588   6.299   8.250 -0.1256  0.0069 -0.0775
  222loPI   C4A 3546  15.513   6.435   7.849 -0.0429  0.1233 -0.0141
  222loPI   C5A 3547  15.588   6.232   7.446  0.2857  0.5411  0.3796
  222loPI   C6A 3548  15.897   6.146   7.455  0.1088  0.1234 -0.1442
  222loPI   C1B 3549  16.323   6.433   8.716  0.1191 -0.1822  0.1865
  222loPI   C2B 3550  16.123   6.430   8.313 -0.1352 -0.0246 -0.2279
  222loPI   C3B 3551  16.014   6.438   7.902 -0.2317 -0.2671 -0.0440
  222loPI   C4B 3552  16.221   6.562   7.478 -0.1324  0.0271 -0.0577
  223loPI    C1 3553  14.353   2.696   9.923  0.0583 -0.1261 -0.0191
  223loPI    C2 3554  14.540   3.043   9.992  0.0786 -0.1748  0.1763
  223loPI    C3 3555  14.288   2.893  10.264 -0.1172 -0.1939 -0.0121
  223loPI   PO4 3556  14.302   2.642   9.613 -0.1407  0.1120 -0.1269
  223loPI   GL1 3557  14.030   2.809   9.338  0.1452  0.0021 -0.0449
  223loPI   GL2 3558  13.845   2.652   9.125 -0.1443  0.1756 -0.1235
  223loPI   C1A 3559  14.197   2.883   8.910  0.2422  0.1229  0.0518
  223loPI   C2A 3560  14.182   2.860   8.438 -0.3633  0.0958  0.2090
  223loPI   C3A 3561  14.249   2.981   7.879  0.1229 -0.0224 -0.0485
  223loPI   C4A 3562  14.235   3.324   7.529  0.0255  0.0752  0.0110
  223loPI   C5A 3563  14.028   3.500   7.201  0.2742  0.0676  0.0028
  223loPI   C6A 3564  13.626   3.278   6.975 -0.1544  0.0193 -0.2039
  223loPI   C1B 3565  13.723   2.776   8.690  0.3768  0.2899 -0.0770
  223loPI   C2B 3566  13.705   2.671   8.221  0.3505 -0.3705 -0.1761
  223loPI   C3B 3567  13.488   2.607   7.822  0.0426  0.0076  0.1967
  223loPI   C4B 3568  13.314   2.411   7.509 -0.4289 -0.0234 -0.2076
  224loPI    C1 3569   4.406  17.642   9.608 -0.0245  0.2430 -0.0240
  224loPI    C2 3570   4.764  17.468   9.568 -0.1858 -0.0892 -0.0607
  224loPI    C3 3571   4.689  17.703   9.883  0.0094 -0.1536  0.0350
  224loPI   PO4 3572   4.362  17.659   9.277  0.2289 -0.0278 -0.0210
  224loPI   GL1 3573   4.372  17.608   8.861  0.1088 -0.0686  0.0866
  224loPI   GL2 3574   4.459  17.921   8.807  0.0830 -0.0502  0.2251
  224loPI   C1A 3575   4.476  17.623   8.454 -0.3195  0.0284 -0.2731
  224loPI   C2A 3576   4.515  17.732   8.030 -0.1033 -0.3099  0.0768
  224loPI   C3A 3577   4.174  17.924   7.773 -0.2510  0.1205  0.2798
  224loPI   C4A 3578   3.860  17.852   7.496 -0.1239 -0.0219  0.1107
  224loPI   C5A 3579   3.500  17.883   7.262  0.4164  0.1784  0.2751
  224loPI   C6A 3580   3.031  17.982   7.517 -0.1380 -0.3164  0.3151
  224loPI   C1B 3581   4.529  18.211   8.421  0.2031 -0.1774  0.1140
  224loPI   C2B 3582   4.678  18.288   8.013 -0.0925 -0.0156  0.1220
  224loPI   C3B 3583   4.640  18.131   7.588 -0.0567  0.2723 -0.3954
  224loPI   C4B 3584   4.605  18.499   7.312 -0.1682 -0.2843  0.1226
  225loPI    C1 3585  10.734   9.232   9.752 -0.0185  0.1526  0.0093
  225loPI    C2 3586  10.855   9.327  10.122  0.1521  0.1340 -0.0408
  225loPI    C3 3587  11.123   9.289   9.827  0.0592 -0.2234 -0.0841
  225loPI   PO4 3588  10.438   9.105   9.741 -0.1301  0.1742  0.2918
  225loPI   GL1 3589  10.102   9.026   9.450  0.0345  0.1689  0.0447
  225loPI   GL2 3590  10.207   8.789   9.355 -0.0791 -0.1928 -0.0297
  225loPI   C1A 3591   9.942   9.155   9.040 -0.0524 -0.0437  0.1009
  225loPI   C2A 3592   9.833   9.210   8.632  0.0278 -0.0405  0.1054
  225loPI   C3A 3593   9.773   9.475   8.223  0.1038 -0.0618 -0.4036
  225loPI   C4A 3594   9.771   9.540   7.773 -0.1807  0.0872 -0.3821
  225loPI   C5A 3595   9.744   9.188   7.467  0.1953 -0.1366 -0.2825
  225loPI   C6A 3596   9.475   8.785   7.257  0.0692 -0.1085 -0.1910
  225loPI   C1B 3597   9.973   8.666   8.924 -0.0731  0.2287  0.3004
  225loPI   C2B 3598   9.891   8.668   8.520  0.2264 -0.1616  0.1203
  225loPI   C3B 3599   9.731   8.751   8.103 -0.1527  0.5204  0.3263
  225loPI   C4B 3600   9.464   8.862   7.746  0.2460 -0.2994  0.3588
  226loPI    C1 3601   7.387  10.847   9.893  0.0080  0.1960 -0.2937
  226loPI    C2 3602   7.361  11.134  10.170  0.3218 -0.2618  0.2303
  226loPI    C3 3603   7.599  11.183   9.852 -0.0693  0.2836  0.0059
  226loPI   PO4 3604   7.098  10.723   9.739 -0.2550 -0.2668  0.0553
  226loPI   GL1 3605   6.717  10.552   9.451  0.0159 -0.3194  0.0663
  226loPI   GL2 3606   7.133  10.386   9.298 -0.0209  0.0348  0.0266
  226loPI   C1A 3607   6.741  10.454   9.061 -0.1853 -0.0557 -0.1440
  226loPI   C2A 3608   6.881  10.375   8.660  0.3552 -0.0685 -0.2087
  226loPI   C3A 3609   6.919  10.416   8.204  0.3254  0.0540  0.2891
  226loPI   C4A 3610   6.871  10.228   7.737  0.3949  0.1448  0.1367
  226loPI   C5A 3611   6.547   9.952   7.493  0.0781 -0.0784  0.1564
  226loPI   C6A 3612   6.402   9.502   7.437  0.4016 -0.0288 -0.1092
  226loPI   C1B 3613   7.207  10.593   8.968 -0.2269 -0.0859 -0.1379
  226loPI   C2B 3614   7.305  10.731   8.581  0.0577  0.1232 -0.0382
  226loPI   C3B 3615   7.548  10.967   8.336  0.3601 -0.0564  0.0635
  226loPI   C4B 3616   7.752  11.130   7.908 -0.0808 -0.2766  0.0927
  227loPI    C1 3617  17.863   4.198   9.530 -0.1571  0.1774 -0.2698
  227loPI    C2 3618  18.186   4.294   9.315  0.0369  0.1049 -0.0162
  227loPI    C3 3619  18.089   3.910   9.368  0.0569  0.1186  0.1212
  227loPI   PO4 3620  17.637   4.278   9.398  0.4061 -0.2523  0.0755
  227loPI   GL1 3621  17.528   4.210   8.934 -0.4211  0.2920 -0.3307
  227loPI   GL2 3622  17.875   4.183   8.931 -0.0954 -0.0009  0.4139
  227loPI   C1A 3623  17.394   4.315   8.451 -0.0997  0.0402  0.1316
  227loPI   C2A 3624  17.288   4.218   8.064 -0.0808 -0.1622  0.2338
  227loPI   C3A 3625  17.206   3.741   7.876  0.2329  0.1963 -0.0953
  227loPI   C4A 3626  17.119   3.595   7.449 -0.3058  0.1695 -0.2499
  227loPI   C5A 3627  16.804   3.780   7.312  0.2988 -0.0536  0.1803
  227loPI   C6A 3628  16.886   4.279   7.258  0.0497 -0.0030 -0.0953
  227loPI   C1B 3629  17.889   4.139   8.509  0.0600  0.0884  0.2848
  227loPI   C2B 3630  17.792   4.360   8.159 -0.2754  0.0379  0.2127
  227loPI   C3B 3631  17.550   4.641   7.867  0.1002 -0.2221  0.2093
  227loPI   C4B 3632  17.320   4.695   7.416  0.2024  0.2334 -0.1656
  228loPI    C1 3633  14.855  17.830  10.732  0.0223 -0.2019  0.1240
  228loPI    C2 3634  15.021  18.177  10.838 -0.0802 -0.0740 -0.1266
  228loPI    C3 3635  14.730  18.019  11.061 -0.0606  0.0202 -0.0334
  228loPI   PO4 3636  14.726  17.828  10.416  0.1917  0.1180 -0.1647
  228loPI   GL1 3637  14.692  17.441  10.181  0.1967 -0.2891 -0.0772
  228loPI   GL2 3638  14.595  17.712   9.981  0.0130 -0.1490  0.1657
  228loPI   C1A 3639  14.926  17.341   9.752 -0.1341 -0.0355  0.2329
  228loPI   C2A 3640  14.785  17.233   9.370  0.2935  0.0198  0.1664
  228loPI   C3A 3641  14.783  16.751   9.177 -0.0449 -0.1252  0.2588
  228loPI   C4A 3642  14.919  16.692   8.638  0.0948 -0.1050 -0.0866
  228loPI   C5A 3643  14.962  16.749   8.248 -0.2616  0.2849 -0.0527
  228loPI   C6A 3644  14.841  16.907   7.884 -0.1547 -0.2196 -0.0502
  228loPI   C1B 3645  14.502  17.644   9.591 -0.1866  0.0717  0.2152
  228loPI   C2B 3646  14.600  17.586   9.085  0.1998  0.1417  0.0291
  228loPI   C3B 3647  14.521  17.700   8.683 -0.2223  0.2766  0.0034
  228loPI   C4B 3648  14.524  17.605   8.270  0.2974 -0.1242  0.0350
  229loPI    C1 3649   0.320   9.892  10.663  0.1818 -0.0069 -0.1621
  229loPI    C2 3650   0.343   9.524  10.817 -0.0491 -0.0031 -0.1145
  229loPI    C3 3651   0.506   9.832  11.012  0.0555 -0.0643 -0.1040
  229loPI   PO4 3652   0.124   9.855  10.381 -0.1334 -0.0050 -0.2775
  229loPI   GL1 3653   0.193   9.911   9.944  0.0757  0.2890 -0.0896
  229loPI   GL2 3654  -0.009   9.714   9.600  0.2441  0.2413 -0.3568
  229loPI   C1A 3655   0.183  10.184   9.540  0.0219  0.0983  0.6354
  229loPI   C2A 3656   0.347  10.322   9.092  0.2009 -0.0475 -0.2684
  229loPI   C3A 3657   0.307  10.080   8.707 -0.2487 -0.2379  0.0911
  229loPI   C4A 3658   0.571  10.120   8.324 -0.0643 -0.1922 -0.1416
  229loPI   C5A 3659   0.606  10.176   7.946  0.2721 -0.2617  0.0790
  229loPI   C6A 3660   0.741   9.835   7.699 -0.2084 -0.0600 -0.0667
  229loPI   C1B 3661   0.193   9.769   9.217  0.1030  0.0149  0.0870
  229loPI   C2B 3662   0.081   9.619   8.794 -0.3215  0.0723  0.1357
  229loPI   C3B 3663   0.162   9.699   8.381 -0.0185  0.3074 -0.1276
  229loPI   C4B 3664   0.256   9.811   7.961 -0.0938  0.4122  0.2286
  230loPI    C1 3665   1.844   3.609   9.572 -0.2779 -0.1071 -0.2342
  230loPI    C2 3666   1.609   3.895   9.419 -0.1725  0.0497 -0.1067
  230loPI    C3 3667   1.547   3.763   9.792  0.0791  0.2542  0.0110
  230loPI   PO4 3668   1.852   3.456   9.332  0.5247  0.2660 -0.1300
  230loPI   GL1 3669   1.602   3.392   9.039  0.1716 -0.1049 -0.2738
  230loPI   GL2 3670   1.708   3.018   9.099 -0.0666  0.0077 -0.1288
  230loPI   C1A 3671   1.514   3.513   8.522  0.0113 -0.0175 -0.0872
  230loPI   C2A 3672   1.310   3.644   8.157  0.1634 -0.0920 -0.2691
  230loPI   C3A 3673   1.142   3.635   7.740 -0.3173  0.1266  0.0576
  230loPI   C4A 3674   1.192   3.480   7.336  0.0903  0.3227  0.0557
  230loPI   C5A 3675   1.460   3.267   7.076  0.3108  0.1215  0.0779
  230loPI   C6A 3676   1.768   3.547   6.844 -0.1169  0.0723 -0.0296
  230loPI   C1B 3677   1.844   2.996   8.685  0.4566 -0.0971  0.0049
  230loPI   C2B 3678   1.791   3.187   8.234  0.1163 -0.2568 -0.0607
  230loPI   C3B 3679   1.612   3.392   7.838 -0.1259  0.0484  0.0792
  230loPI   C4B 3680   1.642   3.625   7.502 -0.3745 -0.1272 -0.2705
  231loPI    C1 3681  18.930  10.784  10.588  0.0203  0.2206 -0.1012
  231loPI    C2 3682  19.208  10.511  10.681 -0.3086 -0.0930 -0.0113
  231loPI    C3 3683  18.830  10.459  10.800 -0.3803  0.4034 -0.0009
  231loPI   PO4 3684  18.917  10.766  10.328  0.2568 -0.0322 -0.0811
  231loPI   GL1 3685  18.776  10.721   9.903 -0.0418  0.0996  0.1658
  231loPI   GL2 3686  19.074  10.561   9.727 -0.0793 -0.2235 -0.1981
  231loPI   C1A 3687  18.574  11.157   9.713  0.0127 -0.1607  0.0177
  231loPI   C2A 3688  18.421  11.516   9.532  0.0130 -0.1842  0.0781
  231loPI   C3A 3689  18.446  11.886   9.163 -0.2539  0.2425  0.0075
  231loPI   C4A 3690  18.238  11.959   8.685 -0.2710 -0.3664 -0.2498
  231loPI   C5A 3691  18.068  11.969   8.209 -0.3701  0.1836 -0.2869
  231loPI   C6A 3692  17.835  12.325   7.872 -0.2564 -0.3836 -0.2178
  231loPI   C1B 3693  19.035  10.581   9.332  0.2062  0.0382  0.3790
  231loPI   C2B 3694  19.208  10.700   8.901  0.1407  0.2222  0.0666
  231loPI   C3B 3695  19.163  10.698   8.408 -0.1028  0.1579  0.1354
  231loPI   C4B 3696  18.999  10.727   7.990 -0.1394 -0.0091 -0.1821
  232loPI    C1 3697   4.598   0.111   9.396 -0.3782  0.0489  0.2419
  232loPI    C2 3698   4.797   0.243   9.717 -0.2185 -0.0741  0.1951
  232loPI    C3 3699   4.682  -0.139   9.696 -0.2794 -0.0524  0.1306
  232loPI   PO4 3700   4.664   0.187   9.151 -0.0321 -0.1011  0.0597
  232loPI   GL1 3701   4.577  -0.002   8.751  0.1520  0.1724  0.1500
  232loPI   GL2 3702   4.852   0.089   8.657  0.0317 -0.1512 -0.0446
  232loPI   C1A 3703   4.312   0.094   8.387 -0.0662  0.1426 -0.0668
  232loPI   C2A 3704   4.177   0.038   7.902  0.4890 -0.2578  0.2265
  232loPI   C3A 3705   4.084  -0.117   7.543 -0.2353 -0.0562 -0.1108
  232loPI   C4A 3706   3.778  -0.162   7.265 -0.1807  0.2294 -0.1669
  232loPI   C5A 3707   3.640   0.090   6.949 -0.2570 -0.2959  0.1434
  232loPI   C6A 3708   3.288   0.463   6.777  0.0443  0.0354  0.0959
  232loPI   C1B 3709   4.986   0.074   8.302  0.1255  0.0150  0.0719
  232loPI   C2B 3710   5.074  -0.044   8.007  0.0957 -0.3537  0.0583
  232loPI   C3B 3711   4.843  -0.128   7.532 -0.0970 -0.2598 -0.1824
  232loPI   C4B 3712   4.937  -0.021   7.199  0.0623  0.3788  0.0533
  233loPI    C1 3713   4.228  12.063  10.142  0.0129  0.1688  0.1322
  233loPI    C2 3714   4.585  11.900  10.068 -0.0378  0.1913 -0.1779
  233loPI    C3 3715   4.553  12.200  10.331  0.1565  0.1327 -0.0849
  233loPI   PO4 3716   4.114  11.935   9.891 -0.1155  0.0165 -0.1400
  233loPI   GL1 3717   4.197  12.175   9.503  0.0148 -0.0867 -0.1412
  233loPI   GL2 3718   4.287  12.543   9.394  0.1438  0.3099  0.2093
  233loPI   C1A 3719   3.766  12.209   9.356 -0.0439  0.0272  0.1192
  233loPI   C2A 3720   3.642  11.885   8.987 -0.0528 -0.1940 -0.3192
  233loPI   C3A 3721   3.605  11.607   8.641  0.1515  0.1593 -0.0254
  233loPI   C4A 3722   3.619  11.288   8.281  0.0696 -0.0079 -0.2128
  233loPI   C5A 3723   3.368  10.986   7.934 -0.1158  0.0997 -0.0169
  233loPI   C6A 3724   3.270  10.620   7.903 -0.0331  0.0865 -0.1185
  233loPI   C1B 3725   4.109  12.287   9.009  0.3442  0.0180  0.0334
  233loPI   C2B 3726   3.822  12.177   8.634  0.2419 -0.4401 -0.0845
  233loPI   C3B 3727   3.958  11.953   8.303 -0.4814  0.0339  0.1497
  233loPI   C4B 3728   3.792  11.616   7.957  0.0958 -0.0477 -0.0706
  234loPI    C1 3729  18.220  15.678  10.140 -0.0108 -0.1277 -0.1570
  234loPI    C2 3730  18.453  15.636  10.462 -0.1773  0.1329  0.0008
  234loPI    C3 3731  18.105  15.831  10.491 -0.3855 -0.1914 -0.2476
  234loPI   PO4 3732  18.278  15.453  10.012 -0.4131 -0.1197  0.1206
  234loPI   GL1 3733  18.383  15.419   9.564  0.1187  0.3775  0.2792
  234loPI   GL2 3734  18.143  15.339   9.444  0.1230  0.0226 -0.2824
  234loPI   C1A 3735  18.580  15.513   9.229 -0.0671  0.1558 -0.0650
  234loPI   C2A 3736  18.643  15.484   8.881 -0.1689 -0.2492  0.0606
  234loPI   C3A 3737  18.440  15.530   8.533  0.0850 -0.0935 -0.2257
  234loPI   C4A 3738  18.241  15.489   8.122  0.2216 -0.3407  0.1912
  234loPI   C5A 3739  18.336  15.210   7.770  0.1057 -0.3134 -0.0864
  234loPI   C6A 3740  18.446  15.432   7.432 -0.0898 -0.3619  0.3076
  234loPI   C1B 3741  18.136  15.398   9.020 -0.1076 -0.2147 -0.2428
  234loPI   C2B 3742  17.963  15.394   8.693 -0.0046  0.1069 -0.3816
  234loPI   C3B 3743  17.798  15.326   8.303  0.0813  0.3247 -0.2930
  234loPI   C4B 3744  17.764  15.321   7.889  0.2871  0.2872 -0.1748
  235loPI    C1 3745   3.807   8.858  10.477  0.1915  0.0781  0.0721
  235loPI    C2 3746   3.656   9.207  10.601 -0.0689 -0.1151  0.3106
  235loPI    C3 3747   3.567   8.869  10.796  0.1391 -0.3239  0.0522
  235loPI   PO4 3748   3.804   8.872  10.178 -0.0367 -0.3154  0.2534
  235loPI   GL1 3749   3.762   9.026   9.786  0.0275 -0.2785 -0.1593
  235loPI   GL2 3750   3.719   9.429   9.792 -0.2756 -0.6150 -0.2756
  235loPI   C1A 3751   4.137   9.102   9.541 -0.1409  0.0457  0.0110
  235loPI   C2A 3752   4.314   8.974   9.210  0.1867  0.0870  0.0943
  235loPI   C3A 3753   4.347   9.021   8.784 -0.0050  0.2556 -0.1902
  235loPI   C4A 3754   4.323   9.318   8.512  0.0017 -0.2505 -0.2194
  235loPI   C5A 3755   4.412   9.324   8.071  0.0748 -0.2896 -0.0013
  235loPI   C6A 3756   4.149   9.250   7.769  0.0868 -0.0716 -0.1402
  235loPI   C1B 3757   3.831   9.544   9.309 -0.1063  0.0794  0.3798
  235loPI   C2B 3758   4.049   9.438   8.991 -0.4348 -0.2791  0.3023
  235loPI   C3B 3759   3.921   9.638   8.493 -0.2545 -0.2560 -0.0854
  235loPI   C4B 3760   3.903   9.729   8.043  0.0030 -0.2236  0.1755
  236loPI    C1 3761  13.262  14.560  10.076  0.0488 -0.0878 -0.2096
  236loPI    C2 3762  13.138  14.368   9.747 -0.0995 -0.3121 -0.0265
  236loPI    C3 3763  13.174  14.170  10.093  0.1757 -0.1071  0.0665
  236loPI   PO4 3764  13.532  14.668  10.092 -0.0581 -0.0478  0.0349
  236loPI   GL1 3765  13.732  14.681   9.756 -0.1052 -0.1548 -0.1072
  236loPI   GL2 3766  13.480  14.871   9.581  0.1755  0.3378 -0.0138
  236loPI   C1A 3767  13.853  14.465   9.299  0.1234  0.1035  0.1319
  236loPI   C2A 3768  13.868  14.440   8.894  0.1440  0.2308 -0.1362
  236loPI   C3A 3769  13.960  14.342   8.473  0.0685 -0.0300 -0.1010
  236loPI   C4A 3770  14.108  14.255   8.135 -0.0833  0.0693  0.0012
  236loPI   C5A 3771  14.314  14.263   7.714  0.3354 -0.3362  0.1969
  236loPI   C6A 3772  14.687  14.216   7.511 -0.0153  0.0938 -0.0538
  236loPI   C1B 3773  13.517  14.724   9.073 -0.0098 -0.1471  0.0687
  236loPI   C2B 3774  13.636  14.764   8.614 -0.1621 -0.0267 -0.0527
  236loPI   C3B 3775  13.800  14.682   8.085  0.3128  0.1565 -0.1928
  236loPI   C4B 3776  14.185  14.720   7.861 -0.1580 -0.1297 -0.1106
  237loPI    C1 3777  13.570  10.441  10.427  0.0036 -0.1299 -0.2595
  237loPI    C2 3778  13.355  10.777  10.397  0.0972 -0.0240  0.1860
  237loPI    C3 3779  13.664  10.759  10.650  0.1277 -0.4299  0.1265
  237loPI   PO4 3780  13.525  10.389  10.154 -0.1266  0.0245 -0.0347
  237loPI   GL1 3781  13.403  10.555   9.702 -0.0933  0.0774 -0.0157
  237loPI   GL2 3782  13.489  10.772   9.491  0.0277 -0.0447  0.2178
  237loPI   C1A 3783  13.807  10.445   9.397  0.2286  0.0162  0.2659
  237loPI   C2A 3784  13.909  10.415   9.013  0.2008  0.0517 -0.1527
  237loPI   C3A 3785  14.069  10.419   8.597  0.0737  0.0450 -0.2458
  237loPI   C4A 3786  14.155  10.175   8.230 -0.1244 -0.2513  0.4079
  237loPI   C5A 3787  14.423  10.058   7.991 -0.0028  0.0442 -0.0779
  237loPI   C6A 3788  14.575   9.833   7.618  0.2540 -0.2135  0.2447
  237loPI   C1B 3789  13.494  10.715   9.131 -0.4029 -0.2862  0.1317
  237loPI   C2B 3790  13.553  10.620   8.656 -0.1505  0.3961  0.4481
  237loPI   C3B 3791  13.507  10.453   8.292  0.1909  0.1219 -0.1140
  237loPI   C4B 3792  13.165  10.268   8.131 -0.2334 -0.3823 -0.0853
  238loPI    C1 3793  15.777   0.783   9.870  0.1132  0.2893 -0.0651
  238loPI    C2 3794  15.388   0.810   9.957  0.1127 -0.0895  0.0645
  238loPI    C3 3795  15.661   0.834  10.249  0.1791  0.0116 -0.0054
  238loPI   PO4 3796  15.762   0.872   9.594 -0.1138 -0.0297 -0.1142
  238loPI   GL1 3797  15.798   1.031   9.229 -0.1628 -0.2003 -0.1179
  238loPI   GL2 3798  16.172   1.043   9.207  0.0916  0.1162  0.0767
  238loPI   C1A 3799  15.629   0.984   8.809  0.0766  0.0966  0.3042
  238loPI   C2A 3800  15.472   0.905   8.367  0.3546 -0.2036  0.0525
  238loPI   C3A 3801  15.614   0.604   8.235 -0.0593  0.2661  0.1160
  238loPI   C4A 3802  15.916   0.478   7.851 -0.1981  0.0249  0.0861
  238loPI   C5A 3803  15.981   0.082   7.559  0.0073  0.0417  0.0072
  238loPI   C6A 3804  16.263  -0.223   7.381  0.0968 -0.3343 -0.0244
  238loPI   C1B 3805  16.101   1.033   8.809 -0.0244 -0.0561  0.0313
  238loPI   C2B 3806  15.955   1.030   8.447 -0.0530 -0.0586  0.1523
  238loPI   C3B 3807  15.821   1.038   8.067 -0.2578 -0.2094 -0.2389
  238loPI   C4B 3808  15.519   0.902   7.839 -0.2820 -0.2499  0.0581
  239loPI    C1 3809   2.052   1.617   9.566 -0.1664  0.1370 -0.1508
  239loPI    C2 3810   2.240   1.575   9.216 -0.0823  0.0778 -0.0991
  239loPI    C3 3811   2.129   1.252   9.423  0.1316  0.1096  0.0686
  239loPI   PO4 3812   1.937   1.886   9.467  0.2274  0.1264 -0.2514
  239loPI   GL1 3813   1.857   2.060   9.042  0.1769 -0.2182  0.1369
  239loPI   GL2 3814   1.692   2.333   9.133 -0.1005  0.1007  0.1104
  239loPI   C1A 3815   1.674   1.964   8.706 -0.2091  0.0507 -0.3120
  239loPI   C2A 3816   1.831   1.801   8.373  0.0914 -0.2305 -0.0937
  239loPI   C3A 3817   1.775   1.908   7.993 -0.1569 -0.1006 -0.1099
  239loPI   C4A 3818   1.760   2.014   7.498  0.1570  0.1684  0.0909
  239loPI   C5A 3819   1.669   2.367   7.248  0.1759 -0.1196 -0.2087
  239loPI   C6A 3820   1.685   2.643   6.930 -0.1995  0.2418 -0.3355
  239loPI   C1B 3821   1.591   2.612   8.820 -0.0872  0.2787 -0.1232
  239loPI   C2B 3822   1.579   2.749   8.354 -0.0736  0.4185  0.3255
  239loPI   C3B 3823   1.619   2.824   7.926  0.0598 -0.1782 -0.1769
  239loPI   C4B 3824   1.864   2.778   7.532 -0.1208  0.1143  0.0241
  240loPI    C1 3825   6.785   8.195  10.120  0.2312 -0.1207  0.4172
  240loPI    C2 3826   6.463   8.346   9.937  0.3453 -0.2812  0.0747
  240loPI    C3 3827   6.502   8.380  10.334  0.0082 -0.0804  0.0949
  240loPI   PO4 3828   6.828   8.038   9.906 -0.0128 -0.0727 -0.0681
  240loPI   GL1 3829   6.912   7.823   9.489 -0.2584  0.0299 -0.3237
  240loPI   GL2 3830   6.935   7.452   9.457  0.1238 -0.1289  0.0856
  240loPI   C1A 3831   6.859   8.027   9.050  0.0308  0.1274 -0.0618
  240loPI   C2A 3832   6.746   8.058   8.550 -0.0610  0.1048  0.0623
  240loPI   C3A 3833   6.579   8.144   8.116  0.0325 -0.1699  0.2784
  240loPI   C4A 3834   6.498   8.570   7.806  0.3852  0.2849 -0.3669
  240loPI   C5A 3835   6.604   8.673   7.405  0.5179 -0.0744  0.2187
  240loPI   C6A 3836   6.312   8.937   7.109  0.0985  0.1732  0.3657
  240loPI   C1B 3837   6.704   7.394   9.103  0.1296  0.0388 -0.0650
  240loPI   C2B 3838   6.581   7.623   8.706 -0.0561  0.1173 -0.3219
  240loPI   C3B 3839   6.607   7.625   8.341 -0.1718 -0.0916  0.4315
  240loPI   C4B 3840   6.464   7.554   7.903 -0.1312  0.0175  0.1763
  241loPI    C1 3841   3.568   4.503   9.745  0.0450 -0.0723  0.1754
  241loPI    C2 3842   3.261   4.463   9.998 -0.3029  0.2053 -0.1891
  241loPI    C3 3843   3.414   4.825   9.926 -0.0790  0.1039 -0.2314
  241loPI   PO4 3844   3.546   4.449   9.482 -0.1254 -0.4597 -0.3362
  241loPI   GL1 3845   3.717   4.543   9.110 -0.2035 -0.0519 -0.1030
  241loPI   GL2 3846   3.796   4.295   9.088  0.0544  0.3646 -0.0047
  241loPI   C1A 3847   3.652   4.846   8.874  0.1907 -0.0344  0.1672
  241loPI   C2A 3848   3.514   5.094   8.569 -0.3507  0.0733  0.1711
  241loPI   C3A 3849   3.583   5.225   8.069  0.0030 -0.0838 -0.4560
  241loPI   C4A 3850   3.558   5.289   7.729  0.1755 -0.0974 -0.1695
  241loPI   C5A 3851   3.738   5.092   7.440 -0.1238  0.1843  0.1249
  241loPI   C6A 3852   3.982   4.815   7.136 -0.6238 -0.0655  0.1443
  241loPI   C1B 3853   3.837   4.477   8.609  0.2382 -0.1948  0.0029
  241loPI   C2B 3854   3.766   4.749   8.290 -0.0827 -0.1356  0.0516
  241loPI   C3B 3855   3.585   4.806   7.790  0.4070  0.0916  0.0909
  241loPI   C4B 3856   3.376   4.713   7.522  0.2841  0.1048 -0.3591
  242loPI    C1 3857  15.222   6.459   9.875  0.0991  0.0948  0.0758
  242loPI    C2 3858  15.419   6.215  10.122 -0.0355  0.2163  0.3061
  242loPI    C3 3859  15.489   6.608  10.132  0.1856  0.1908 -0.0681
  242loPI   PO4 3860  15.284   6.412   9.576  0.0656  0.0995 -0.4229
  242loPI   GL1 3861  15.486   6.645   9.321 -0.2353 -0.1310 -0.1011
  242loPI   GL2 3862  15.395   6.974   9.174  0.1009 -0.2294  0.0902
  242loPI   C1A 3863  15.296   6.531   8.868  0.0114  0.0059  0.1124
  242loPI   C2A 3864  15.311   6.692   8.444  0.1505  0.1688 -0.0733
  242loPI   C3A 3865  15.225   6.848   7.995 -0.2727 -0.2696  0.0004
  242loPI   C4A 3866  15.213   6.630   7.548 -0.2908  0.0726  0.0565
  242loPI   C5A 3867  15.420   6.605   7.140  0.0106 -0.1617  0.0108
  242loPI   C6A 3868  15.464   6.670   6.749  0.1875  0.1246 -0.0096
  242loPI   C1B 3869  15.386   7.226   8.743 -0.3115  0.0932  0.1416
  242loPI   C2B 3870  15.304   7.153   8.390 -0.0607 -0.2345  0.0031
  242loPI   C3B 3871  15.272   7.345   7.981  0.1225  0.0227 -0.1504
  242loPI   C4B 3872  15.187   7.574   7.555 -0.4732 -0.1386  0.1207
  243loPI    C1 3873   1.700   2.683   9.558  0.0954 -0.1061  0.0226
  243loPI    C2 3874   1.375   2.708   9.326  0.0477 -0.2347  0.0747
  243loPI    C3 3875   1.364   2.846   9.702  0.0262 -0.3190  0.1051
  243loPI   PO4 3876   1.959   2.719   9.400 -0.2444 -0.1927  0.1102
  243loPI   GL1 3877   2.047   2.690   8.983 -0.1867 -0.0922  0.1492
  243loPI   GL2 3878   2.225   2.895   8.914 -0.0015  0.0519 -0.1524
  243loPI   C1A 3879   2.056   2.455   8.666  0.2550 -0.0962  0.0127
  243loPI   C2A 3880   1.888   2.385   8.303 -0.3846 -0.0359  0.1341
  243loPI   C3A 3881   1.915   2.396   7.872 -0.1194 -0.0308 -0.2422
  243loPI   C4A 3882   2.143   2.323   7.525 -0.0508  0.1188  0.0560
  243loPI   C5A 3883   2.510   2.257   7.223  0.1662 -0.1192 -0.2820
  243loPI   C6A 3884   2.397   1.900   6.932  0.0954 -0.1379  0.1056
  243loPI   C1B 3885   2.182   2.890   8.377  0.2445  0.3150 -0.3184
  243loPI   C2B 3886   2.227   2.917   7.999  0.0882 -0.1371  0.0428
  243loPI   C3B 3887   2.083   3.259   7.608 -0.1071  0.3148  0.2417
  243loPI   C4B 3888   1.891   3.151   7.120  0.1014  0.1368 -0.2251
  244loPI    C1 3889  15.640   4.719   9.800 -0.1523  0.1284  0.1615
  244loPI    C2 3890  15.993   4.665   9.980 -0.1245  0.0279  0.0775
  244loPI    C3 3891  15.706   4.876  10.162 -0.0031  0.1539  0.1239
  244loPI   PO4 3892  15.696   4.773   9.552  0.3605  0.1350 -0.2901
  244loPI   GL1 3893  15.948   4.897   9.144  0.2783  0.4753  0.2697
  244loPI   GL2 3894  16.067   5.172   9.384  0.2467 -0.1163 -0.0514
  244loPI   C1A 3895  15.615   4.891   8.848  0.1560 -0.2325 -0.0117
  244loPI   C2A 3896  15.661   4.917   8.417  0.1137  0.0437  0.0271
  244loPI   C3A 3897  15.488   4.804   7.914 -0.5196 -0.2340 -0.1593
  244loPI   C4A 3898  15.285   4.913   7.670 -0.1163  0.2072 -0.2573
  244loPI   C5A 3899  15.354   5.248   7.494  0.2779 -0.0010  0.0320
  244loPI   C6A 3900  15.046   5.541   7.352 -0.3067 -0.2734  0.2268
  244loPI   C1B 3901  15.758   5.341   9.066 -0.1016 -0.1000  0.0639
  244loPI   C2B 3902  15.494   5.405   8.732 -0.1066 -0.1066  0.5629
  244loPI   C3B 3903  15.366   5.469   8.302 -0.2111  0.0008  0.0205
  244loPI   C4B 3904  15.607   5.405   7.929 -0.0672  0.0472  0.0432
  245loPI    C1 3905  10.816  17.561  10.188  0.1976  0.2785 -0.0752
  245loPI    C2 3906  10.737  17.949  10.241  0.1218  0.2684 -0.1122
  245loPI    C3 3907  10.946  17.748  10.516 -0.1119  0.2600  0.0622
  245loPI   PO4 3908  10.772  17.571   9.894 -0.0824 -0.0334 -0.2084
  245loPI   GL1 3909  10.758  17.599   9.444  0.0628  0.2206 -0.2097
  245loPI   GL2 3910  10.558  17.552   9.244  0.2624 -0.0436  0.1716
  245loPI   C1A 3911  11.046  17.873   9.145 -0.1154 -0.0477  0.1033
  245loPI   C2A 3912  11.123  17.825   8.718  0.0675  0.0965  0.4991
  245loPI   C3A 3913  11.090  17.578   8.428  0.0614  0.3428 -0.0406
  245loPI   C4A 3914  11.195  17.429   8.134 -0.0363 -0.0477 -0.2224
  245loPI   C5A 3915  10.988  17.309   7.750  0.0595  0.1404 -0.0972
  245loPI   C6A 3916  10.820  17.519   7.323 -0.0616 -0.3842  0.0001
  245loPI   C1B 3917  10.593  17.782   8.859 -0.2799  0.0987 -0.3692
  245loPI   C2B 3918  10.792  18.036   8.465  0.1289 -0.2705  0.1893
  245loPI   C3B 3919  11.054  18.057   8.175 -0.3287  0.0429  0.3519
  245loPI   C4B 3920  11.267  17.939   8.014 -0.0146  0.0641  0.2358
  246loPI    C1 3921   1.417   4.876   9.202 -0.1571  0.0933  0.2893
  246loPI    C2 3922   1.577   4.526   9.311  0.0440  0.1221  0.0939
  246loPI    C3 3923   1.760   4.753   9.038 -0.2420  0.2390 -0.0045
  246loPI   PO4 3924   1.273   4.945   9.040  0.0444 -0.0023  0.1178
  246loPI   GL1 3925   1.210   4.899   8.633 -0.0306 -0.5489  0.3287
  246loPI   GL2 3926   1.393   4.625   8.723  0.0501  0.0090 -0.3971
  246loPI   C1A 3927   1.162   4.990   8.204 -0.1041  0.1563  0.4437
  246loPI   C2A 3928   1.270   4.816   7.770 -0.1038  0.1816 -0.0679
  246loPI   C3A 3929   1.202   4.891   7.271 -0.0727 -0.2920 -0.4665
  246loPI   C4A 3930   0.971   5.165   7.046 -0.1436 -0.0610 -0.0890
  246loPI   C5A 3931   0.783   5.580   6.770  0.0612 -0.1926 -0.1455
  246loPI   C6A 3932   0.484   5.529   6.460 -0.0031 -0.5677  0.0181
  246loPI   C1B 3933   1.307   4.532   8.298  0.0727 -0.0151  0.1369
  246loPI   C2B 3934   0.972   4.489   8.001 -0.1233 -0.0566  0.3014
  246loPI   C3B 3935   0.834   4.431   7.585  0.1480 -0.0182 -0.0951
  246loPI   C4B 3936   0.643   4.108   7.219  0.2071  0.2781 -0.1435
  247loPI    C1 3937  14.217  10.598  10.432 -0.0733 -0.1969  0.1381
  247loPI    C2 3938  14.058  10.961  10.487 -0.2639 -0.2260 -0.1922
  247loPI    C3 3939  14.452  10.921  10.432 -0.2032 -0.1015  0.1295
  247loPI   PO4 3940  14.017  10.511  10.279  0.1020 -0.1086  0.1378
  247loPI   GL1 3941  14.094  10.432   9.899  0.0911 -0.0209 -0.1809
  247loPI   GL2 3942  14.237  10.251   9.672  0.1508  0.0961  0.2362
  247loPI   C1A 3943  14.198  10.698   9.509 -0.2673  0.2165  0.1500
  247loPI   C2A 3944  14.388  10.614   9.176  0.2199 -0.0788  0.1733
  247loPI   C3A 3945  14.505  10.444   8.842  0.3188 -0.2160  0.1072
  247loPI   C4A 3946  14.593  10.351   8.368 -0.1389 -0.3569 -0.1289
  247loPI   C5A 3947  14.513  10.625   7.976 -0.0661 -0.2236 -0.0430
  247loPI   C6A 3948  14.373  11.036   7.802 -0.5119 -0.3388  0.1328
  247loPI   C1B 3949  14.279  10.129   9.225 -0.0685  0.0636 -0.0153
  247loPI   C2B 3950  14.362   9.980   8.766  0.0944  0.0012 -0.0689
  247loPI   C3B 3951  14.563   9.766   8.382  0.0520 -0.2540 -0.0370
  247loPI   C4B 3952  14.891   9.944   8.125  0.3812  0.0834 -0.2517
  248loPI    C1 3953  10.527   3.081   9.612 -0.1145  0.2081  0.1057
  248loPI    C2 3954  10.701   2.782   9.813 -0.2976  0.0782  0.0731
  248loPI    C3 3955  10.695   3.151   9.968 -0.4893 -0.0329  0.3365
  248loPI   PO4 3956  10.709   3.065   9.337 -0.1397  0.1280  0.1435
  248loPI   GL1 3957  10.424   3.002   9.111  0.1045 -0.1292  0.0055
  248loPI   GL2 3958  10.209   2.795   8.998 -0.2577 -0.1246 -0.1714
  248loPI   C1A 3959  10.366   3.238   8.590 -0.0759 -0.2014  0.0964
  248loPI   C2A 3960  10.371   3.301   8.057 -0.1509 -0.1162 -0.0456
  248loPI   C3A 3961  10.369   3.646   7.750 -0.5181  0.1037  0.2597
  248loPI   C4A 3962  10.564   3.683   7.465  0.0336 -0.4116 -0.1143
  248loPI   C5A 3963  10.987   3.877   7.443  0.0346  0.1789  0.1323
  248loPI   C6A 3964  11.314   3.857   7.703  0.2364 -0.0882  0.3438
  248loPI   C1B 3965  10.336   2.750   8.474  0.2501 -0.2913 -0.1538
  248loPI   C2B 3966  10.447   2.785   8.071  0.2185 -0.1415 -0.1540
  248loPI   C3B 3967  10.397   2.883   7.670 -0.0819  0.0931  0.0485
  248loPI   C4B 3968  10.210   3.239   7.528 -0.1453  0.0992 -0.1942
  249loPI    C1 3969   2.843  12.320  10.472  0.1677  0.3079 -0.1952
  249loPI    C2 3970   3.051  12.576  10.699  0.2452  0.0231  0.0625
  249loPI    C3 3971   2.936  12.223  10.849 -0.4610  0.1857 -0.0600
  249loPI   PO4 3972   2.983  12.269  10.192  0.0960  0.2465 -0.2589
  249loPI   GL1 3973   2.877  12.150   9.728 -0.2090 -0.4099 -0.2540
  249loPI   GL2 3974   2.592  12.311   9.665  0.0759  0.2975  0.1354
  249loPI   C1A 3975   3.188  12.244   9.345 -0.2015 -0.2559  0.2305
  249loPI   C2A 3976   3.203  12.183   8.980  0.0044 -0.0742 -0.0934
  249loPI   C3A 3977   3.337  12.171   8.582 -0.2327  0.3008 -0.1335
  249loPI   C4A 3978   3.538  12.103   8.203 -0.2560  0.0985  0.0703
  249loPI   C5A 3979   3.724  12.312   7.842  0.3201 -0.0686  0.1191
  249loPI   C6A 3980   3.893  12.297   7.336 -0.2731 -0.1173 -0.0889
  249loPI   C1B 3981   2.760  12.029   9.268  0.2891 -0.1445 -0.0845
  249loPI   C2B 3982   2.679  11.981   8.851 -0.0744  0.0214  0.0223
  249loPI   C3B 3983   2.728  11.995   8.454 -0.2680 -0.3198 -0.0944
  249loPI   C4B 3984   2.817  11.601   8.136  0.1878 -0.0061  0.1521
  250loPI    C1 3985  17.539  14.782   9.953 -0.1989  0.0542  0.0513
  250loPI    C2 3986  17.449  14.567   9.628 -0.1163  0.2252 -0.0867
  250loPI    C3 3987  17.831  14.615   9.736 -0.1496  0.0705  0.1047
  250loPI   PO4 3988  17.413  14.998   9.850  0.4050 -0.1908 -0.3652
  250loPI   GL1 3989  17.372  15.238   9.620 -0.0148  0.1496  0.0613
  250loPI   GL2 3990  17.232  15.057   9.398 -0.1981 -0.1957 -0.5135
  250loPI   C1A 3991  17.222  15.551   9.295  0.0517 -0.2202 -0.1866
  250loPI   C2A 3992  17.206  15.531   8.981  0.2032  0.1613 -0.1120
  250loPI   C3A 3993  17.071  15.758   8.654 -0.1297 -0.0719 -0.1567
  250loPI   C4A 3994  16.963  16.001   8.313  0.0237 -0.2779  0.0347
  250loPI   C5A 3995  16.952  16.059   7.935 -0.0568  0.0570 -0.2319
  250loPI   C6A 3996  17.172  16.055   7.466  0.0389 -0.0374 -0.3781
  250loPI   C1B 3997  16.953  15.147   9.104 -0.0455  0.0833  0.0198
  250loPI   C2B 3998  16.713  15.357   8.757 -0.1021  0.3742 -0.2137
  250loPI   C3B 3999  16.561  15.598   8.361 -0.2054 -0.3153  0.3673
  250loPI   C4B 4000  16.470  15.286   8.016 -0.1897  0.4375  0.0797
  251loPI    C1 4001   4.865   2.977   9.764  0.0370  0.0641 -0.0394
  251loPI    C2 4002   4.925   3.320   9.961 -0.1678  0.1323 -0.0933
  251loPI    C3 4003   4.614   3.087  10.056  0.0022 -0.0676 -0.0189
  251loPI   PO4 4004   4.823   3.041   9.464 -0.1048  0.0181  0.1511
  251loPI   GL1 4005   4.584   3.025   9.161 -0.1900  0.2781  0.2134
  251loPI   GL2 4006   4.294   3.028   9.028  0.0220 -0.2307 -0.1519
  251loPI   C1A 4007   4.783   3.230   8.828 -0.1375 -0.0919  0.3692
  251loPI   C2A 4008   4.773   3.327   8.442 -0.1187 -0.1231  0.2442
  251loPI   C3A 4009   4.761   3.283   7.982  0.3664 -0.3184  0.0343
  251loPI   C4A 4010   4.984   3.439   7.653 -0.2051 -0.1841  0.2562
  251loPI   C5A 4011   5.362   3.461   7.339 -0.1273  0.0416  0.0972
  251loPI   C6A 4012   5.572   3.850   7.271  0.1592  0.0212 -0.0760
  251loPI   C1B 4013   4.439   2.955   8.635 -0.2748 -0.4273  0.0112
  251loPI   C2B 4014   4.452   2.967   8.232 -0.1769 -0.2137 -0.1809
  251loPI   C3B 4015   4.533   2.829   7.952 -0.2731  0.0997 -0.1345
  251loPI   C4B 4016   4.901   2.809   7.738  0.1174  0.1453 -0.0998
  252loPI    C1 4017  16.340   3.075   9.564 -0.0793 -0.0095 -0.1505
  252loPI    C2 4018  16.374   2.682   9.635  0.0219 -0.0375 -0.3454
  252loPI    C3 4019  16.073   2.891   9.798  0.0887 -0.1528 -0.0692
  252loPI   PO4 4020  16.469   3.043   9.249 -0.3139 -0.1526  0.4351
  252loPI   GL1 4021  16.675   2.861   8.917  0.3593 -0.2485  0.0518
  252loPI   GL2 4022  16.508   2.563   8.784  0.0237  0.1400 -0.0660
  252loPI   C1A 4023  16.738   3.100   8.500  0.3850  0.1754 -0.0651
  252loPI   C2A 4024  16.704   3.198   8.043 -0.0242 -0.0591 -0.2707
  252loPI   C3A 4025  16.630   3.098   7.630  0.2575 -0.2455 -0.0989
  252loPI   C4A 4026  16.872   3.160   7.343  0.0117  0.0356  0.0782
  252loPI   C5A 4027  17.017   3.225   6.881 -0.3630 -0.1422 -0.0213
  252loPI   C6A 4028  16.944   3.242   6.477  0.1539  0.0754 -0.0471
  252loPI   C1B 4029  16.656   2.642   8.360 -0.2214  0.1182  0.2134
  252loPI   C2B 4030  16.580   2.588   7.889  0.0048  0.0992 -0.1553
  252loPI   C3B 4031  16.363   2.700   7.542  0.1742 -0.1083 -0.1610
  252loPI   C4B 4032  15.964   2.731   7.283  0.0457 -0.2138  0.2022
  253loPI    C1 4033  15.440   0.049  10.417  0.1310 -0.2485  0.1580
  253loPI    C2 4034  15.593   0.285  10.132  0.1532 -0.3168  0.1131
  253loPI    C3 4035  15.496   0.438  10.488 -0.1400 -0.1734 -0.0248
  253loPI   PO4 4036  15.147  -0.107  10.342  0.1950 -0.6022 -0.1379
  253loPI   GL1 4037  15.139  -0.403   9.964 -0.3611 -0.1934 -0.0363
  253loPI   GL2 4038  15.233  -0.031   9.835  0.0563  0.1718  0.2302
  253loPI   C1A 4039  15.095  -0.436   9.478 -0.3456 -0.0009  0.0009
  253loPI   C2A 4040  15.005  -0.341   9.018  0.0100  0.1035 -0.1216
  253loPI   C3A 4041  14.917  -0.467   8.556  0.4385  0.2726  0.0012
  253loPI   C4A 4042  15.043  -0.671   8.196  0.1947  0.0114  0.1007
  253loPI   C5A 4043  15.414  -0.707   7.976  0.1426  0.0942 -0.0558
  253loPI   C6A 4044  15.761  -0.849   7.844  0.2453 -0.1421  0.0511
  253loPI   C1B 4045  15.244   0.036   9.362  0.0689  0.1101 -0.4273
  253loPI   C2B 4046  15.080   0.233   9.008 -0.4052 -0.1786  0.1817
  253loPI   C3B 4047  14.935   0.070   8.627  0.0677 -0.0723  0.0528
  253loPI   C4B 4048  14.915  -0.139   8.203  0.0519  0.1300  0.2727
  254loPI    C1 4049   5.876  14.366   9.377 -0.2493  0.0080  0.1265
  254loPI    C2 4050   5.865  13.966   9.373 -0.3424  0.0097  0.1697
  254loPI    C3 4051   6.149  14.157   9.581 -0.0116 -0.0350 -0.2272
  254loPI   PO4 4052   5.620  14.464   9.371  0.1117  0.0641 -0.2889
  254loPI   GL1 4053   5.292  14.489   9.110 -0.3208  0.1548  0.0317
  254loPI   GL2 4054   5.469  14.110   9.078  0.0577  0.0414 -0.1720
  254loPI   C1A 4055   5.032  14.575   8.721 -0.0086  0.1696 -0.0608
  254loPI   C2A 4056   4.962  14.587   8.306  0.2115  0.0308  0.1499
  254loPI   C3A 4057   5.142  14.744   7.792 -0.1182 -0.0146 -0.0165
  254loPI   C4A 4058   5.235  15.150   7.606  0.0846  0.0445  0.0668
  254loPI   C5A 4059   5.050  15.520   7.383  0.1448 -0.0510  0.2449
  254loPI   C6A 4060   5.047  15.935   7.431 -0.2367 -0.1672 -0.3638
  254loPI   C1B 4061   5.347  14.030   8.653 -0.0670  0.1207 -0.0808
  254loPI   C2B 4062   5.238  14.069   8.185  0.1227  0.1713 -0.3818
  254loPI   C3B 4063   5.183  14.064   7.764 -0.2175 -0.1449 -0.1652
  254loPI   C4B 4064   5.035  14.405   7.487  0.1113 -0.0014 -0.2772
  255loPI    C1 4065  17.120   7.040   9.917  0.0692 -0.1377  0.1437
  255loPI    C2 4066  16.797   6.827   9.815  0.0666 -0.0888  0.0481
  255loPI    C3 4067  16.813   7.008  10.172 -0.1923  0.2588 -0.1109
  255loPI   PO4 4068  17.146   7.124   9.616 -0.1527  0.1047  0.1313
  255loPI   GL1 4069  17.132   7.013   9.282 -0.1566  0.0809  0.1024
  255loPI   GL2 4070  17.026   6.654   9.349  0.2168  0.3052  0.1483
  255loPI   C1A 4071  17.159   7.178   8.858  0.2361  0.2023  0.0806
  255loPI   C2A 4072  17.311   7.178   8.499  0.0462 -0.0979 -0.2448
  255loPI   C3A 4073  17.252   7.263   8.182 -0.0338  0.0906  0.2936
  255loPI   C4A 4074  17.473   7.520   7.803  0.0360  0.2752  0.0254
  255loPI   C5A 4075  17.680   7.461   7.335 -0.1266 -0.1744 -0.1234
  255loPI   C6A 4076  18.025   7.269   6.952 -0.0154  0.5282  0.1375
  255loPI   C1B 4077  16.866   6.436   9.016 -0.0088 -0.0564  0.1586
  255loPI   C2B 4078  16.970   6.206   8.702  0.4387 -0.2528  0.2136
  255loPI   C3B 4079  17.276   6.189   8.336  0.0161 -0.3123  0.0997
  255loPI   C4B 4080  17.656   6.183   8.040  0.2763 -0.0210 -0.0968
  256loPI    C1 4081  17.345  10.257  10.114 -0.1939  0.0720  0.1852
  256loPI    C2 4082  17.349  10.212  10.511 -0.0942 -0.1502  0.1600
  256loPI    C3 4083  17.259   9.902  10.275  0.0044 -0.0608  0.0033
  256loPI   PO4 4084  17.289  10.442  10.011  0.0224 -0.3859  0.3266
  256loPI   GL1 4085  17.168  10.362   9.648 -0.1738 -0.2313 -0.1575
  256loPI   GL2 4086  17.475  10.291   9.547 -0.1098  0.0384  0.2555
  256loPI   C1A 4087  17.152  10.416   9.237  0.0005 -0.1335  0.2263
  256loPI   C2A 4088  17.470  10.250   8.952 -0.1801  0.1376 -0.1802
  256loPI   C3A 4089  17.323  10.166   8.573  0.0193 -0.1819 -0.1382
  256loPI   C4A 4090  16.968  10.444   8.279 -0.1558  0.0294  0.3554
  256loPI   C5A 4091  16.642  10.480   7.995  0.0017  0.1731  0.1506
  256loPI   C6A 4092  16.314  10.566   7.722  0.0006 -0.2720 -0.0742
  256loPI   C1B 4093  17.825  10.314   9.338 -0.1145  0.0104  0.2280
  256loPI   C2B 4094  18.003  10.263   9.046 -0.1926  0.2743 -0.0611
  256loPI   C3B 4095  18.190  10.402   8.629  0.2848 -0.4228 -0.1357
  256loPI   C4B 4096  18.200  10.515   8.255  0.3622 -0.0938 -0.2370
  257loPI    C1 4097   2.193  11.063  10.798 -0.1380  0.2479  0.1790
  257loPI    C2 4098   2.286  10.830  11.109 -0.1710  0.0024  0.0080
  257loPI    C3 4099   2.126  11.191  11.171 -0.0946 -0.0073  0.2765
  257loPI   PO4 4100   2.182  10.773  10.633  0.0683 -0.3074 -0.3576
  257loPI   GL1 4101   2.216  10.690  10.192  0.1663 -0.1703 -0.3400
  257loPI   GL2 4102   2.560  10.770  10.231 -0.1662  0.5248  0.0989
  257loPI   C1A 4103   2.491  10.697   9.784 -0.2464 -0.5151 -0.2673
  257loPI   C2A 4104   2.866  10.541   9.596  0.0449  0.0137 -0.0677
  257loPI   C3A 4105   3.261  10.457   9.329  0.0281 -0.3066 -0.0584
  257loPI   C4A 4106   3.351  10.234   9.024 -0.1263  0.0938  0.0609
  257loPI   C5A 4107   3.216  10.359   8.641 -0.3534  0.4831  0.0326
  257loPI   C6A 4108   3.029  10.600   8.326  0.0247  0.0069  0.0586
  257loPI   C1B 4109   2.916  10.914  10.013  0.2079 -0.1198  0.0529
  257loPI   C2B 4110   3.217  10.922   9.625  0.0866 -0.0378  0.0508
  257loPI   C3B 4111   3.360  10.970   9.265  0.1668  0.1471  0.1217
  257loPI   C4B 4112   3.121  10.803   8.889 -0.1855  0.0870  0.0272
  258loPI    C1 4113   3.442  18.849   9.603 -0.3508 -0.0105  0.2493
  258loPI    C2 4114   3.352  18.903   9.989 -0.0831 -0.2203  0.3440
  258loPI    C3 4115   3.638  18.644   9.884  0.0257  0.0235  0.0185
  258loPI   PO4 4116   3.501  19.006   9.490 -0.2237 -0.2226 -0.0992
  258loPI   GL1 4117   3.253  19.362   9.213 -0.0287 -0.0523 -0.0175
  258loPI   GL2 4118   3.458  19.502   9.017  0.4456  0.0081 -0.1964
  258loPI   C1A 4119   3.084  19.247   8.817  0.1513  0.1222  0.0471
  258loPI   C2A 4120   2.886  19.269   8.363 -0.1522  0.1537  0.1880
  258loPI   C3A 4121   2.806  19.125   7.954  0.2788 -0.1916  0.1623
  258loPI   C4A 4122   2.882  19.126   7.440  0.5336  0.0867 -0.0419
  258loPI   C5A 4123   2.647  19.301   7.048  0.0704  0.1367 -0.0520
  258loPI   C6A 4124   2.487  19.551   6.668 -0.2036  0.0927 -0.0811
  258loPI   C1B 4125   3.422  19.531   8.590 -0.0291  0.0586  0.0751
  258loPI   C2B 4126   3.318  19.445   8.170  0.0004 -0.2210 -0.0435
  258loPI   C3B 4127   3.215  19.405   7.697 -0.0954 -0.2168 -0.2610
  258loPI   C4B 4128   3.275  19.341   7.201 -0.2068 -0.1370  0.0190
  259loPI    C1 4129   1.406   7.160   9.879 -0.0615  0.1872  0.1622
  259loPI    C2 4130   1.731   6.952   9.985 -0.1044  0.0238 -0.0215
  259loPI    C3 4131   1.485   7.096  10.266  0.0510  0.0271  0.1138
  259loPI   PO4 4132   1.485   7.297   9.700  0.0238  0.0406 -0.0845
  259loPI   GL1 4133   1.831   7.127   9.436  0.2554  0.5123 -0.2810
  259loPI   GL2 4134   2.102   7.009   9.273  0.1144 -0.0583 -0.0207
  259loPI   C1A 4135   1.674   7.099   8.991 -0.2168  0.2318 -0.0908
  259loPI   C2A 4136   1.643   7.037   8.529  0.1326  0.1124  0.1987
  259loPI   C3A 4137   1.364   7.091   8.096 -0.2019  0.5271  0.0339
  259loPI   C4A 4138   1.101   6.907   7.798  0.0998 -0.0930 -0.1750
  259loPI   C5A 4139   1.091   7.142   7.388  0.1011 -0.0036  0.1298
  259loPI   C6A 4140   1.197   7.481   7.136  0.0214 -0.1983 -0.0586
  259loPI   C1B 4141   2.148   7.120   8.829 -0.1121  0.0240 -0.4108
  259loPI   C2B 4142   2.085   7.247   8.397  0.2245 -0.1464  0.1238
  259loPI   C3B 4143   1.832   7.217   8.007  0.2876 -0.0657 -0.1841
  259loPI   C4B 4144   1.466   7.381   7.622 -0.2892 -0.0646 -0.0440
  260loPI    C1 4145   2.131   9.252  10.358  0.0743  0.0580 -0.0847
  260loPI    C2 4146   1.849   9.176  10.631 -0.1248 -0.1447 -0.3410
  260loPI    C3 4147   2.204   9.321  10.745 -0.2540 -0.0924  0.0076
  260loPI   PO4 4148   1.961   9.408  10.204 -0.0723 -0.4828 -0.3797
  260loPI   GL1 4149   1.770   9.337   9.809 -0.0947  0.0392  0.0468
  260loPI   GL2 4150   1.471   9.443   9.942  0.1139  0.1139  0.2856
  260loPI   C1A 4151   2.011   9.380   9.439 -0.1224 -0.0366 -0.0227
  260loPI   C2A 4152   1.917   9.437   8.937 -0.0466 -0.0213 -0.2132
  260loPI   C3A 4153   2.082   9.656   8.530 -0.1542  0.0340 -0.1784
  260loPI   C4A 4154   2.078   9.777   8.086  0.0038 -0.1128 -0.2295
  260loPI   C5A 4155   2.341  10.182   7.842 -0.5905  0.0465 -0.0994
  260loPI   C6A 4156   2.712  10.222   7.855 -0.0612 -0.0679  0.4023
  260loPI   C1B 4157   1.438   9.358   9.437  0.0680 -0.0001 -0.1350
  260loPI   C2B 4158   1.405   9.459   8.918 -0.3786 -0.0863  0.0908
  260loPI   C3B 4159   1.632   9.336   8.465  0.2403 -0.1502  0.0967
  260loPI   C4B 4160   1.661   9.257   7.981 -0.2124  0.2624 -0.0739
  261loPI    C1 4161  11.776  12.538  10.043 -0.2131  0.0462  0.1647
  261loPI    C2 4162  11.939  12.903  10.038  0.0555 -0.0730 -0.0981
  261loPI    C3 4163  11.913  12.700  10.382 -0.0078  0.1529  0.0326
  261loPI   PO4 4164  11.680  12.531   9.766 -0.2764 -0.1103  0.2075
  261loPI   GL1 4165  11.545  12.696   9.306  0.0712 -0.0187 -0.2235
  261loPI   GL2 4166  11.877  12.678   9.298 -0.1113  0.0928 -0.0361
  261loPI   C1A 4167  11.650  12.763   8.810  0.0108  0.0519 -0.0010
  261loPI   C2A 4168  11.628  12.790   8.397  0.0205  0.0675  0.0466
  261loPI   C3A 4169  11.770  12.876   7.983 -0.0580 -0.3277  0.0142
  261loPI   C4A 4170  11.797  12.720   7.650  0.1795 -0.2323  0.0495
  261loPI   C5A 4171  11.917  12.936   7.310  0.1861  0.0837 -0.2784
  261loPI   C6A 4172  11.663  13.308   7.056 -0.0736  0.2373 -0.1538
  261loPI   C1B 4173  12.015  12.381   8.905 -0.0675 -0.2431 -0.2862
  261loPI   C2B 4174  12.392  12.367   8.927 -0.2723 -0.0917  0.0519
  261loPI   C3B 4175  12.599  12.521   8.544 -0.1334 -0.1198 -0.3460
  261loPI   C4B 4176  12.598  12.693   8.208 -0.3127 -0.0113 -0.2203
  262loPI    C1 4177   5.691   4.876   9.830  0.0072  0.0643  0.2427
  262loPI    C2 4178   5.431   4.575   9.866 -0.2320  0.2791  0.3351
  262loPI    C3 4179   5.734   4.608  10.124 -0.0701 -0.0103  0.1865
  262loPI   PO4 4180   5.684   4.820   9.554  0.1790 -0.0279 -0.1959
  262loPI   GL1 4181   5.543   5.072   9.331  0.0613  0.0209 -0.3755
  262loPI   GL2 4182   5.562   4.841   9.088 -0.2042 -0.5272 -0.0829
  262loPI   C1A 4183   5.611   5.389   9.035  0.2580  0.2054  0.3440
  262loPI   C2A 4184   5.749   5.493   8.578  0.1818 -0.1454 -0.0149
  262loPI   C3A 4185   5.652   5.572   8.229 -0.2373 -0.1432 -0.0489
  262loPI   C4A 4186   5.467   5.690   7.952 -0.0702  0.0122  0.1837
  262loPI   C5A 4187   5.493   5.775   7.524 -0.0462 -0.1280  0.2814
  262loPI   C6A 4188   5.581   5.728   7.098  0.1181 -0.2939  0.0453
  262loPI   C1B 4189   5.471   5.033   8.668  0.0841  0.0227  0.0589
  262loPI   C2B 4190   5.437   5.126   8.253  0.0373 -0.1592  0.1850
  262loPI   C3B 4191   5.456   5.253   7.781 -0.0849 -0.0149 -0.2971
  262loPI   C4B 4192   5.329   5.255   7.368  0.1837 -0.1277 -0.0583
  263loPI    C1 4193  17.266   5.169   9.807  0.2301  0.1862 -0.0956
  263loPI    C2 4194  16.989   5.454   9.853 -0.0260 -0.0577 -0.0990
  263loPI    C3 4195  17.036   5.174  10.134  0.1901 -0.0434 -0.1188
  263loPI   PO4 4196  17.199   5.095   9.610 -0.0295  0.2752 -0.3550
  263loPI   GL1 4197  17.096   5.126   9.187  0.0446  0.0472 -0.0504
  263loPI   GL2 4198  17.141   5.403   9.199 -0.3576  0.1190 -0.0578
  263loPI   C1A 4199  16.934   5.113   8.750  0.2155  0.3113 -0.2734
  263loPI   C2A 4200  16.863   5.159   8.303 -0.2041 -0.0104  0.0928
  263loPI   C3A 4201  16.631   5.067   7.859  0.0477 -0.0100 -0.0415
  263loPI   C4A 4202  16.368   5.168   7.563  0.2369 -0.0890 -0.0624
  263loPI   C5A 4203  16.017   4.869   7.344 -0.3392 -0.1919  0.0558
  263loPI   C6A 4204  15.749   4.536   7.189 -0.1053 -0.3189 -0.1839
  263loPI   C1B 4205  16.904   5.600   8.823  0.2335  0.1175  0.2388
  263loPI   C2B 4206  16.917   5.697   8.370 -0.0030 -0.2168  0.0468
  263loPI   C3B 4207  16.886   6.030   8.068  0.0925  0.3213  0.2465
  263loPI   C4B 4208  16.810   6.106   7.707 -0.0310 -0.2011 -0.0552
  264loPI    C1 4209  15.544   5.634  10.016  0.1095 -0.1157 -0.1549
  264loPI    C2 4210  15.214   5.469   9.863  0.0116  0.0634 -0.1400
  264loPI    C3 4211  15.191   5.692  10.194  0.1280  0.1807 -0.2100
  264loPI   PO4 4212  15.685   5.857   9.762 -0.4773 -0.3535 -0.2058
  264loPI   GL1 4213  15.986   5.694   9.408  0.2208 -0.1733  0.1586
  264loPI   GL2 4214  15.996   5.896   9.160 -0.1419  0.4101 -0.1847
  264loPI   C1A 4215  16.267   5.539   9.052  0.0045  0.0375 -0.4742
  264loPI   C2A 4216  16.430   5.470   8.563 -0.1880 -0.1280  0.2965
  264loPI   C3A 4217  16.452   5.366   8.182  0.1345 -0.0294  0.0290
  264loPI   C4A 4218  16.657   5.607   7.851 -0.0988 -0.0425  0.0229
  264loPI   C5A 4219  16.916   5.431   7.473  0.0199  0.0054 -0.3130
  264loPI   C6A 4220  17.244   5.570   7.383  0.0946 -0.2771  0.0868
  264loPI   C1B 4221  15.822   5.759   8.738  0.0134 -0.0321  0.1626
  264loPI   C2B 4222  15.683   5.838   8.258  0.2232  0.0197 -0.0882
  264loPI   C3B 4223  15.727   5.911   7.929 -0.0097  0.1469 -0.0897
  264loPI   C4B 4224  15.537   5.766   7.554  0.0084  0.1229  0.1349
  265loPI    C1 4225   5.345   6.216  10.141  0.0212 -0.0716 -0.1240
  265loPI    C2 4226   5.621   5.962  10.001  0.0495 -0.0808 -0.0518
  265loPI    C3 4227   5.305   5.823  10.203  0.1674 -0.0441  0.1609
  265loPI   PO4 4228   5.432   6.504  10.025 -0.1336 -0.2364  0.0066
  265loPI   GL1 4229   5.594   6.577   9.551 -0.0275 -0.5022 -0.0609
  265loPI   GL2 4230   5.657   6.284   9.568  0.0804 -0.0347 -0.1093
  265loPI   C1A 4231   5.370   6.704   9.132  0.1539  0.0881 -0.0290
  265loPI   C2A 4232   5.480   6.839   8.676 -0.2335 -0.2735 -0.0329
  265loPI   C3A 4233   5.476   6.903   8.235 -0.3379 -0.1359 -0.0569
  265loPI   C4A 4234   5.529   7.001   7.809  0.0222  0.1401  0.2762
  265loPI   C5A 4235   5.468   7.342   7.472 -0.0241 -0.2186 -0.1800
  265loPI   C6A 4236   5.238   7.313   7.102  0.2753 -0.1385 -0.0664
  265loPI   C1B 4237   5.786   6.286   9.238  0.0114 -0.0316  0.1378
  265loPI   C2B 4238   5.573   6.323   8.887 -0.0595 -0.0599 -0.0170
  265loPI   C3B 4239   5.601   6.453   8.360  0.6205 -0.1420  0.2262
  265loPI   C4B 4240   5.724   6.573   7.953 -0.1758 -0.1007  0.0124
  266loPI    C1 4241  16.825  17.805  10.172  0.1837 -0.0747 -0.2606
  266loPI    C2 4242  17.033  17.466  10.212  0.0317 -0.1330  0.0760
  266loPI    C3 4243  17.166  17.803  10.381 -0.0017 -0.1062  0.0487
  266loPI   PO4 4244  16.772  17.805   9.935  0.0733 -0.1635 -0.3928
  266loPI   GL1 4245  16.810  18.027   9.614  0.0445  0.1691  0.1021
  266loPI   GL2 4246  17.003  17.848   9.427  0.4037  0.1154  0.0984
  266loPI   C1A 4247  16.476  17.833   9.295  0.0251 -0.0575  0.1783
  266loPI   C2A 4248  16.283  17.792   8.897 -0.5179 -0.0320 -0.1327
  266loPI   C3A 4249  16.092  17.856   8.525  0.1098 -0.0120  0.1458
  266loPI   C4A 4250  15.932  17.674   8.072 -0.0606  0.1154  0.1920
  266loPI   C5A 4251  15.973  17.617   7.666 -0.1816 -0.2106 -0.1837
  266loPI   C6A 4252  16.292  17.285   7.757 -0.0545 -0.3611  0.0707
  266loPI   C1B 4253  16.975  17.897   9.001 -0.0624 -0.2533 -0.2792
  266loPI   C2B 4254  16.754  17.722   8.620  0.0807  0.0170  0.1294
  266loPI   C3B 4255  16.529  17.623   8.245  0.0149  0.0472  0.0110
  266loPI   C4B 4256  16.445  17.761   7.760 -0.3143  0.0715 -0.0727
  267loPI    C1 4257   8.876  18.699   9.706 -0.0119 -0.1698 -0.0255
  267loPI    C2 4258   8.896  18.560  10.081  0.0251  0.1364  0.0889
  267loPI    C3 4259   8.894  18.954  10.013 -0.1067  0.0846 -0.2280
  267loPI   PO4 4260   9.092  18.618   9.537  0.0580 -0.0499 -0.1321
  267loPI   GL1 4261   9.294  18.740   9.148  0.1597  0.0975 -0.4766
  267loPI   GL2 4262   9.235  18.451   9.049 -0.0945 -0.2834 -0.0049
  267loPI   C1A 4263   9.608  18.767   8.809 -0.1772  0.0371 -0.2530
  267loPI   C2A 4264   9.820  18.802   8.448 -0.3092 -0.2503  0.2372
  267loPI   C3A 4265  10.053  18.920   8.122 -0.0411 -0.2681 -0.0897
  267loPI   C4A 4266  10.430  19.083   7.968  0.2854  0.2268  0.0723
  267loPI   C5A 4267  10.564  19.060   7.467 -0.1212  0.3022 -0.1685
  267loPI   C6A 4268  10.576  18.663   7.169 -0.0213 -0.2123  0.0686
  267loPI   C1B 4269   9.230  18.525   8.625 -0.0874  0.0090  0.0643
  267loPI   C2B 4270   9.393  18.494   8.225 -0.0523 -0.1104 -0.0773
  267loPI   C3B 4271   9.497  18.456   7.798 -0.3593 -0.1402  0.0986
  267loPI   C4B 4272   9.348  18.307   7.377  0.3995 -0.2154  0.1937
  268loPI    C1 4273   6.608  10.918   9.790 -0.1495 -0.0402  0.0170
  268loPI    C2 4274   6.539  11.119  10.129  0.1210  0.1358 -0.0290
  268loPI    C3 4275   6.512  11.306   9.776 -0.1489 -0.0440 -0.1070
  268loPI   PO4 4276   6.475  10.615   9.874  0.0527 -0.0467  0.0386
  268loPI   GL1 4277   6.214  10.484   9.659 -0.1711  0.3491  0.2218
  268loPI   GL2 4278   5.927  10.561   9.518 -0.0746 -0.0458 -0.1227
  268loPI   C1A 4279   6.184  10.237   9.234 -0.2161  0.0752  0.3897
  268loPI   C2A 4280   6.031   9.965   8.908 -0.3070 -0.2471  0.0010
  268loPI   C3A 4281   6.051   9.689   8.485  0.4170 -0.0662  0.0798
  268loPI   C4A 4282   6.053   9.523   8.120 -0.3517 -0.0261  0.4172
  268loPI   C5A 4283   5.966   9.268   7.707 -0.1718  0.1718 -0.0619
  268loPI   C6A 4284   5.909   9.082   7.371  0.0469 -0.2913  0.1054
  268loPI   C1B 4285   5.740  10.479   9.163 -0.1120 -0.1394 -0.0796
  268loPI   C2B 4286   5.772  10.404   8.716 -0.1428  0.0478 -0.2102
  268loPI   C3B 4287   5.568  10.478   8.353 -0.0784  0.1071  0.2598
  268loPI   C4B 4288   5.259  10.321   8.053 -0.1197 -0.0778  0.0138
  269loPI    C1 4289   3.405  12.790  10.037 -0.0336 -0.1838 -0.0097
  269loPI    C2 4290   3.719  12.790  10.284 -0.0323  0.2107 -0.0051
  269loPI    C3 4291   3.425  12.524  10.334  0.0967  0.1141  0.2538
  269loPI   PO4 4292   3.548  12.833   9.816 -0.2731  0.2060 -0.0824
  269loPI   GL1 4293   3.502  12.664   9.390 -0.0987 -0.1606 -0.0696
  269loPI   GL2 4294   3.235  12.725   9.391 -0.4531  0.0483 -0.0691
  269loPI   C1A 4295   3.644  12.538   8.958 -0.2552  0.2631  0.0775
  269loPI   C2A 4296   3.586  12.655   8.464 -0.3530  0.2616 -0.2076
  269loPI   C3A 4297   3.872  12.890   8.182  0.0390  0.1291  0.2679
  269loPI   C4A 4298   3.953  12.765   7.787 -0.2220 -0.0439  0.3969
  269loPI   C5A 4299   3.840  13.055   7.406  0.0363 -0.1952 -0.0829
  269loPI   C6A 4300   4.003  13.476   7.421 -0.3316 -0.2005 -0.2934
  269loPI   C1B 4301   3.197  12.780   8.962 -0.0310  0.1660  0.3795
  269loPI   C2B 4302   2.919  12.667   8.574  0.0605  0.1146 -0.0264
  269loPI   C3B 4303   2.970  12.428   8.229 -0.0601  0.2436  0.1547
  269loPI   C4B 4304   2.812  12.090   8.008 -0.3196  0.1415 -0.2045
  270loPI    C1 4305   7.731  11.222   9.400  0.2533 -0.0578  0.3360
  270loPI    C2 4306   7.568  11.579   9.477  0.0304 -0.0973  0.0617
  270loPI    C3 4307   7.334  11.256   9.444  0.2099 -0.2320  0.0991
  270loPI   PO4 4308   7.923  11.331   9.216  0.2004  0.4759 -0.3516
  270loPI   GL1 4309   8.099  11.071   8.875 -0.0677 -0.0853  0.2435
  270loPI   GL2 4310   7.916  10.896   8.710  0.1001 -0.1812 -0.0783
  270loPI   C1A 4311   8.097  11.418   8.608  0.0090  0.1348 -0.1934
  270loPI   C2A 4312   8.137  11.478   8.162 -0.0508  0.1169 -0.1834
  270loPI   C3A 4313   8.179  11.383   7.681 -0.1839 -0.2500 -0.0676
  270loPI   C4A 4314   7.999  11.081   7.405  0.1862  0.1575  0.0293
  270loPI   C5A 4315   7.519  10.947   7.547 -0.3560  0.2374 -0.1036
  270loPI   C6A 4316   7.335  10.436   7.394 -0.0308  0.0743  0.5571
  270loPI   C1B 4317   7.880  10.555   8.430  0.3773  0.2588  0.0518
  270loPI   C2B 4318   7.916  10.156   8.096 -0.1296  0.3025 -0.3806
  270loPI   C3B 4319   7.816   9.931   7.734 -0.0802 -0.4416  0.0613
  270loPI   C4B 4320   7.673   9.987   7.256 -0.2444  0.1401 -0.0833
  271loPI    C1 4321   9.665   5.718  10.270 -0.0670  0.0908 -0.4549
  271loPI    C2 4322   9.511   5.352  10.229 -0.1627  0.1032 -0.2226
  271loPI    C3 4323   9.280   5.653  10.355  0.0112  0.1570 -0.0262
  271loPI   PO4 4324   9.797   5.683   9.978 -0.0011 -0.2552 -0.0401
  271loPI   GL1 4325   9.757   5.648   9.444  0.0524 -0.3014  0.2033
  271loPI   GL2 4326   9.935   5.945   9.227  0.2024 -0.1226  0.1958
  271loPI   C1A 4327   9.666   5.374   9.136  0.1603 -0.2877  0.0515
  271loPI   C2A 4328   9.726   5.497   8.743 -0.3072 -0.0742 -0.2879
  271loPI   C3A 4329   9.576   5.484   8.331  0.0222  0.4051  0.2899
  271loPI   C4A 4330   9.501   5.342   7.814 -0.0906 -0.2736 -0.0468
  271loPI   C5A 4331   9.401   5.221   7.451  0.0244 -0.0248  0.4326
  271loPI   C6A 4332   9.050   5.050   7.294 -0.3388 -0.1838 -0.0423
  271loPI   C1B 4333   9.669   5.960   8.830 -0.3128  0.0418 -0.0736
  271loPI   C2B 4334   9.488   5.989   8.457  0.3673 -0.0518 -0.2082
  271loPI   C3B 4335   9.278   5.855   8.211 -0.0842  0.0473  0.3405
  271loPI   C4B 4336   9.122   5.794   7.738  0.3372  0.2370 -0.3035
  272loPI    C1 4337   4.443  10.574  10.385  0.0894 -0.2204  0.0100
  272loPI    C2 4338   4.583  10.267  10.599  0.0521 -0.1311  0.1643
  272loPI    C3 4339   4.558  10.630  10.764 -0.0085 -0.0680  0.0181
  272loPI   PO4 4340   4.637  10.668  10.154 -0.2748  0.0155  0.0347
  272loPI   GL1 4341   4.636  10.725   9.666 -0.0395 -0.1676  0.0881
  272loPI   GL2 4342   4.992  10.790   9.752  0.1213  0.3446 -0.0467
  272loPI   C1A 4343   4.823  10.743   9.307  0.0799 -0.0990  0.0847
  272loPI   C2A 4344   4.768  10.670   8.880  0.0973 -0.0042  0.0873
  272loPI   C3A 4345   4.923  10.614   8.397  0.1697 -0.0087 -0.0316
  272loPI   C4A 4346   4.794  10.581   7.966  0.2226 -0.0424  0.1254
  272loPI   C5A 4347   4.479  10.307   7.795 -0.2205  0.0396  0.1833
  272loPI   C6A 4348   4.277   9.967   7.803  0.0747  0.0313 -0.2670
  272loPI   C1B 4349   4.869  10.311   9.738  0.3300 -0.2142  0.0287
  272loPI   C2B 4350   4.611  10.084   9.438 -0.1256 -0.0131  0.1669
  272loPI   C3B 4351   4.834   9.801   9.154  0.0258  0.1154  0.1107
  272loPI   C4B 4352   5.103   9.808   8.838  0.2845  0.0563  0.1239
  273loPI    C1 4353   4.394  13.240   9.921  0.1078  0.2813  0.0440
  273loPI    C2 4354   4.266  13.520  10.175  0.0078  0.0465  0.2568
  273loPI    C3 4355   4.163  13.138  10.231  0.1997 -0.0439  0.0095
  273loPI   PO4 4356   4.238  13.334   9.604  0.2538  0.2613  0.1150
  273loPI   GL1 4357   3.887  13.184   9.430 -0.0673 -0.0305 -0.4352
  273loPI   GL2 4358   3.570  13.201   9.385  0.0793  0.0151  0.0096
  273loPI   C1A 4359   4.072  12.867   9.050  0.0118  0.0250  0.0796
  273loPI   C2A 4360   4.053  12.692   8.648 -0.2044 -0.3394  0.1224
  273loPI   C3A 4361   4.101  12.409   8.265  0.0382 -0.0071  0.1060
  273loPI   C4A 4362   4.244  12.350   7.845  0.0074 -0.2675 -0.0774
  273loPI   C5A 4363   4.636  12.174   7.766 -0.1228  0.3458 -0.2388
  273loPI   C6A 4364   4.959  12.069   7.418 -0.0743  0.1298 -0.3478
  273loPI   C1B 4365   3.627  13.019   9.016 -0.1207  0.1157  0.0517
  273loPI   C2B 4366   3.699  13.120   8.636  0.0144 -0.1919 -0.1853
  273loPI   C3B 4367   4.041  13.312   8.406  0.1281 -0.1725  0.0323
  273loPI   C4B 4368   3.990  13.308   7.916  0.5349  0.0483 -0.3339
  274loPI    C1 4369  14.872  13.773  10.404  0.1064  0.3795 -0.0931
  274loPI    C2 4370  14.979  13.839  10.783 -0.1024 -0.1294  0.0629
  274loPI    C3 4371  14.603  13.908  10.667 -0.0957 -0.1894  0.0051
  274loPI   PO4 4372  14.990  13.871  10.228  0.2066  0.0102 -0.0976
  274loPI   GL1 4373  15.052  13.744   9.818  0.3352 -0.2575 -0.0966
  274loPI   GL2 4374  14.806  13.877   9.700  0.1234 -0.3133 -0.0876
  274loPI   C1A 4375  15.065  13.505   9.430 -0.1519 -0.4875 -0.3765
  274loPI   C2A 4376  15.154  13.435   9.038 -0.2869  0.0936  0.0717
  274loPI   C3A 4377  15.207  13.316   8.538 -0.1202  0.1029  0.0896
  274loPI   C4A 4378  15.369  13.058   8.133 -0.1283 -0.3941 -0.0675
  274loPI   C5A 4379  15.594  13.150   7.793  0.1791  0.3004  0.1814
  274loPI   C6A 4380  15.881  13.292   7.427  0.3058 -0.1788  0.0467
  274loPI   C1B 4381  14.832  13.863   9.208  0.0804  0.0056  0.2705
  274loPI   C2B 4382  14.813  13.936   8.746 -0.0433 -0.1998  0.0499
  274loPI   C3B 4383  14.905  13.888   8.349  0.0887  0.0127  0.0067
  274loPI   C4B 4384  14.929  13.812   7.895 -0.1697  0.0999 -0.4991
  275loPI    C1 4385   6.085   6.018  10.418 -0.2585  0.2298 -0.1234
  275loPI    C2 4386   5.937   5.652  10.354  0.0817  0.1065 -0.2248
  275loPI    C3 4387   5.770   5.890  10.629  0.0706 -0.2563  0.0912
  275loPI   PO4 4388   6.112   6.081  10.162 -0.0463 -0.3933  0.0317
  275loPI   GL1 4389   6.067   6.129   9.729  0.0912 -0.1436 -0.1724
  275loPI   GL2 4390   6.390   6.054   9.752 -0.0266 -0.0831  0.2163
  275loPI   C1A 4391   6.212   5.883   9.292 -0.1342 -0.1316 -0.2049
  275loPI   C2A 4392   6.305   6.001   8.884 -0.1307  0.1673 -0.0802
  275loPI   C3A 4393   6.194   5.942   8.473  0.2734  0.3196  0.1234
  275loPI   C4A 4394   6.209   5.750   8.115 -0.4344 -0.0927 -0.0747
  275loPI   C5A 4395   6.060   5.529   7.899 -0.2735 -0.1181 -0.1764
  275loPI   C6A 4396   5.832   5.275   7.483 -0.0574  0.0228 -0.1040
  275loPI   C1B 4397   6.672   6.300   9.496 -0.1357  0.3158 -0.1907
  275loPI   C2B 4398   6.723   6.245   9.026 -0.5711  0.3177  0.2631
  275loPI   C3B 4399   6.605   6.292   8.595 -0.3121  0.3464  0.1565
  275loPI   C4B 4400   6.533   6.108   8.189  0.3522  0.2159  0.0697
  276loPI    C1 4401   7.313  14.324   9.816 -0.2515 -0.0445  0.1794
  276loPI    C2 4402   7.603  14.088   9.674 -0.2245  0.1989 -0.1853
  276loPI    C3 4403   7.561  14.138  10.069 -0.0493 -0.1813 -0.1132
  276loPI   PO4 4404   7.165  14.364   9.642  0.0022  0.0778  0.2306
  276loPI   GL1 4405   6.944  14.546   9.250 -0.0450 -0.0092  0.0097
  276loPI   GL2 4406   6.736  14.246   9.248  0.1194  0.1313 -0.1137
  276loPI   C1A 4407   6.993  14.451   8.865  0.2758 -0.2436 -0.2750
  276loPI   C2A 4408   7.105  14.427   8.392  0.3776 -0.1394  0.1694
  276loPI   C3A 4409   7.112  14.305   7.872  0.2220 -0.1233 -0.0998
  276loPI   C4A 4410   6.897  14.355   7.388  0.1768  0.0527  0.1103
  276loPI   C5A 4411   6.821  14.567   7.043 -0.1213  0.0282  0.2091
  276loPI   C6A 4412   7.012  14.943   6.961 -0.0105  0.1241 -0.0078
  276loPI   C1B 4413   6.594  14.156   8.847  0.1145  0.0176 -0.1369
  276loPI   C2B 4414   6.563  14.297   8.440 -0.2798 -0.1145 -0.0929
  276loPI   C3B 4415   6.513  14.183   8.003 -0.2769  0.2502 -0.1332
  276loPI   C4B 4416   6.600  14.028   7.668 -0.2200  0.4874 -0.6372
  277loPI    C1 4417   3.988   8.053  10.070  0.1519 -0.0741 -0.0848
  277loPI    C2 4418   4.041   8.446  10.120 -0.0011 -0.0880  0.2055
  277loPI    C3 4419   3.699   8.274  10.236  0.0295 -0.2937 -0.0020
  277loPI   PO4 4420   4.035   8.018   9.881  0.1623 -0.1999 -0.2407
  277loPI   GL1 4421   3.910   8.174   9.513  0.1183  0.1300  0.1623
  277loPI   GL2 4422   4.048   7.927   9.399  0.2364 -0.0176 -0.2284
  277loPI   C1A 4423   3.768   8.180   9.082 -0.1533  0.2281 -0.1089
  277loPI   C2A 4424   3.816   8.231   8.792 -0.0362  0.0789  0.3112
  277loPI   C3A 4425   3.792   8.237   8.424 -0.0090 -0.1288 -0.0562
  277loPI   C4A 4426   3.792   8.476   8.188  0.3665  0.0163 -0.0254
  277loPI   C5A 4427   3.997   8.739   7.924 -0.2353  0.0710 -0.2730
  277loPI   C6A 4428   3.955   8.822   7.461 -0.0705  0.0370  0.0275
  277loPI   C1B 4429   4.152   7.896   8.971 -0.2490 -0.0088  0.3489
  277loPI   C2B 4430   4.303   8.142   8.791 -0.1795  0.1434 -0.0364
  277loPI   C3B 4431   4.259   8.276   8.320  0.1765 -0.0315  0.0956
  277loPI   C4B 4432   4.461   8.364   7.903  0.1199  0.2904  0.0427
  278loPI    C1 4433  16.767  11.645  10.079  0.2084  0.1292 -0.0329
  278loPI    C2 4434  16.760  11.960  10.325 -0.2025 -0.1831  0.3721
  278loPI    C3 4435  16.962  11.630  10.428  0.4393  0.0215 -0.1641
  278loPI   PO4 4436  16.924  11.717   9.854  0.1746 -0.2075  0.0648
  278loPI   GL1 4437  17.194  11.803   9.457 -0.1092  0.0633 -0.2024
  278loPI   GL2 4438  17.419  11.938   9.608 -0.1448 -0.2178  0.7087
  278loPI   C1A 4439  16.875  12.038   9.286  0.2279  0.4038 -0.0593
  278loPI   C2A 4440  16.727  12.046   8.840  0.2683 -0.2626 -0.1791
  278loPI   C3A 4441  16.629  11.908   8.437 -0.0990 -0.2054 -0.1381
  278loPI   C4A 4442  16.990  11.717   8.139  0.1611  0.2909 -0.1309
  278loPI   C5A 4443  17.169  11.642   7.884  0.3370 -0.2304 -0.1726
  278loPI   C6A 4444  17.236  11.394   7.565  0.1670  0.2366 -0.1876
  278loPI   C1B 4445  17.655  11.537   9.444 -0.1274  0.0605 -0.0803
  278loPI   C2B 4446  17.742  11.230   9.077 -0.2126  0.0838  0.2606
  278loPI   C3B 4447  17.721  11.101   8.671  0.1621 -0.0813 -0.1581
  278loPI   C4B 4448  17.771  10.968   8.229 -0.2633  0.1837  0.2241
  279loPI    C1 4449   2.858  14.277  10.127 -0.0803  0.3849 -0.0113
  279loPI    C2 4450   2.659  14.585  10.286 -0.1292  0.2659  0.1612
  279loPI    C3 4451   3.047  14.532  10.369 -0.0791  0.3726  0.0008
  279loPI   PO4 4452   2.803  14.286   9.892 -0.0681  0.4581 -0.0842
  279loPI   GL1 4453   2.770  14.340   9.445  0.0522 -0.0363  0.0629
  279loPI   GL2 4454   2.588  14.022   9.336 -0.3202  0.2612 -0.1058
  279loPI   C1A 4455   2.862  14.334   9.036 -0.1740  0.4323  0.0005
  279loPI   C2A 4456   2.732  14.506   8.703  0.1100 -0.0823  0.0174
  279loPI   C3A 4457   2.675  14.536   8.347 -0.1723  0.2725 -0.3145
  279loPI   C4A 4458   2.369  14.689   7.997 -0.1379  0.1018  0.0866
  279loPI   C5A 4459   2.317  14.781   7.621  0.1092  0.1336 -0.2331
  279loPI   C6A 4460   2.343  15.042   7.255 -0.0020 -0.3522  0.4028
  279loPI   C1B 4461   2.483  14.067   8.881  0.1563  0.1725  0.0047
  279loPI   C2B 4462   2.173  13.865   8.563  0.2914  0.1782 -0.0208
  279loPI   C3B 4463   2.112  13.767   8.107 -0.3656 -0.3176 -0.5145
  279loPI   C4B 4464   1.975  13.770   7.745  0.0329  0.0255  0.0245
  280loPI    C1 4465  14.916   0.606  10.017  0.2058 -0.0053  0.1540
  280loPI    C2 4466  14.595   0.432  10.181 -0.0605  0.0859 -0.2577
  280loPI    C3 4467  14.752   0.760  10.348 -0.2896  0.1427 -0.1500
  280loPI   PO4 4468  15.096   0.438   9.954  0.1989  0.1908 -0.3047
  280loPI   GL1 4469  15.404   0.413   9.703 -0.1323  0.0548 -0.2926
  280loPI   GL2 4470  15.385   0.561   9.458  0.0620  0.2838  0.1960
  280loPI   C1A 4471  15.690   0.223   9.441  0.0867 -0.0211  0.0637
  280loPI   C2A 4472  15.695   0.093   8.992 -0.1564 -0.0124  0.1974
  280loPI   C3A 4473  15.405  -0.145   8.718 -0.1059 -0.0122 -0.1105
  280loPI   C4A 4474  15.393  -0.238   8.350  0.0914  0.4023  0.0820
  280loPI   C5A 4475  15.471  -0.183   7.960 -0.1333 -0.1389  0.1892
  280loPI   C6A 4476  15.518  -0.005   7.652  0.0757 -0.0278  0.0443
  280loPI   C1B 4477  15.508   0.548   9.005  0.1722 -0.0807  0.4040
  280loPI   C2B 4478  15.366   0.456   8.642  0.0128 -0.0583 -0.0153
  280loPI   C3B 4479  15.220   0.329   8.298 -0.0219  0.1302  0.2173
  280loPI   C4B 4480  15.028   0.256   7.968  0.4546  0.3634 -0.1832
  281loPI    C1 4481  17.141   4.087   9.888  0.0855 -0.2096 -0.0210
  281loPI    C2 4482  16.829   4.320   9.981 -0.0685 -0.4106 -0.0287
  281loPI    C3 4483  16.849   3.946  10.123  0.3781 -0.2630  0.3180
  281loPI   PO4 4484  17.163   4.120   9.561 -0.3617  0.0922 -0.1676
  281loPI   GL1 4485  17.183   4.308   9.282 -0.0685  0.1890  0.1347
  281loPI   GL2 4486  17.264   4.541   9.178  0.0034 -0.0917 -0.2552
  281loPI   C1A 4487  17.040   4.207   8.820 -0.2808 -0.0536  0.3833
  281loPI   C2A 4488  16.933   4.140   8.394 -0.1419  0.0607  0.2169
  281loPI   C3A 4489  16.799   4.402   8.079  0.1472  0.0779  0.2897
  281loPI   C4A 4490  16.968   4.408   7.713  0.0775 -0.0419 -0.0849
  281loPI   C5A 4491  17.326   4.077   7.538  0.0408 -0.1437  0.1095
  281loPI   C6A 4492  17.567   4.215   7.203 -0.4973  0.3159  0.0969
  281loPI   C1B 4493  17.209   4.679   8.760 -0.0045 -0.2089  0.0970
  281loPI   C2B 4494  17.170   4.735   8.276  0.1738 -0.0151 -0.0425
  281loPI   C3B 4495  17.090   4.892   7.940  0.1189  0.2473  0.1067
  281loPI   C4B 4496  17.027   4.990   7.626 -0.0479 -0.0168  0.3149
  282loPI    C1 4497   1.125   3.303   9.333 -0.0245 -0.1898  0.2778
  282loPI    C2 4498   1.155   3.641   9.544 -0.0075 -0.0895  0.1163
  282loPI    C3 4499   1.374   3.322   9.646  0.2073  0.0453  0.0830
  282loPI   PO4 4500   0.954   3.355   9.192  0.3285  0.0769 -0.0128
  282loPI   GL1 4501   0.713   3.326   8.811 -0.0781  0.1151  0.0330
  282loPI   GL2 4502   0.631   3.659   8.769 -0.2153  0.1428 -0.4131
  282loPI   C1A 4503   0.700   3.003   8.510 -0.1846 -0.0442  0.1484
  282loPI   C2A 4504   0.706   2.894   8.103  0.0050 -0.0069 -0.0292
  282loPI   C3A 4505   0.424   2.638   7.846 -0.0320  0.0527  0.1877
  282loPI   C4A 4506   0.483   2.461   7.469  0.1838 -0.0136 -0.1038
  282loPI   C5A 4507   0.539   2.241   7.134 -0.2304 -0.2271  0.3673
  282loPI   C6A 4508   0.820   1.986   6.955 -0.1873  0.4288  0.0447
  282loPI   C1B 4509   0.823   3.526   8.371  0.2371  0.3730  0.2337
  282loPI   C2B 4510   0.559   3.418   8.074 -0.0598 -0.2969 -0.2407
  282loPI   C3B 4511   0.493   3.226   7.650  0.0588 -0.0691 -0.1144
  282loPI   C4B 4512   0.606   3.144   7.206  0.1609 -0.0256  0.3369
  283loPI    C1 4513  18.787  17.435  10.420 -0.0392  0.0925 -0.1825
  283loPI    C2 4514  18.941  17.725  10.191 -0.1304  0.2831 -0.0061
  283loPI    C3 4515  18.698  17.818  10.495  0.3293  0.0693  0.4411
  283loPI   PO4 4516  18.854  17.226  10.187  0.1392  0.1274  0.0243
  283loPI   GL1 4517  18.799  17.197   9.844  0.3959 -0.4515  0.0555
  283loPI   GL2 4518  18.405  17.012   9.737 -0.0811 -0.2015 -0.1027
  283loPI   C1A 4519  18.840  16.953   9.428 -0.4850 -0.0840  0.1597
  283loPI   C2A 4520  18.719  16.861   8.977  0.2404 -0.3714  0.0028
  283loPI   C3A 4521  18.665  16.842   8.611 -0.0218 -0.2287 -0.0532
  283loPI   C4A 4522  18.788  16.572   8.320 -0.2909  0.1736  0.0412
  283loPI   C5A 4523  19.164  16.610   7.975  0.1578 -0.0079 -0.1000
  283loPI   C6A 4524  19.451  16.483   7.676  0.1602 -0.1021 -0.0814
  283loPI   C1B 4525  18.311  17.004   9.298  0.2743  0.0369 -0.6181
  283loPI   C2B 4526  18.212  16.827   8.937 -0.1130 -0.2297  0.1051
  283loPI   C3B 4527  18.109  16.866   8.495  0.4998  0.0040 -0.0949
  283loPI   C4B 4528  17.811  16.665   8.202  0.3931 -0.3463 -0.0306
  284loPI    C1 4529  10.016  12.847  10.205 -0.1610 -0.0543  0.0634
  284loPI    C2 4530   9.787  12.626  10.447 -0.2496 -0.0475 -0.0139
  284loPI    C3 4531   9.696  13.010  10.381 -0.0779  0.0219  0.1455
  284loPI   PO4 4532  10.039  12.773   9.931 -0.4101  0.0328  0.1170
  284loPI   GL1 4533  10.152  12.694   9.453  0.3126 -0.2845 -0.1939
  284loPI   GL2 4534   9.817  12.824   9.412 -0.0246 -0.1694 -0.0035
  284loPI   C1A 4535  10.148  12.477   9.037 -0.0741  0.0321  0.1063
  284loPI   C2A 4536  10.172  12.373   8.595 -0.1981  0.0197 -0.0053
  284loPI   C3A 4537  10.296  12.211   8.257  0.1954 -0.0450  0.2749
  284loPI   C4A 4538  10.521  12.389   7.891 -0.3352  0.0320 -0.0134
  284loPI   C5A 4539  10.821  12.078   7.780  0.2305  0.1420  0.1755
  284loPI   C6A 4540  11.225  12.107   7.530  0.1690  0.1227 -0.2027
  284loPI   C1B 4541  10.042  13.008   9.036  0.2135 -0.1610 -0.1869
  284loPI   C2B 4542  10.092  13.497   8.786  0.3235 -0.0420 -0.2179
  284loPI   C3B 4543  10.051  13.752   8.391 -0.1227 -0.4613  0.3622
  284loPI   C4B 4544  10.185  13.836   7.990  0.0959  0.1976  0.1212
  285loPI    C1 4545   9.083   3.995   9.786 -0.0033  0.4784  0.0643
  285loPI    C2 4546   8.742   3.963   9.992  0.0418 -0.1911  0.0579
  285loPI    C3 4547   9.093   3.926  10.180  0.0980 -0.1304 -0.0345
  285loPI   PO4 4548   8.993   4.073   9.521  0.1992 -0.1756 -0.0944
  285loPI   GL1 4549   9.241   4.052   9.154  0.2206  0.1168  0.3970
  285loPI   GL2 4550   9.528   3.973   9.096  0.2063  0.3034  0.2159
  285loPI   C1A 4551   9.099   3.975   8.652  0.1890  0.0595  0.0977
  285loPI   C2A 4552   8.994   3.791   8.186  0.0711  0.0124 -0.1628
  285loPI   C3A 4553   8.884   3.583   7.818 -0.3822  0.0477 -0.0149
  285loPI   C4A 4554   9.169   3.502   7.514 -0.0525  0.3452  0.0466
  285loPI   C5A 4555   9.345   3.878   7.558  0.0111  0.0884 -0.1990
  285loPI   C6A 4556   9.679   4.034   7.388  0.1366 -0.0310 -0.0552
  285loPI   C1B 4557   9.554   3.842   8.777  0.0033 -0.0906  0.0499
  285loPI   C2B 4558   9.540   3.736   8.350 -0.1317  0.0347  0.1803
  285loPI   C3B 4559   9.349   3.501   7.983  0.0388 -0.1226  0.0188
  285loPI   C4B 4560   9.163   3.152   7.941 -0.3711  0.3786 -0.0510
  286loPI    C1 4561  17.746  15.459  10.359 -0.0822  0.2698  0.1300
  286loPI    C2 4562  17.589  15.091  10.361  0.0005  0.2291 -0.2104
  286loPI    C3 4563  17.639  15.289  10.705 -0.0405 -0.0780 -0.0235
  286loPI   PO4 4564  17.641  15.615  10.119  0.0713 -0.2153  0.1250
  286loPI   GL1 4565  17.477  15.736   9.701  0.0364 -0.0019 -0.1006
  286loPI   GL2 4566  17.829  15.654   9.660  0.2136 -0.3132 -0.1071
  286loPI   C1A 4567  17.303  16.016   9.369 -0.2078  0.1323 -0.3188
  286loPI   C2A 4568  17.236  16.144   8.967  0.2650 -0.3187  0.2376
  286loPI   C3A 4569  17.362  16.191   8.528  0.0825 -0.0083 -0.0940
  286loPI   C4A 4570  17.319  16.406   8.114 -0.0005  0.0612 -0.0217
  286loPI   C5A 4571  17.048  16.530   7.832 -0.1816 -0.2390 -0.1721
  286loPI   C6A 4572  17.082  16.507   7.346 -0.1990 -0.2946 -0.3306
  286loPI   C1B 4573  17.798  15.735   9.235 -0.1538  0.1626 -0.3402
  286loPI   C2B 4574  17.668  15.770   8.814 -0.2184 -0.4182  0.0867
  286loPI   C3B 4575  17.431  15.724   8.389 -0.0400 -0.0300  0.1116
  286loPI   C4B 4576  17.201  15.670   8.042 -0.3305  0.2308 -0.0457
  287loPI    C1 4577   1.046  14.985  10.280  0.3576  0.2069  0.1247
  287loPI    C2 4578   0.953  15.367  10.354  0.0183  0.1683 -0.0824
  287loPI    C3 4579   0.949  15.100  10.651 -0.1540  0.2457 -0.0139
  287loPI   PO4 4580   1.045  15.036   9.983  0.3184 -0.0735  0.0460
  287loPI   GL1 4581   1.050  14.778   9.492  0.1395  0.1854  0.0367
  287loPI   GL2 4582   1.260  14.734   9.499  0.2246 -0.2840 -0.1202
  287loPI   C1A 4583   0.839  14.647   9.125 -0.1197  0.4978  0.1063
  287loPI   C2A 4584   1.065  14.490   8.709 -0.0433  0.1068 -0.0725
  287loPI   C3A 4585   1.082  14.329   8.267 -0.2037  0.0106  0.4120
  287loPI   C4A 4586   1.178  14.438   7.947 -0.0321 -0.2826  0.2093
  287loPI   C5A 4587   0.953  14.569   7.640 -0.0361 -0.1835 -0.1190
  287loPI   C6A 4588   0.853  14.323   7.306 -0.0572 -0.0383 -0.0638
  287loPI   C1B 4589   1.337  14.815   9.023  0.3936  0.2102 -0.1429
  287loPI   C2B 4590   1.265  14.898   8.562  0.0420 -0.1745  0.1274
  287loPI   C3B 4591   0.927  14.798   8.217  0.0116 -0.1789 -0.0138
  287loPI   C4B 4592   1.192  14.919   7.970  0.1874  0.2097 -0.0100
  288loPI    C1 4593   3.949   0.975   9.678  0.1425 -0.0573  0.0115
  288loPI    C2 4594   4.001   0.584   9.746 -0.1134 -0.0945  0.0010
  288loPI    C3 4595   3.651   0.758   9.832  0.0352  0.1568  0.1100
  288loPI   PO4 4596   3.991   0.937   9.393 -0.2343 -0.1372  0.0543
  288loPI   GL1 4597   3.905   0.833   8.985 -0.3638 -0.2176  0.0897
  288loPI   GL2 4598   3.949   0.499   8.976  0.0148  0.2070 -0.3859
  288loPI   C1A 4599   4.081   0.937   8.599 -0.0605 -0.0435  0.0660
  288loPI   C2A 4600   3.983   1.021   8.202  0.0912  0.2468  0.2493
  288loPI   C3A 4601   4.102   1.169   7.798  0.2121  0.1043 -0.0874
  288loPI   C4A 4602   4.173   0.862   7.449  0.2724  0.5038 -0.0375
  288loPI   C5A 4603   4.165   0.950   6.987  0.1237 -0.1716 -0.2065
  288loPI   C6A 4604   3.774   1.187   6.866 -0.1587 -0.1186 -0.2468
  288loPI   C1B 4605   4.106   0.456   8.568  0.0863 -0.0498  0.2476
  288loPI   C2B 4606   4.066   0.528   8.168 -0.0432  0.0593 -0.3424
  288loPI   C3B 4607   4.319   0.495   7.856 -0.0843  0.0214 -0.1250
  288loPI   C4B 4608   4.630   0.236   7.944 -0.1060  0.1234 -0.0537
  289loPI    C1 4609   9.411  14.774   9.848 -0.0368  0.1940  0.0602
  289loPI    C2 4610   9.473  15.136  10.005 -0.2778  0.3398 -0.1714
  289loPI    C3 4611   9.203  15.089   9.714 -0.0845  0.0133 -0.3027
  289loPI   PO4 4612   9.605  14.704   9.755  0.1020  0.0555  0.1137
  289loPI   GL1 4613   9.844  14.553   9.378  0.3888  0.2018  0.0201
  289loPI   GL2 4614  10.130  14.749   9.402 -0.0899  0.1649 -0.2348
  289loPI   C1A 4615   9.712  14.374   9.056  0.3049 -0.1427  0.3489
  289loPI   C2A 4616   9.817  14.165   8.652 -0.1668 -0.0861  0.2347
  289loPI   C3A 4617   9.918  14.250   8.165  0.2355  0.0955 -0.0544
  289loPI   C4A 4618  10.256  14.271   7.841  0.0396 -0.0874  0.3653
  289loPI   C5A 4619  10.584  13.887   7.549  0.3065  0.3656  0.2839
  289loPI   C6A 4620  10.851  13.788   7.248  0.2463 -0.2121  0.0699
  289loPI   C1B 4621   9.885  14.848   8.992  0.2552 -0.1008  0.1911
  289loPI   C2B 4622   9.859  15.012   8.576 -0.0957  0.2840 -0.0227
  289loPI   C3B 4623   9.891  14.749   8.230  0.1842 -0.0168 -0.0698
  289loPI   C4B 4624   9.571  14.860   8.036 -0.0862 -0.2712 -0.3897
  290loPI    C1 4625  15.282  18.336  10.167  0.0417  0.4758 -0.3778
  290loPI    C2 4626  15.156  18.542  10.485  0.0621  0.0756 -0.1025
  290loPI    C3 4627  14.912  18.280  10.308  0.2772 -0.2090  0.0150
  290loPI   PO4 4628  15.437  18.232  10.152  0.0634  0.3479  0.1215
  290loPI   GL1 4629  15.490  17.986   9.839 -0.1908  0.1658 -0.0851
  290loPI   GL2 4630  15.637  17.792   9.674  0.2991  0.0311 -0.2531
  290loPI   C1A 4631  15.519  18.182   9.361 -0.1735 -0.0152  0.1277
  290loPI   C2A 4632  15.460  18.484   9.025  0.1463  0.1088 -0.1897
  290loPI   C3A 4633  15.407  18.368   8.612  0.1023 -0.1429  0.0139
  290loPI   C4A 4634  15.299  18.001   8.185  0.2539  0.1050  0.1863
  290loPI   C5A 4635  15.267  17.973   7.691 -0.1811 -0.0213  0.0472
  290loPI   C6A 4636  15.680  17.979   7.522 -0.1686  0.0354  0.3145
  290loPI   C1B 4637  15.389  17.604   9.271  0.2590 -0.0850  0.0296
  290loPI   C2B 4638  15.187  17.573   8.965  0.1311  0.1373 -0.1716
  290loPI   C3B 4639  15.098  17.718   8.570 -0.1944  0.0067 -0.1057
  290loPI   C4B 4640  14.982  17.683   8.068 -0.0280 -0.0037  0.1842
  291loPI    C1 4641  13.805   3.770   9.909 -0.0984  0.0551 -0.0818
  291loPI    C2 4642  13.576   4.069  10.043 -0.0142  0.0201  0.1445
  291loPI    C3 4643  13.439   3.693  10.051 -0.2456  0.0807 -0.4352
  291loPI   PO4 4644  13.820   3.905   9.637 -0.1114  0.3201 -0.2741
  291loPI   GL1 4645  13.662   4.056   9.346 -0.1064 -0.3741  0.3677
  291loPI   GL2 4646  13.490   4.271   9.213  0.1367 -0.0575 -0.2263
  291loPI   C1A 4647  13.948   4.273   9.001 -0.3729 -0.0779  0.0833
  291loPI   C2A 4648  14.151   4.544   8.705  0.1629 -0.2290 -0.0656
  291loPI   C3A 4649  14.199   4.620   8.265  0.0550 -0.0708 -0.0684
  291loPI   C4A 4650  14.105   4.770   7.899 -0.0548  0.1537 -0.1327
  291loPI   C5A 4651  14.167   5.120   7.669  0.3616 -0.0651 -0.0863
  291loPI   C6A 4652  13.762   5.302   7.509 -0.1099  0.3612 -0.0107
  291loPI   C1B 4653  13.464   4.132   8.829  0.0321  0.2218  0.2300
  291loPI   C2B 4654  13.796   4.190   8.506 -0.1271  0.2568  0.1483
  291loPI   C3B 4655  13.803   4.284   8.084  0.1814 -0.1582  0.2341
  291loPI   C4B 4656  13.912   4.293   7.697 -0.1349  0.1671 -0.0708
  292loPI    C1 4657   1.000  15.873  10.104 -0.0713 -0.0542  0.1783
  292loPI    C2 4658   1.268  16.171  10.101  0.0624 -0.1730  0.2105
  292loPI    C3 4659   1.067  16.085  10.436  0.0852 -0.1735  0.2240
  292loPI   PO4 4660   1.201  15.615   9.928 -0.0017  0.0941 -0.0246
  292loPI   GL1 4661   0.889  15.636   9.573 -0.0920 -0.1691  0.0309
  292loPI   GL2 4662   0.918  15.353   9.509  0.2361  0.0219  0.1131
  292loPI   C1A 4663   0.933  15.756   9.155 -0.1339 -0.1296 -0.2754
  292loPI   C2A 4664   0.865  15.797   8.700 -0.0843  0.1867  0.1130
  292loPI   C3A 4665   0.788  15.744   8.291  0.0420  0.3434 -0.0351
  292loPI   C4A 4666   0.872  15.882   7.832  0.1538 -0.2205 -0.1022
  292loPI   C5A 4667   1.179  16.135   7.676  0.1702 -0.0598 -0.5257
  292loPI   C6A 4668   1.578  16.417   7.765  0.4512  0.0239 -0.1902
  292loPI   C1B 4669   0.909  15.258   9.084 -0.1887  0.0081 -0.0565
  292loPI   C2B 4670   0.871  15.278   8.658  0.0867  0.0279  0.2288
  292loPI   C3B 4671   0.653  15.262   8.209 -0.0714 -0.1050 -0.0713
  292loPI   C4B 4672   0.524  15.454   7.841 -0.2436  0.1281  0.1379
  293loPI    C1 4673   6.658  13.299   9.669  0.0541  0.1873  0.0403
  293loPI    C2 4674   6.737  13.236  10.056 -0.1542 -0.1397  0.0330
  293loPI    C3 4675   7.018  13.390   9.817 -0.0183  0.0475  0.3087
  293loPI   PO4 4676   6.493  13.142   9.606 -0.1395 -0.0667  0.1084
  293loPI   GL1 4677   6.488  12.933   9.294 -0.3373 -0.2194  0.1035
  293loPI   GL2 4678   6.790  12.940   9.187  0.1680 -0.0354  0.2309
  293loPI   C1A 4679   6.251  12.566   9.040  0.0953 -0.0111 -0.2666
  293loPI   C2A 4680   6.250  12.360   8.612  0.2266 -0.0561  0.1007
  293loPI   C3A 4681   6.269  12.258   8.258 -0.0545 -0.2498  0.0695
  293loPI   C4A 4682   6.397  12.137   7.937  0.1440 -0.4488  0.2972
  293loPI   C5A 4683   6.540  12.201   7.497 -0.1434  0.2236  0.0353
  293loPI   C6A 4684   6.155  12.294   7.109 -0.0039 -0.1083 -0.2900
  293loPI   C1B 4685   6.569  13.031   8.818 -0.1202  0.0097 -0.2683
  293loPI   C2B 4686   6.366  13.199   8.493 -0.0563 -0.0866  0.0301
  293loPI   C3B 4687   6.324  13.396   8.120  0.1850  0.1203  0.0221
  293loPI   C4B 4688   6.204  13.201   7.794  0.1362  0.3620  0.1643
  294loPI    C1 4689  15.116  16.270  10.645 -0.3151 -0.2983  0.0370
  294loPI    C2 4690  15.044  16.602  10.854 -0.1456 -0.1304 -0.1658
  294loPI    C3 4691  15.226  16.292  11.029 -0.0375 -0.0058 -0.0545
  294loPI   PO4 4692  15.147  16.395  10.380 -0.1107 -0.1462  0.0036
  294loPI   GL1 4693  14.959  16.481  10.027  0.0850  0.1510 -0.2355
  294loPI   GL2 4694  15.267  16.749   9.916 -0.0736 -0.1924 -0.0263
  294loPI   C1A 4695  14.851  16.105   9.735 -0.0872 -0.2315  0.1048
  294loPI   C2A 4696  14.762  16.224   9.306  0.0657  0.0752  0.1850
  294loPI   C3A 4697  14.522  16.350   8.974  0.0626  0.1855 -0.3934
  294loPI   C4A 4698  14.471  16.630   8.660  0.2012  0.1571 -0.2052
  294loPI   C5A 4699  14.457  17.006   8.396  0.0817  0.3274 -0.0663
  294loPI   C6A 4700  14.088  17.278   8.163  0.2209  0.0537 -0.0582
  294loPI   C1B 4701  15.225  16.939   9.463  0.1584  0.1207 -0.1619
  294loPI   C2B 4702  15.112  17.071   9.022 -0.2685 -0.3020 -0.1085
  294loPI   C3B 4703  15.181  17.156   8.564  0.3078  0.2207 -0.2185
  294loPI   C4B 4704  14.862  17.264   8.300 -0.3308  0.2284  0.3237
  295loPI    C1 4705  14.600   4.071   9.931  0.2386 -0.1253  0.2816
  295loPI    C2 4706  14.208   4.147   9.944  0.2337 -0.1022  0.0368
  295loPI    C3 4707  14.451   4.306  10.218  0.0835 -0.0505  0.1412
  295loPI   PO4 4708  14.640   4.182   9.681 -0.1981 -0.0061  0.0212
  295loPI   GL1 4709  14.802   3.961   9.343  0.0095 -0.0761  0.0372
  295loPI   GL2 4710  14.890   4.317   9.282  0.0979 -0.1281  0.2531
  295loPI   C1A 4711  14.682   3.698   8.929 -0.0670 -0.1651 -0.0659
  295loPI   C2A 4712  14.558   3.439   8.628  0.1791  0.0564 -0.0677
  295loPI   C3A 4713  14.391   3.299   8.225  0.1204 -0.2618 -0.2116
  295loPI   C4A 4714  14.536   3.605   7.891  0.0869  0.1558  0.0784
  295loPI   C5A 4715  14.249   3.865   7.524  0.0295  0.1851  0.0935
  295loPI   C6A 4716  14.000   4.142   7.236 -0.0492  0.1361  0.1347
  295loPI   C1B 4717  14.986   4.074   8.920  0.1810 -0.2983 -0.1392
  295loPI   C2B 4718  14.920   3.936   8.486  0.0356  0.0427  0.1304
  295loPI   C3B 4719  14.693   4.125   8.108  0.0293 -0.2101  0.2379
  295loPI   C4B 4720  14.359   4.272   7.957  0.3356  0.0029  0.0889
  296loPI    C1 4721   2.869   7.315   9.769  0.2464  0.0738 -0.0636
  296loPI    C2 4722   2.766   6.938   9.855  0.0332  0.1434 -0.0072
  296loPI    C3 4723   3.060   7.116  10.059  0.1516  0.0001 -0.0511
  296loPI   PO4 4724   2.869   7.298   9.514  0.3367  0.2095  0.4762
  296loPI   GL1 4725   2.607   6.992   9.346 -0.0507 -0.1709  0.1225
  296loPI   GL2 4726   2.677   6.738   9.277 -0.0564  0.1615 -0.2205
  296loPI   C1A 4727   2.693   7.142   8.804 -0.1239  0.1805 -0.1268
  296loPI   C2A 4728   2.572   7.267   8.390  0.0288  0.0940 -0.0195
  296loPI   C3A 4729   2.533   7.306   7.957 -0.1191 -0.0923 -0.4025
  296loPI   C4A 4730   2.230   7.218   7.704 -0.0899  0.1757  0.0573
  296loPI   C5A 4731   1.992   7.123   7.401  0.0933 -0.1113  0.0816
  296loPI   C6A 4732   1.642   7.116   7.174 -0.4450 -0.1077  0.0629
  296loPI   C1B 4733   2.674   6.647   8.835  0.3412 -0.2159 -0.4149
  296loPI   C2B 4734   2.758   6.755   8.441 -0.1862  0.1621 -0.0346
  296loPI   C3B 4735   2.786   6.760   8.091 -0.3014 -0.2168  0.1462
  296loPI   C4B 4736   2.574   6.837   7.681 -0.1794 -0.0674  0.1227
  297loPI    C1 4737   4.675   7.645  10.151  0.0696  0.0071 -0.0346
  297loPI    C2 4738   4.342   7.505   9.980 -0.0209  0.1264  0.0419
  297loPI    C3 4739   4.320   7.708  10.324  0.1407  0.0542  0.0960
  297loPI   PO4 4740   4.842   7.580   9.921 -0.1274  0.0298 -0.0901
  297loPI   GL1 4741   4.755   7.377   9.531 -0.3560  0.0793  0.0065
  297loPI   GL2 4742   4.347   7.522   9.357  0.2020 -0.1488  0.0692
  297loPI   C1A 4743   5.035   7.406   9.127  0.0338  0.2662 -0.4604
  297loPI   C2A 4744   5.025   7.457   8.649  0.0407 -0.5004 -0.1978
  297loPI   C3A 4745   5.161   7.429   8.231 -0.0424  0.1030  0.0433
  297loPI   C4A 4746   5.558   7.433   7.969  0.5410 -0.2270 -0.0555
  297loPI   C5A 4747   5.942   7.359   7.690 -0.1842  0.1001  0.4790
  297loPI   C6A 4748   6.241   7.324   7.419  0.7562  0.2726  0.1160
  297loPI   C1B 4749   4.616   7.706   8.832 -0.0098 -0.1897 -0.1525
  297loPI   C2B 4750   4.756   7.710   8.335  0.0847  0.2487 -0.1121
  297loPI   C3B 4751   4.728   7.706   7.939  0.2291  0.4108 -0.3452
  297loPI   C4B 4752   4.751   7.605   7.559 -0.1184  0.0282 -0.1066
  298loPI    C1 4753   9.714   7.747  10.076 -0.0200 -0.2106 -0.0440
  298loPI    C2 4754   9.444   8.040  10.111 -0.1079 -0.2980  0.0159
  298loPI    C3 4755   9.554   7.830  10.433 -0.0327 -0.3202 -0.0238
  298loPI   PO4 4756   9.606   7.622   9.855  0.0347  0.2800 -0.0901
  298loPI   GL1 4757   9.330   7.365   9.642 -0.2465  0.1113  0.2411
  298loPI   GL2 4758   9.713   7.301   9.539 -0.0297 -0.0064 -0.0122
  298loPI   C1A 4759   9.458   7.373   9.168 -0.2066 -0.1250 -0.0536
  298loPI   C2A 4760   9.527   7.329   8.853 -0.1836  0.0940 -0.2656
  298loPI   C3A 4761   9.482   7.330   8.432  0.0018 -0.5368 -0.0610
  298loPI   C4A 4762   9.436   7.059   8.261  0.0060  0.0887 -0.1384
  298loPI   C5A 4763   9.623   6.834   8.010 -0.0651  0.0199  0.1922
  298loPI   C6A 4764   9.903   6.658   7.605  0.2004 -0.3089 -0.0687
  298loPI   C1B 4765   9.601   6.875   9.373 -0.0862 -0.1444  0.2496
  298loPI   C2B 4766   9.526   6.814   8.877  0.2506  0.0614 -0.1382
  298loPI   C3B 4767   9.582   6.644   8.507  0.0640  0.1206 -0.0858
  298loPI   C4B 4768   9.339   6.442   8.228 -0.0829 -0.0262 -0.0296
  299loPI    C1 4769   2.449   1.963   9.588 -0.1440  0.0545 -0.0572
  299loPI    C2 4770   2.748   1.882   9.842 -0.2138 -0.0239  0.0005
  299loPI    C3 4771   2.515   2.203   9.901 -0.1738  0.0081 -0.0153
  299loPI   PO4 4772   2.582   1.978   9.341 -0.0770  0.0053 -0.1624
  299loPI   GL1 4773   2.682   2.311   9.082 -0.1579  0.0830  0.0883
  299loPI   GL2 4774   2.788   2.084   8.834 -0.2692  0.1943 -0.0966
  299loPI   C1A 4775   2.555   2.528   8.733  0.1102  0.2374  0.1731
  299loPI   C2A 4776   2.516   2.556   8.296 -0.1617 -0.1631  0.1122
  299loPI   C3A 4777   2.583   2.654   7.929 -0.0103 -0.1266  0.2582
  299loPI   C4A 4778   2.497   2.728   7.408 -0.3429  0.0849 -0.0452
  299loPI   C5A 4779   2.192   2.740   7.144 -0.1205 -0.3695  0.1412
  299loPI   C6A 4780   2.093   2.323   6.885 -0.1441  0.1666  0.2387
  299loPI   C1B 4781   2.845   2.125   8.390 -0.1142 -0.2661 -0.1097
  299loPI   C2B 4782   2.891   2.016   8.017 -0.1720  0.0897 -0.1205
  299loPI   C3B 4783   2.776   2.017   7.604 -0.0117 -0.0802  0.0658
  299loPI   C4B 4784   2.760   1.821   7.315 -0.0196  0.2035  0.1081
  300loPI    C1 4785   2.181  11.811  10.536 -0.1926 -0.2827  0.0023
  300loPI    C2 4786   2.534  11.626  10.571 -0.1302 -0.1863 -0.1128
  300loPI    C3 4787   2.488  11.998  10.712 -0.2198 -0.2419  0.0065
  300loPI   PO4 4788   2.174  11.695  10.249 -0.0543 -0.0532  0.0577
  300loPI   GL1 4789   2.522  11.464  10.036  0.2036 -0.2071 -0.1577
  300loPI   GL2 4790   2.798  11.561   9.888  0.0732  0.0340 -0.0104
  300loPI   C1A 4791   2.599  11.174   9.722 -0.3371  0.0036  0.0198
  300loPI   C2A 4792   2.753  10.943   9.361  0.1253  0.3958 -0.2298
  300loPI   C3A 4793   2.632  10.917   8.862  0.1293  0.1366  0.0085
  300loPI   C4A 4794   2.529  11.053   8.364  0.0089 -0.1200  0.0270
  300loPI   C5A 4795   2.219  11.007   8.068  0.2556 -0.2791  0.0708
  300loPI   C6A 4796   1.981  11.141   7.692 -0.0582  0.2893  0.0861
  300loPI   C1B 4797   2.993  11.436   9.550  0.3831  0.0060  0.0132
  300loPI   C2B 4798   3.047  11.260   9.022 -0.1089 -0.0435 -0.2016
  300loPI   C3B 4799   3.014  11.267   8.527 -0.2065 -0.1170  0.0530
  300loPI   C4B 4800   3.017  11.101   8.193 -0.1580 -0.1275  0.5763
  301loPI    C1 4801   4.055   5.591   9.941 -0.2031 -0.1589 -0.0097
  301loPI    C2 4802   3.980   5.970   9.838 -0.3483 -0.1539  0.1112
  301loPI    C3 4803   3.866   5.671   9.598  0.0562 -0.1111 -0.1445
  301loPI   PO4 4804   4.384   5.559   9.957  0.0862  0.2465  0.1918
  301loPI   GL1 4805   4.655   5.516   9.505 -0.1780 -0.3684  0.1397
  301loPI   GL2 4806   4.834   5.783   9.409 -0.1504 -0.2527  0.3175
  301loPI   C1A 4807   4.501   5.394   9.093 -0.1498  0.0658 -0.0539
  301loPI   C2A 4808   4.394   5.458   8.766 -0.3201  0.0156  0.1720
  301loPI   C3A 4809   4.481   5.403   8.334  0.1557 -0.0521  0.0899
  301loPI   C4A 4810   4.544   5.400   7.986  0.0953 -0.3073  0.1542
  301loPI   C5A 4811   4.546   5.629   7.617 -0.0366  0.1744 -0.0106
  301loPI   C6A 4812   4.631   5.999   7.354  0.0212 -0.1055  0.2187
  301loPI   C1B 4813   4.787   5.817   8.974 -0.1483  0.2989  0.4943
  301loPI   C2B 4814   4.756   5.732   8.536  0.3055  0.1956  0.1026
  301loPI   C3B 4815   4.920   5.703   8.211  0.2309  0.0444 -0.2743
  301loPI   C4B 4816   5.042   5.623   7.776 -0.1604 -0.0747 -0.0536
  302loPI    C1 4817   4.656  18.242   9.592 -0.1379  0.1784  0.0159
  302loPI    C2 4818   4.810  18.551   9.391 -0.1980  0.0685 -0.2015
  302loPI    C3 4819   4.859  18.526   9.787 -0.0627  0.2772 -0.2036
  302loPI   PO4 4820   4.722  17.958   9.474 -0.0416 -0.1681 -0.0032
  302loPI   GL1 4821   4.894  17.896   9.053  0.1850  0.0817  0.2169
  302loPI   GL2 4822   4.794  18.253   9.031  0.1699 -0.0749  0.0978
  302loPI   C1A 4823   4.896  17.905   8.614  0.1545  0.2339 -0.3582
  302loPI   C2A 4824   5.000  17.692   8.229  0.1617 -0.0495  0.0336
  302loPI   C3A 4825   4.971  17.671   7.834 -0.3036 -0.1777 -0.0892
  302loPI   C4A 4826   5.032  17.665   7.397 -0.0828 -0.0079  0.1253
  302loPI   C5A 4827   5.168  17.384   7.129  0.1783 -0.1605 -0.0467
  302loPI   C6A 4828   5.405  17.000   7.149  0.3787  0.1932  0.3270
  302loPI   C1B 4829   4.532  18.579   8.725 -0.1173  0.1368 -0.0157
  302loPI   C2B 4830   4.552  18.780   8.311 -0.3245 -0.0334  0.2895
  302loPI   C3B 4831   4.691  18.784   7.940  0.4570 -0.0079  0.0384
  302loPI   C4B 4832   4.966  18.516   7.673  0.0745  0.0947 -0.4012
  303loPI    C1 4833   8.642   7.814   9.824 -0.2069  0.0026 -0.0380
  303loPI    C2 4834   8.665   7.761  10.220  0.0015  0.1572 -0.0280
  303loPI    C3 4835   8.335   7.918  10.059 -0.2088 -0.1955  0.0492
  303loPI   PO4 4836   8.757   7.632   9.720 -0.2644  0.0265  0.0334
  303loPI   GL1 4837   8.387   7.390   9.505  0.0783  0.2678 -0.1819
  303loPI   GL2 4838   8.265   7.738   9.475  0.0403  0.1481 -0.0746
  303loPI   C1A 4839   8.458   7.208   9.141 -0.0642 -0.0910  0.2368
  303loPI   C2A 4840   8.597   7.093   8.747 -0.0480 -0.0056  0.0232
  303loPI   C3A 4841   8.412   7.012   8.352 -0.3262  0.4559  0.0360
  303loPI   C4A 4842   7.974   7.069   8.226  0.1357  0.0964 -0.1565
  303loPI   C5A 4843   7.707   7.254   8.029 -0.1482 -0.0053  0.3013
  303loPI   C6A 4844   7.387   7.146   7.668 -0.3805 -0.2299 -0.1617
  303loPI   C1B 4845   8.013   7.550   9.231  0.0754  0.0496  0.0680
  303loPI   C2B 4846   7.750   7.597   8.891  0.0704  0.2226  0.1505
  303loPI   C3B 4847   7.715   7.528   8.431  0.4426 -0.2744 -0.1210
  303loPI   C4B 4848   7.531   7.717   8.146  0.2041  0.0546 -0.1230
  304loPI    C1 4849   0.476  15.060  10.207  0.0314  0.0451 -0.2347
  304loPI    C2 4850   0.616  15.387  10.026  0.0846  0.1436 -0.0185
  304loPI    C3 4851   0.385  15.422  10.351  0.0265 -0.0320 -0.0401
  304loPI   PO4 4852   0.358  14.974   9.936  0.0575  0.1732 -0.0230
  304loPI   GL1 4853   0.194  14.841   9.529 -0.1326 -0.0822 -0.0930
  304loPI   GL2 4854  -0.016  14.522   9.419  0.0416 -0.0094  0.2277
  304loPI   C1A 4855   0.455  14.899   9.236 -0.2103 -0.0679  0.0220
  304loPI   C2A 4856   0.528  14.906   8.775 -0.2917  0.3973  0.0677
  304loPI   C3A 4857   0.414  14.780   8.336  0.2320  0.0505  0.1382
  304loPI   C4A 4858   0.416  14.588   7.927  0.2893 -0.3061  0.1208
  304loPI   C5A 4859   0.462  14.558   7.487  0.1080  0.1247 -0.0628
  304loPI   C6A 4860   0.311  14.357   7.037 -0.0344 -0.2248 -0.0553
  304loPI   C1B 4861  -0.102  14.669   9.087  0.2045  0.0267  0.2241
  304loPI   C2B 4862  -0.106  14.627   8.658 -0.0612  0.1968 -0.0806
  304loPI   C3B 4863  -0.019  14.720   8.165 -0.0841  0.2079  0.2193
  304loPI   C4B 4864  -0.105  14.545   7.822 -0.1418  0.3079  0.0680
  305loPI    C1 4865  14.945  14.898  10.491  0.1484  0.1855 -0.0258
  305loPI    C2 4866  15.247  15.000  10.733  0.2038  0.0562 -0.0398
  305loPI    C3 4867  15.123  14.620  10.717 -0.0932  0.1431  0.1166
  305loPI   PO4 4868  15.062  15.075  10.286 -0.1140  0.1237 -0.3119
  305loPI   GL1 4869  15.101  15.139   9.960  0.3070  0.0558 -0.0727
  305loPI   GL2 4870  14.905  14.976   9.865 -0.1772 -0.0150  0.1899
  305loPI   C1A 4871  14.998  15.358   9.553  0.1773  0.0633 -0.1286
  305loPI   C2A 4872  14.870  15.308   9.194 -0.1308  0.0625  0.7217
  305loPI   C3A 4873  14.858  15.383   8.719 -0.1990 -0.0302 -0.0054
  305loPI   C4A 4874  14.753  15.406   8.273 -0.0295  0.1524  0.0413
  305loPI   C5A 4875  14.814  15.217   7.904  0.3226  0.0297 -0.0842
  305loPI   C6A 4876  15.076  15.211   7.535  0.1625  0.0464 -0.2487
  305loPI   C1B 4877  14.721  14.872   9.499 -0.1560  0.2398 -0.1022
  305loPI   C2B 4878  14.666  14.871   9.080 -0.2076 -0.1971  0.2095
  305loPI   C3B 4879  14.810  14.880   8.714 -0.0100 -0.5020 -0.1370
  305loPI   C4B 4880  14.770  14.902   8.384 -0.3950 -0.0399  0.1870
  306loPI    C1 4881   2.426  16.039  10.405  0.0070  0.1761 -0.1468
  306loPI    C2 4882   2.512  16.101  10.791  0.0255  0.1659 -0.1492
  306loPI    C3 4883   2.621  15.759  10.614 -0.0704  0.1287 -0.1373
  306loPI   PO4 4884   2.524  16.354  10.258  0.1940  0.1220  0.3940
  306loPI   GL1 4885   2.288  16.458   9.820 -0.0357 -0.3551  0.1231
  306loPI   GL2 4886   2.389  16.762   9.766  0.2137 -0.1732 -0.2554
  306loPI   C1A 4887   2.405  16.228   9.431 -0.0243 -0.4061  0.3057
  306loPI   C2A 4888   2.389  16.038   9.143  0.4758  0.4401 -0.3795
  306loPI   C3A 4889   2.238  15.879   8.796 -0.1753  0.2200 -0.1945
  306loPI   C4A 4890   2.067  16.087   8.428  0.3047 -0.0914  0.1945
  306loPI   C5A 4891   1.969  16.222   7.981 -0.0532  0.1216  0.5358
  306loPI   C6A 4892   2.000  16.375   7.456  0.1746 -0.1186 -0.2259
  306loPI   C1B 4893   2.246  17.122   9.427  0.0489 -0.1977 -0.1222
  306loPI   C2B 4894   1.886  17.041   9.065 -0.4303  0.1879  0.3587
  306loPI   C3B 4895   1.773  17.082   8.595  0.4140 -0.3156 -0.2828
  306loPI   C4B 4896   1.808  17.252   8.217  0.1037  0.0147  0.0087
  307loPI    C1 4897  10.703   2.013   9.849  0.0015 -0.0808 -0.0310
  307loPI    C2 4898  11.102   2.012   9.821  0.0077 -0.2129  0.0567
  307loPI    C3 4899  10.899   2.352   9.769  0.1469 -0.1024  0.2228
  307loPI   PO4 4900  10.623   1.847   9.709  0.1240 -0.2884 -0.0788
  307loPI   GL1 4901  10.801   1.434   9.334  0.1596 -0.1122 -0.3382
  307loPI   GL2 4902  10.901   1.737   9.262 -0.1710  0.0207 -0.0241
  307loPI   C1A 4903  10.991   1.156   9.065  0.1559  0.1850  0.2614
  307loPI   C2A 4904  11.131   1.014   8.633 -0.0644  0.1474 -0.2174
  307loPI   C3A 4905  11.351   0.968   8.289  0.1906  0.2698 -0.0786
  307loPI   C4A 4906  11.467   0.863   7.965  0.1445 -0.3436  0.0338
  307loPI   C5A 4907  11.449   0.947   7.599 -0.4706  0.2447 -0.0260
  307loPI   C6A 4908  11.324   1.264   7.174 -0.2078  0.1552  0.0292
  307loPI   C1B 4909  11.080   1.689   8.892  0.1283  0.2196 -0.2846
  307loPI   C2B 4910  11.119   1.440   8.427  0.1506 -0.0650 -0.0469
  307loPI   C3B 4911  11.123   1.333   8.024 -0.0612 -0.2858 -0.0529
  307loPI   C4B 4912  11.218   1.352   7.646  0.0528  0.0328  0.0311
  308loPI    C1 4913   2.724  10.162  10.251  0.1059 -0.1310  0.2799
  308loPI    C2 4914   2.767  10.135  10.648  0.0704 -0.0774  0.2875
  308loPI    C3 4915   2.482  10.369  10.493  0.1019 -0.0771  0.2298
  308loPI   PO4 4916   2.759   9.923  10.183 -0.0517 -0.1070 -0.0843
  308loPI   GL1 4917   2.650   9.625   9.839 -0.3576  0.1808  0.1419
  308loPI   GL2 4918   2.417   9.475   9.999  0.4471 -0.1408  0.2884
  308loPI   C1A 4919   2.537   9.371   9.432 -0.0294  0.2992  0.2643
  308loPI   C2A 4920   2.382   9.500   9.071 -0.3878  0.1230  0.0404
  308loPI   C3A 4921   2.546   9.597   8.699 -0.0351  0.0328 -0.1997
  308loPI   C4A 4922   2.676   9.584   8.281  0.0069 -0.0166 -0.0843
  308loPI   C5A 4923   2.571   9.677   7.915  0.1494  0.1390  0.0693
  308loPI   C6A 4924   2.757   9.804   7.608  0.1413 -0.2376 -0.0956
  308loPI   C1B 4925   2.264   9.826   9.636  0.0876 -0.2143  0.2912
  308loPI   C2B 4926   2.171   9.902   9.199 -0.1356 -0.1501 -0.1967
  308loPI   C3B 4927   2.388  10.098   8.852  0.0458  0.0394 -0.1145
  308loPI   C4B 4928   2.246  10.162   8.421 -0.0725  0.2528 -0.2134
  309loPI    C1 4929   5.199  17.286   9.551  0.1052  0.0034 -0.0547
  309loPI    C2 4930   5.419  17.157   9.859 -0.1967  0.0341  0.1789
  309loPI    C3 4931   5.237  17.513   9.879 -0.1341  0.0823 -0.0796
  309loPI   PO4 4932   5.250  17.098   9.385 -0.1745  0.0730  0.1464
  309loPI   GL1 4933   5.396  17.091   8.944 -0.0686 -0.0374 -0.2869
  309loPI   GL2 4934   5.690  17.091   8.912  0.3429  0.2510 -0.2214
  309loPI   C1A 4935   5.232  16.897   8.692 -0.0058 -0.1097 -0.0827
  309loPI   C2A 4936   5.103  16.815   8.410 -0.0157  0.2618  0.2055
  309loPI   C3A 4937   4.898  16.734   8.054 -0.4717 -0.0222 -0.0337
  309loPI   C4A 4938   4.872  16.655   7.675  0.0049  0.1937  0.1272
  309loPI   C5A 4939   4.906  16.838   7.197 -0.0502 -0.0777  0.0410
  309loPI   C6A 4940   4.963  17.050   6.833  0.3722  0.0209  0.3883
  309loPI   C1B 4941   6.054  16.974   8.618  0.0611  0.1443  0.3507
  309loPI   C2B 4942   5.950  16.882   8.106  0.1572  0.1424 -0.1412
  309loPI   C3B 4943   5.769  16.933   7.707  0.0279  0.1033 -0.1778
  309loPI   C4B 4944   5.892  17.025   7.226  0.1630 -0.0264  0.0541
  310loPI    C1 4945   8.164  16.958   9.719 -0.0646 -0.0864 -0.2849
  310loPI    C2 4946   7.842  16.903   9.487 -0.2583 -0.0355 -0.0329
  310loPI    C3 4947   7.813  16.859   9.883  0.0573 -0.0715 -0.0108
  310loPI   PO4 4948   8.351  16.700   9.581 -0.1629  0.2936  0.1127
  310loPI   GL1 4949   8.683  16.792   9.206  0.0179  0.1819  0.1726
  310loPI   GL2 4950   8.842  16.499   9.190  0.1268 -0.0614 -0.2532
  310loPI   C1A 4951   8.825  16.877   8.827 -0.1125  0.2296  0.1277
  310loPI   C2A 4952   8.913  17.033   8.395  0.0674  0.4193  0.1543
  310loPI   C3A 4953   8.786  17.162   8.059 -0.0035 -0.3355  0.0570
  310loPI   C4A 4954   8.795  17.388   7.719  0.1076 -0.1567  0.0129
  310loPI   C5A 4955   8.890  17.268   7.367 -0.1160 -0.1073  0.0779
  310loPI   C6A 4956   8.955  17.314   6.886  0.0902  0.0167 -0.0806
  310loPI   C1B 4957   9.205  16.678   9.063 -0.0110  0.1409 -0.1611
  310loPI   C2B 4958   9.297  16.959   8.741  0.2965  0.1412  0.0231
  310loPI   C3B 4959   9.372  16.908   8.278 -0.3107  0.0964 -0.1340
  310loPI   C4B 4960   9.781  16.831   8.012  0.0200 -0.1252 -0.0363
  311loPI    C1 4961  14.639   5.634  10.216  0.1877  0.1485 -0.1506
  311loPI    C2 4962  14.625   5.953  10.456  0.0883 -0.0514  0.1137
  311loPI    C3 4963  14.862   5.643  10.548  0.4372  0.0795 -0.3134
  311loPI   PO4 4964  14.711   5.671   9.934 -0.3644 -0.1292  0.2799
  311loPI   GL1 4965  14.742   5.487   9.567 -0.0947 -0.0516 -0.0848
  311loPI   GL2 4966  14.962   5.423   9.415  0.2597  0.0875 -0.2087
  311loPI   C1A 4967  14.450   5.330   9.192 -0.0386  0.0260 -0.1494
  311loPI   C2A 4968  14.401   5.441   8.700 -0.2622  0.0507  0.2725
  311loPI   C3A 4969  14.338   5.549   8.314  0.0184  0.2102 -0.2061
  311loPI   C4A 4970  14.350   5.644   7.880  0.1286 -0.0509 -0.0332
  311loPI   C5A 4971  14.167   5.633   7.503 -0.1418  0.0820  0.1381
  311loPI   C6A 4972  14.001   5.993   7.234 -0.1300  0.0616 -0.1173
  311loPI   C1B 4973  14.927   5.537   9.017 -0.2512  0.1252 -0.0418
  311loPI   C2B 4974  14.885   5.450   8.615  0.0301  0.2916 -0.1712
  311loPI   C3B 4975  14.830   5.467   8.235  0.0483 -0.1738  0.2590
  311loPI   C4B 4976  15.055   5.485   7.898 -0.1047 -0.1166 -0.2197
  312loPI    C1 4977  11.208   5.114   9.786  0.1396 -0.0755 -0.3270
  312loPI    C2 4978  10.916   4.878   9.923  0.1562  0.1744  0.1602
  312loPI    C3 4979  11.286   4.733   9.882  0.1334  0.0716  0.3060
  312loPI   PO4 4980  11.154   5.148   9.515 -0.2225 -0.0834 -0.2168
  312loPI   GL1 4981  11.097   5.274   9.042 -0.2815  0.1200 -0.0719
  312loPI   GL2 4982  11.222   5.037   8.999  0.0199  0.0444 -0.1009
  312loPI   C1A 4983  11.049   5.280   8.619  0.0649 -0.0794  0.1050
  312loPI   C2A 4984  10.935   5.253   8.229  0.1834  0.1513  0.1008
  312loPI   C3A 4985  10.850   5.533   7.940  0.1778  0.0338 -0.1665
  312loPI   C4A 4986  10.597   5.657   7.560 -0.1500  0.1767  0.0841
  312loPI   C5A 4987  10.618   6.027   7.355 -0.2297  0.0591 -0.3085
  312loPI   C6A 4988  10.649   6.046   6.970  0.1319  0.0424  0.0371
  312loPI   C1B 4989  11.166   4.794   8.640  0.0898 -0.2796  0.2603
  312loPI   C2B 4990  11.184   4.812   8.286 -0.0572  0.3273 -0.1438
  312loPI   C3B 4991  10.871   4.861   7.945  0.1469  0.4607  0.0571
  312loPI   C4B 4992  10.908   5.056   7.661 -0.1188 -0.1780 -0.0339
  313loPI    C1 4993   1.315  11.102  10.499 -0.2095  0.1231 -0.1604
  313loPI    C2 4994   1.222  10.947  10.856 -0.3496 -0.0445 -0.2682
  313loPI    C3 4995   1.330  11.331  10.827 -0.2322 -0.0578 -0.0313
  313loPI   PO4 4996   1.213  10.886  10.313  0.0452 -0.0443 -0.0398
  313loPI   GL1 4997   1.204  10.772   9.909 -0.6379  0.0532 -0.0015
  313loPI   GL2 4998   1.580  10.754   9.828  0.0578  0.1644 -0.0744
  313loPI   C1A 4999   1.006  10.509   9.564 -0.0027  0.1083 -0.0354
  313loPI   C2A 5000   0.836  10.320   9.122  0.1942  0.0744  0.1634
  313loPI   C3A 5001   0.813  10.421   8.677 -0.2739 -0.1038 -0.1373
  313loPI   C4A 5002   0.853  10.611   8.239 -0.3323  0.5923 -0.0593
  313loPI   C5A 5003   0.848  10.870   7.943  0.0502 -0.0949 -0.1744
  313loPI   C6A 5004   0.628  11.263   7.943 -0.1068  0.0450 -0.0657
  313loPI   C1B 5005   1.345  10.874   9.444 -0.0584 -0.1742  0.0954
  313loPI   C2B 5006   1.129  10.846   9.072  0.0061  0.0710 -0.3214
  313loPI   C3B 5007   1.072  10.791   8.697 -0.1281  0.0653 -0.5919
  313loPI   C4B 5008   1.067  11.074   8.402 -0.3391 -0.1612  0.1827
  314loPI    C1 5009   7.847   3.448   9.537  0.3279 -0.2318 -0.0213
  314loPI    C2 5010   7.605   3.516   9.848  0.0198 -0.3627 -0.2282
  314loPI    C3 5011   7.850   3.201   9.851  0.0995 -0.3002 -0.0712
  314loPI   PO4 5012   7.627   3.488   9.354  0.2852  0.4751  0.1126
  314loPI   GL1 5013   7.596   3.488   8.918  0.1068  0.3633  0.0020
  314loPI   GL2 5014   7.649   3.223   8.834  0.1197 -0.0768  0.0839
  314loPI   C1A 5015   7.325   3.697   8.596  0.2513 -0.1298  0.0479
  314loPI   C2A 5016   7.237   3.879   8.151  0.0843 -0.3299  0.1580
  314loPI   C3A 5017   7.088   3.872   7.723  0.0526 -0.2149  0.2134
  314loPI   C4A 5018   6.914   4.082   7.482  0.3381  0.0504  0.1832
  314loPI   C5A 5019   6.796   4.510   7.376  0.1673  0.1125  0.0708
  314loPI   C6A 5020   6.688   4.860   7.208 -0.0472 -0.1680 -0.1904
  314loPI   C1B 5021   7.618   3.303   8.235  0.0474  0.0938 -0.0034
  314loPI   C2B 5022   7.680   3.218   7.849 -0.1146 -0.3526  0.1676
  314loPI   C3B 5023   7.718   3.367   7.428  0.1494  0.1699  0.2058
  314loPI   C4B 5024   7.901   3.630   7.244  0.2667  0.4607  0.3116
  315loPI    C1 5025   6.293   2.543   9.487  0.0347  0.0723 -0.0413
  315loPI    C2 5026   6.506   2.424   9.804 -0.0588  0.2792  0.1016
  315loPI    C3 5027   6.107   2.400   9.810 -0.0633  0.3272  0.0173
  315loPI   PO4 5028   6.491   2.579   9.327  0.0030 -0.1545 -0.3555
  315loPI   GL1 5029   6.695   2.317   8.971 -0.2640  0.0803  0.0069
  315loPI   GL2 5030   6.337   2.237   9.016 -0.1102 -0.0214 -0.4405
  315loPI   C1A 5031   6.801   2.615   8.643 -0.0151  0.0364 -0.0572
  315loPI   C2A 5032   6.671   2.969   8.505 -0.2439 -0.0449  0.2268
  315loPI   C3A 5033   6.687   3.259   8.160  0.6299 -0.1328  0.1036
  315loPI   C4A 5034   6.774   3.304   7.798 -0.1891  0.0689 -0.0869
  315loPI   C5A 5035   7.135   3.326   7.500  0.1724  0.1496  0.1698
  315loPI   C6A 5036   7.288   3.256   7.158 -0.1193  0.0059  0.0786
  315loPI   C1B 5037   6.391   2.322   8.512 -0.0931  0.5469 -0.2304
  315loPI   C2B 5038   6.486   2.439   8.230 -0.4556  0.0057  0.3207
  315loPI   C3B 5039   6.526   2.457   7.839  0.0504  0.0322 -0.3075
  315loPI   C4B 5040   6.441   2.600   7.384 -0.2727  0.2366  0.1892
  316loPI    C1 5041  15.886  14.478  10.430 -0.2316  0.1447  0.1605
  316loPI    C2 5042  15.718  14.205  10.670 -0.2788  0.1147  0.0934
  316loPI    C3 5043  15.706  14.593  10.769 -0.1197  0.0830  0.2416
  316loPI   PO4 5044  15.807  14.439  10.142 -0.1075 -0.0847  0.0275
  316loPI   GL1 5045  15.577  14.745   9.808 -0.1664  0.0319  0.1620
  316loPI   GL2 5046  15.709  14.509   9.647 -0.2462 -0.0878 -0.0271
  316loPI   C1A 5047  15.195  14.684   9.526  0.2214 -0.0387  0.1034
  316loPI   C2A 5048  15.163  14.684   9.112  0.0244  0.3468  0.2571
  316loPI   C3A 5049  15.219  14.690   8.602  0.0407 -0.0064  0.0507
  316loPI   C4A 5050  15.251  14.643   8.235 -0.0291  0.0711 -0.0813
  316loPI   C5A 5051  15.424  14.387   7.938 -0.0014  0.0935  0.0843
  316loPI   C6A 5052  15.393  13.937   7.855  0.1358  0.0102 -0.2444
  316loPI   C1B 5053  15.642  14.610   9.271  0.0334 -0.2636 -0.2334
  316loPI   C2B 5054  15.627  14.811   8.879  0.2478 -0.1132  0.3528
  316loPI   C3B 5055  15.717  14.730   8.524 -0.1801  0.1856  0.1470
  316loPI   C4B 5056  15.761  14.746   8.002  0.0200 -0.4230 -0.1631
  317loPI    C1 5057  10.908   7.192  10.025  0.2618  0.1557  0.0373
  317loPI    C2 5058  10.840   6.862  10.241 -0.0567 -0.0294 -0.3339
  317loPI    C3 5059  10.663   7.207  10.341  0.0805 -0.0271 -0.0920
  317loPI   PO4 5060  10.906   7.077   9.745  0.0447 -0.3006 -0.3561
  317loPI   GL1 5061  11.068   6.759   9.542 -0.2876 -0.0987 -0.0016
  317loPI   GL2 5062  10.977   6.491   9.381 -0.2129 -0.0198 -0.0706
  317loPI   C1A 5063  11.389   6.730   9.169  0.1061  0.0706  0.1090
  317loPI   C2A 5064  11.347   6.665   8.777 -0.1632 -0.1656 -0.1441
  317loPI   C3A 5065  11.326   6.688   8.337 -0.3479 -0.0917  0.1706
  317loPI   C4A 5066  11.352   6.424   7.927  0.0463 -0.2661  0.1741
  317loPI   C5A 5067  11.447   6.044   7.737  0.0707 -0.4328  0.0732
  317loPI   C6A 5068  11.636   6.040   7.246 -0.3122  0.0906 -0.0503
  317loPI   C1B 5069  10.889   6.771   9.024 -0.1966 -0.0578  0.2980
  317loPI   C2B 5070  10.675   6.841   8.758  0.0614  0.0504  0.0405
  317loPI   C3B 5071  10.487   6.845   8.345 -0.1779 -0.0704  0.1977
  317loPI   C4B 5072  10.443   6.643   7.966 -0.0568  0.0122  0.1485
  318loPI    C1 5073   0.536  10.441  10.507  0.0701 -0.0728 -0.1456
  318loPI    C2 5074   0.717  10.175  10.745 -0.0008  0.0237  0.0180
  318loPI    C3 5075   0.889  10.529  10.674 -0.0259  0.0333  0.0047
  318loPI   PO4 5076   0.510  10.207  10.275 -0.1428  0.0242 -0.0056
  318loPI   GL1 5077   0.485  10.459   9.928 -0.0282  0.0873 -0.0089
  318loPI   GL2 5078   0.685  10.732   9.951  0.2264 -0.2077 -0.0271
  318loPI   C1A 5079   0.495  10.548   9.517 -0.3077 -0.2055  0.1355
  318loPI   C2A 5080   0.584  10.798   8.993 -0.2666  0.0605  0.1290
  318loPI   C3A 5081   0.532  10.848   8.526  0.3015 -0.0023  0.1548
  318loPI   C4A 5082   0.388  10.727   8.078  0.0234  0.0802 -0.2752
  318loPI   C5A 5083   0.295  10.509   7.693 -0.1535 -0.1515 -0.2630
  318loPI   C6A 5084   0.295  10.073   7.517 -0.0697  0.1842  0.0282
  318loPI   C1B 5085   0.767  11.044   9.603  0.0025  0.3032  0.4136
  318loPI   C2B 5086   0.811  11.255   9.255 -0.2648 -0.0267  0.1484
  318loPI   C3B 5087   0.795  11.196   8.796  0.1071  0.0157  0.0687
  318loPI   C4B 5088   0.644  11.345   8.464 -0.0575  0.1166  0.0272
  319loPI    C1 5089  12.232   9.492  10.056 -0.2475  0.1676  0.2031
  319loPI    C2 5090  12.423   9.456  10.405 -0.0356 -0.3325  0.0442
  319loPI    C3 5091  12.093   9.241  10.335 -0.1558 -0.1310 -0.0146
  319loPI   PO4 5092  12.442   9.464   9.863 -0.1625  0.0965 -0.0535
  319loPI   GL1 5093  12.443   9.234   9.598  0.2423 -0.0903  0.0923
  319loPI   GL2 5094  12.513   9.499   9.397  0.2638 -0.1511 -0.0736
  319loPI   C1A 5095  12.267   9.195   9.158 -0.2655 -0.0221 -0.0447
  319loPI   C2A 5096  12.334   9.174   8.689 -0.0137  0.3556 -0.2139
  319loPI   C3A 5097  12.359   9.187   8.244 -0.0338  0.1365  0.2750
  319loPI   C4A 5098  12.365   9.173   7.875  0.0800  0.1516 -0.1999
  319loPI   C5A 5099  12.028   9.095   7.458 -0.4340 -0.0015  0.2385
  319loPI   C6A 5100  11.730   8.911   7.632  0.4032 -0.2159  0.0717
  319loPI   C1B 5101  12.556   9.525   8.919  0.0558 -0.1343  0.0111
  319loPI   C2B 5102  12.644   9.508   8.423  0.0582  0.0099  0.1884
  319loPI   C3B 5103  12.710   9.488   8.012 -0.2263 -0.1094  0.1164
  319loPI   C4B 5104  12.757   9.540   7.609 -0.0323 -0.0347  0.0367
  320loPI    C1 5105   7.140  16.392   9.807  0.1576  0.0858 -0.0594
  320loPI    C2 5106   7.463  16.538   9.993  0.2319  0.1100 -0.2058
  320loPI    C3 5107   7.103  16.695  10.066  0.2093 -0.1089  0.1797
  320loPI   PO4 5108   7.252  16.147   9.709 -0.0113  0.0665 -0.2186
  320loPI   GL1 5109   7.224  16.009   9.290  0.3178  0.2557  0.2779
  320loPI   GL2 5110   7.675  15.948   9.311 -0.0369 -0.1453 -0.1191
  320loPI   C1A 5111   7.109  16.240   8.982  0.2147  0.1641  0.1960
  320loPI   C2A 5112   7.004  16.452   8.571 -0.1068 -0.0289  0.0796
  320loPI   C3A 5113   6.861  16.574   8.129 -0.2776  0.1269  0.2366
  320loPI   C4A 5114   7.051  16.455   7.772 -0.0635 -0.0753  0.0969
  320loPI   C5A 5115   7.503  16.617   7.521 -0.2281 -0.1396 -0.0557
  320loPI   C6A 5116   7.782  16.298   7.281  0.4226 -0.4369  0.0415
  320loPI   C1B 5117   7.539  15.970   8.934  0.0573 -0.0763 -0.1991
  320loPI   C2B 5118   7.577  16.137   8.587 -0.1258 -0.0277 -0.1352
  320loPI   C3B 5119   7.467  16.414   8.366 -0.0716 -0.2636 -0.3252
  320loPI   C4B 5120   7.351  16.712   8.133 -0.0881  0.1174 -0.1949
  321loPI    C1 5121   4.318  16.604   9.749 -0.1416  0.1123  0.1454
  321loPI    C2 5122   4.705  16.520   9.802 -0.0334  0.2378 -0.3858
  321loPI    C3 5123   4.532  16.810  10.016  0.1039  0.0347  0.0116
  321loPI   PO4 5124   4.289  16.609   9.527 -0.4741 -0.0783 -0.1392
  321loPI   GL1 5125   3.976  16.798   9.144  0.1428 -0.5011 -0.2951
  321loPI   GL2 5126   3.752  16.902   9.008  0.1874 -0.1964 -0.0020
  321loPI   C1A 5127   4.157  16.669   8.732  0.0455  0.2481 -0.1714
  321loPI   C2A 5128   4.189  16.570   8.282  0.2046  0.3470  0.0409
  321loPI   C3A 5129   4.362  16.644   7.912  0.1313  0.1397  0.0725
  321loPI   C4A 5130   4.278  16.667   7.472  0.0605 -0.1657 -0.1256
  321loPI   C5A 5131   4.366  16.740   7.145 -0.4569 -0.1022  0.3201
  321loPI   C6A 5132   4.486  16.703   6.730  0.2702  0.1025  0.0724
  321loPI   C1B 5133   3.745  16.731   8.543 -0.1197 -0.4221  0.0757
  321loPI   C2B 5134   3.661  16.651   8.185  0.0918  0.0717  0.1732
  321loPI   C3B 5135   3.906  16.430   7.872  0.5548  0.0462 -0.0148
  321loPI   C4B 5136   4.099  16.221   7.499  0.0845 -0.0712 -0.1161
  322loPI    C1 5137   3.456   1.284   9.733 -0.1056 -0.1293  0.0450
  322loPI    C2 5138   3.060   1.257   9.780 -0.0817 -0.1654  0.2345
  322loPI    C3 5139   3.257   1.572   9.927 -0.0492 -0.1105  0.0753
  322loPI   PO4 5140   3.480   1.224   9.446  0.1558  0.2506  0.5465
  322loPI   GL1 5141   3.741   1.319   9.119  0.0214  0.1406 -0.1065
  322loPI   GL2 5142   4.042   1.356   8.976 -0.0930 -0.0435  0.2658
  322loPI   C1A 5143   3.665   1.193   8.711  0.0678 -0.2983  0.0129
  322loPI   C2A 5144   3.501   1.234   8.246  0.2493  0.0515  0.0362
  322loPI   C3A 5145   3.631   1.262   7.849  0.1638  0.2692  0.0364
  322loPI   C4A 5146   3.786   1.247   7.423 -0.3182  0.3463 -0.0348
  322loPI   C5A 5147   4.255   1.329   7.286 -0.1473  0.1342  0.2023
  322loPI   C6A 5148   4.595   1.236   7.121 -0.4569 -0.3766  0.0897
  322loPI   C1B 5149   4.204   1.439   8.537  0.0062 -0.2763 -0.0802
  322loPI   C2B 5150   4.394   1.303   8.256 -0.3756 -0.0374  0.0981
  322loPI   C3B 5151   4.578   1.404   7.904 -0.1002  0.0821  0.3259
  322loPI   C4B 5152   4.635   1.715   7.563  0.0344 -0.0488 -0.0648
  323loPI    C1 5153   0.597   4.357   9.459 -0.0753  0.1173  0.0620
  323loPI    C2 5154   0.585   4.754   9.409 -0.0143  0.1327  0.1682
  323loPI    C3 5155   0.858   4.591   9.651 -0.0158  0.0229  0.0964
  323loPI   PO4 5156   0.568   4.229   9.170  0.0752 -0.2448  0.2541
  323loPI   GL1 5157   0.770   4.187   8.819 -0.1235 -0.1809 -0.0777
  323loPI   GL2 5158   0.845   4.502   8.556 -0.0710 -0.1959  0.1178
  323loPI   C1A 5159   0.889   4.010   8.503 -0.0536  0.1484  0.3155
  323loPI   C2A 5160   0.805   3.988   8.089 -0.0504 -0.2589  0.1478
  323loPI   C3A 5161   0.666   3.782   7.708 -0.2016 -0.1578 -0.0193
  323loPI   C4A 5162   0.755   3.638   7.371 -0.1178  0.1011 -0.1949
  323loPI   C5A 5163   0.914   3.421   6.970 -0.3945  0.0001 -0.1119
  323loPI   C6A 5164   0.818   3.093   6.771  0.0251 -0.4336 -0.5101
  323loPI   C1B 5165   0.464   4.319   8.478 -0.1178 -0.4742  0.3102
  323loPI   C2B 5166   0.329   4.028   8.245  0.0952 -0.1723  0.1404
  323loPI   C3B 5167   0.138   4.098   7.897 -0.1185  0.2311  0.3176
  323loPI   C4B 5168   0.271   4.114   7.548 -0.0209 -0.1714  0.3755
  324loPI    C1 5169   1.667  14.021   9.941 -0.0114 -0.0637  0.1424
  324loPI    C2 5170   1.691  14.420   9.945  0.0298 -0.0671  0.2358
  324loPI    C3 5171   1.640  14.219  10.287 -0.1024 -0.1351  0.1767
  324loPI   PO4 5172   1.905  13.856   9.866  0.2886 -0.3616 -0.2092
  324loPI   GL1 5173   2.105  13.892   9.474  0.3177  0.3476  0.1742
  324loPI   GL2 5174   2.104  13.601   9.358 -0.1442 -0.1028  0.1370
  324loPI   C1A 5175   2.031  14.012   9.105 -0.2183 -0.3953  0.0691
  324loPI   C2A 5176   1.719  14.236   8.969 -0.4296 -0.2362  0.0784
  324loPI   C3A 5177   1.569  14.493   8.669 -0.1473 -0.5514  0.1431
  324loPI   C4A 5178   1.583  14.536   8.180  0.0466 -0.2113  0.2551
  324loPI   C5A 5179   1.555  14.600   7.693  0.0746 -0.0515  0.1411
  324loPI   C6A 5180   1.842  14.447   7.364 -0.1957 -0.2993  0.1033
  324loPI   C1B 5181   2.109  13.473   8.897 -0.0319  0.2514  0.1868
  324loPI   C2B 5182   2.133  13.366   8.392 -0.0638 -0.2989 -0.0000
  324loPI   C3B 5183   2.224  13.293   7.913  0.2789 -0.0026 -0.1472
  324loPI   C4B 5184   2.504  13.581   7.778 -0.1736  0.2166 -0.2645
  325loPI    C1 5185  19.008  18.179   9.947  0.0239 -0.0354  0.3299
  325loPI    C2 5186  19.054  18.557  10.069 -0.2574  0.0446  0.1977
  325loPI    C3 5187  18.838  18.302  10.288 -0.0117 -0.0604  0.3214
  325loPI   PO4 5188  19.099  18.103   9.692  0.0650 -0.0495 -0.1213
  325loPI   GL1 5189  18.970  18.135   9.338 -0.0998  0.0038 -0.2754
  325loPI   GL2 5190  19.348  17.902   9.297  0.2975 -0.1492 -0.3494
  325loPI   C1A 5191  18.815  17.838   9.049  0.1245 -0.1889  0.2968
  325loPI   C2A 5192  18.736  17.746   8.695  0.0046 -0.1062 -0.0510
  325loPI   C3A 5193  18.577  17.856   8.340  0.0477  0.0004  0.4339
  325loPI   C4A 5194  18.697  17.986   7.842  0.0971 -0.2379 -0.4095
  325loPI   C5A 5195  18.531  17.683   7.455  0.2657  0.1396 -0.2648
  325loPI   C6A 5196  18.206  17.474   7.223  0.4722 -0.2260  0.2487
  325loPI   C1B 5197  19.300  17.927   8.895  0.1692 -0.0195 -0.3181
  325loPI   C2B 5198  19.294  17.932   8.565  0.2451  0.2169  0.0705
  325loPI   C3B 5199  19.097  17.916   8.207 -0.0503 -0.1139 -0.0318
  325loPI   C4B 5200  19.177  17.998   7.731  0.0319  0.2839  0.2980
  326loPI    C1 5201   8.027  13.582   9.612 -0.0103  0.1268 -0.1556
  326loPI    C2 5202   7.952  13.820   9.925 -0.0863  0.0653 -0.1267
  326loPI    C3 5203   8.178  13.494   9.972  0.1825  0.2363 -0.2078
  326loPI   PO4 5204   8.045  13.799   9.394 -0.0168  0.1093 -0.4033
  326loPI   GL1 5205   7.984  14.089   9.022  0.1023 -0.2211  0.5123
  326loPI   GL2 5206   7.744  13.822   8.945  0.2016 -0.0969  0.2063
  326loPI   C1A 5207   7.947  14.258   8.607 -0.1507  0.3510  0.0844
  326loPI   C2A 5208   8.046  14.485   8.247 -0.2142 -0.0304  0.1902
  326loPI   C3A 5209   7.807  14.539   7.829  0.2281  0.0105 -0.0431
  326loPI   C4A 5210   7.725  14.581   7.392  0.3161  0.0917  0.2810
  326loPI   C5A 5211   7.693  14.475   6.935 -0.1105  0.0019  0.1251
  326loPI   C6A 5212   7.842  14.307   6.655  0.0888 -0.0061  0.2566
  326loPI   C1B 5213   7.583  13.941   8.408  0.4216 -0.1232 -0.2178
  326loPI   C2B 5214   7.488  14.039   7.997 -0.0788  0.4505  0.0968
  326loPI   C3B 5215   7.598  14.043   7.670 -0.3286 -0.2145 -0.2066
  326loPI   C4B 5216   7.461  14.191   7.288  0.0971 -0.1059 -0.0399
  327loPI    C1 5217  10.333  17.097   9.887 -0.1931 -0.0231 -0.0804
  327loPI    C2 5218  10.380  17.418  10.122  0.0351 -0.0361 -0.1065
  327loPI    C3 5219  10.387  17.051  10.280  0.1550 -0.0434 -0.1279
  327loPI   PO4 5220  10.365  17.163   9.729  0.1351  0.0952  0.1470
  327loPI   GL1 5221  10.289  17.108   9.289 -0.0907 -0.3240  0.1085
  327loPI   GL2 5222  10.100  17.370   9.340  0.1749  0.1308 -0.1658
  327loPI   C1A 5223  10.219  16.948   8.841  0.1790 -0.2152 -0.0728
  327loPI   C2A 5224  10.209  17.059   8.400 -0.2755 -0.2337 -0.0013
  327loPI   C3A 5225  10.287  17.067   7.984  0.4296 -0.0165  0.0336
  327loPI   C4A 5226  10.284  17.295   7.558 -0.4231 -0.3103 -0.0743
  327loPI   C5A 5227  10.451  17.730   7.623  0.2377 -0.3263 -0.3311
  327loPI   C6A 5228  10.591  18.101   7.754  0.1387 -0.2394 -0.4055
  327loPI   C1B 5229  10.154  17.523   8.867  0.2749  0.2070 -0.1866
  327loPI   C2B 5230  10.086  17.536   8.397 -0.0598 -0.0254 -0.0025
  327loPI   C3B 5231  10.062  17.723   7.917 -0.0196  0.0534  0.1091
  327loPI   C4B 5232  10.103  18.095   7.751  0.1705 -0.3160  0.1446
  328loPI    C1 5233  10.759   7.883   9.854  0.0812  0.0808  0.0685
  328loPI    C2 5234  10.854   7.635  10.153 -0.3129 -0.1525  0.0071
  328loPI    C3 5235  10.981   8.014  10.160  0.3528 -0.3642  0.0709
  328loPI   PO4 5236  10.899   7.674   9.644  0.0325  0.2048 -0.2292
  328loPI   GL1 5237  11.030   8.001   9.372 -0.2294  0.0074 -0.2367
  328loPI   GL2 5238  10.738   7.958   9.239  0.1121  0.1513 -0.0260
  328loPI   C1A 5239  11.057   8.181   8.985 -0.0302 -0.0838 -0.0987
  328loPI   C2A 5240  10.857   8.245   8.624  0.0567 -0.2343  0.1255
  328loPI   C3A 5241  10.681   8.453   8.277  0.1153 -0.2534 -0.2146
  328loPI   C4A 5242  10.518   8.586   7.880 -0.2370  0.0630 -0.0220
  328loPI   C5A 5243  10.369   8.419   7.416 -0.1874  0.1401 -0.0603
  328loPI   C6A 5244  10.435   8.303   7.018  0.0495  0.0427 -0.0224
  328loPI   C1B 5245  10.822   7.685   9.033  0.2779  0.0691 -0.1083
  328loPI   C2B 5246  10.810   7.708   8.533  0.0529  0.0605 -0.1219
  328loPI   C3B 5247  10.906   7.713   8.200 -0.1070  0.0187 -0.0248
  328loPI   C4B 5248  11.042   7.476   7.936 -0.4875 -0.2015 -0.2911
  329loPI    C1 5249   6.482  16.808   9.459 -0.0635  0.0830 -0.0726
  329loPI    C2 5250   6.442  17.058   9.769 -0.1639  0.3442 -0.2926
  329loPI    C3 5251   6.785  16.860   9.715 -0.2778 -0.0070  0.2042
  329loPI   PO4 5252   6.404  16.928   9.279 -0.2371 -0.0775 -0.2255
  329loPI   GL1 5253   6.442  16.670   8.910  0.1117  0.2326 -0.1093
  329loPI   GL2 5254   6.799  16.765   9.019 -0.1271 -0.0775  0.1353
  329loPI   C1A 5255   6.462  16.640   8.433  0.2716 -0.0816 -0.1481
  329loPI   C2A 5256   6.364  16.549   7.981  0.1642  0.0572  0.4634
  329loPI   C3A 5257   6.557  16.596   7.551 -0.0916  0.1744  0.1424
  329loPI   C4A 5258   6.725  16.343   7.284 -0.1775  0.1495  0.1692
  329loPI   C5A 5259   6.904  16.004   7.124 -0.0674  0.0858 -0.1182
  329loPI   C6A 5260   6.812  15.634   7.323 -0.2651  0.1497  0.0557
  329loPI   C1B 5261   6.773  16.941   8.678  0.1798  0.2705  0.1006
  329loPI   C2B 5262   6.955  17.032   8.267  0.2592  0.2014  0.1229
  329loPI   C3B 5263   6.914  17.005   7.732  0.1030 -0.1488  0.0737
  329loPI   C4B 5264   6.996  16.741   7.397  0.0648  0.0751 -0.3966
  330loPI    C1 5265   5.182  16.249   9.649  0.2692  0.3395  0.0475
  330loPI    C2 5266   4.919  16.072   9.893  0.2121  0.0807 -0.1971
  330loPI    C3 5267   5.152  16.366  10.031  0.0644  0.0524  0.1230
  330loPI   PO4 5268   5.071  16.376   9.488 -0.0910 -0.1208 -0.0682
  330loPI   GL1 5269   4.972  16.124   9.038 -0.1375  0.1830  0.3140
  330loPI   GL2 5270   5.163  16.348   9.023 -0.0294  0.0622 -0.0815
  330loPI   C1A 5271   5.115  15.888   8.682 -0.1584  0.2497 -0.2151
  330loPI   C2A 5272   5.069  15.859   8.255 -0.4185 -0.2242 -0.0666
  330loPI   C3A 5273   4.798  16.045   7.925  0.0748 -0.3900  0.1817
  330loPI   C4A 5274   4.615  16.210   7.612  0.0377  0.2458 -0.3815
  330loPI   C5A 5275   4.678  16.379   7.172  0.1678  0.1547  0.1031
  330loPI   C6A 5276   4.563  16.212   6.802  0.0186 -0.1066 -0.0666
  330loPI   C1B 5277   5.343  16.377   8.661 -0.0653  0.0830  0.1309
  330loPI   C2B 5278   5.540  16.607   8.308 -0.2633  0.1361  0.2983
  330loPI   C3B 5279   5.784  16.397   7.951 -0.0430  0.0974  0.0244
  330loPI   C4B 5280   5.698  16.218   7.573  0.0441 -0.2252 -0.2611
  331loPI    C1 5281   0.726   2.832   9.553 -0.1378  0.0741 -0.1222
  331loPI    C2 5282   0.528   2.555   9.343  0.1261  0.0236 -0.3090
  331loPI    C3 5283   0.543   2.530   9.742 -0.1176 -0.0525 -0.3027
  331loPI   PO4 5284   0.921   2.861   9.382  0.0722 -0.0237 -0.1413
  331loPI   GL1 5285   0.819   2.823   8.963 -0.0311 -0.4269 -0.0834
  331loPI   GL2 5286   1.149   2.936   8.993  0.1234  0.1104  0.0718
  331loPI   C1A 5287   1.057   2.683   8.598  0.3362 -0.1690  0.1797
  331loPI   C2A 5288   1.164   2.655   8.118 -0.0262 -0.1993  0.3011
  331loPI   C3A 5289   0.872   2.755   7.633 -0.0533 -0.2894  0.1855
  331loPI   C4A 5290   1.075   2.908   7.179  0.0839 -0.1387  0.4443
  331loPI   C5A 5291   1.226   2.747   6.741 -0.2747  0.1185  0.0635
  331loPI   C6A 5292   1.084   2.540   6.453 -0.2319  0.1199  0.3926
  331loPI   C1B 5293   1.333   3.077   8.706 -0.0888  0.0800  0.1348
  331loPI   C2B 5294   1.262   3.154   8.274 -0.1223 -0.0948  0.0745
  331loPI   C3B 5295   1.123   3.133   7.857  0.1639 -0.2784 -0.0123
  331loPI   C4B 5296   1.359   3.097   7.552 -0.0620  0.1377  0.0163
  332loPI    C1 5297   4.455  14.703   9.791 -0.0123 -0.2145 -0.0342
  332loPI    C2 5298   4.191  14.965   9.938 -0.1369 -0.3607  0.0045
  332loPI    C3 5299   4.468  14.805  10.178  0.1409 -0.0278 -0.0869
  332loPI   PO4 5300   4.529  14.777   9.570  0.0246 -0.3882 -0.2426
  332loPI   GL1 5301   4.504  14.666   9.231 -0.0352 -0.5132  0.1835
  332loPI   GL2 5302   4.851  14.746   9.113  0.0997  0.1881 -0.0497
  332loPI   C1A 5303   4.518  14.506   8.827 -0.0367 -0.2229  0.2611
  332loPI   C2A 5304   4.413  14.532   8.375 -0.0335 -0.2710 -0.2625
  332loPI   C3A 5305   4.562  14.407   7.866 -0.1872 -0.2460  0.2781
  332loPI   C4A 5306   4.450  14.423   7.486  0.0909 -0.1005  0.2549
  332loPI   C5A 5307   4.292  14.359   7.084 -0.2789  0.0955 -0.0029
  332loPI   C6A 5308   4.410  14.005   6.833 -0.1875 -0.0705 -0.0336
  332loPI   C1B 5309   4.767  15.018   8.768 -0.0204 -0.2311 -0.2807
  332loPI   C2B 5310   4.780  15.085   8.296  0.0232 -0.1262 -0.2512
  332loPI   C3B 5311   4.551  14.911   8.023 -0.0435  0.7231  0.3163
  332loPI   C4B 5312   4.095  14.797   7.976  0.0449  0.1985 -0.3875
  333loPI    C1 5313  14.597   2.165   9.982 -0.0177 -0.0694 -0.2408
  333loPI    C2 5314  14.994   2.120   9.991  0.0273  0.3259 -0.0068
  333loPI    C3 5315  14.771   1.992  10.298 -0.0099  0.2629 -0.0595
  333loPI   PO4 5316  14.559   2.168   9.666  0.0196 -0.1138  0.0789
  333loPI   GL1 5317  14.674   2.274   9.346  0.1242  0.1594 -0.1584
  333loPI   GL2 5318  15.037   2.350   9.337  0.0606  0.0695 -0.0990
  333loPI   C1A 5319  14.491   2.397   8.998 -0.0362 -0.0897  0.0175
  333loPI   C2A 5320  14.483   2.387   8.612  0.0686  0.1831 -0.0754
  333loPI   C3A 5321  14.531   2.613   8.162 -0.0187 -0.3724  0.0308
  333loPI   C4A 5322  14.634   2.608   7.738 -0.1119  0.2506 -0.2223
  333loPI   C5A 5323  14.471   2.758   7.304 -0.0704 -0.1723  0.2078
  333loPI   C6A 5324  14.503   2.597   6.893 -0.0367  0.0501  0.2054
  333loPI   C1B 5325  14.956   2.263   8.866 -0.1593 -0.2779  0.0638
  333loPI   C2B 5326  14.969   2.261   8.420 -0.0183  0.0971  0.0326
  333loPI   C3B 5327  14.696   2.116   8.188  0.0087  0.1621 -0.2451
  333loPI   C4B 5328  14.427   2.002   7.854  0.1547  0.0329  0.1677
  334loPI    C1 5329   9.929   1.198   9.892  0.1946  0.0952 -0.0192
  334loPI    C2 5330   9.970   0.894  10.148 -0.0704 -0.0328 -0.1253
  334loPI    C3 5331   9.703   1.182  10.222  0.0271  0.0601 -0.1342
  334loPI   PO4 5332  10.032   1.084   9.635  0.0339  0.1588 -0.1903
  334loPI   GL1 5333  10.266   1.309   9.289 -0.2299  0.1054 -0.2700
  334loPI   GL2 5334  10.465   1.382   9.008  0.1722  0.0516  0.0248
  334loPI   C1A 5335  10.129   1.016   8.924 -0.0056  0.0782  0.1320
  334loPI   C2A 5336  10.060   1.117   8.382 -0.0526 -0.2657  0.2043
  334loPI   C3A 5337  10.305   1.230   8.032  0.0975 -0.3523 -0.1843
  334loPI   C4A 5338  10.175   1.246   7.606  0.1244 -0.0470 -0.6409
  334loPI   C5A 5339  10.227   0.952   7.305  0.0437 -0.0169  0.0126
  334loPI   C6A 5340  10.128   0.723   6.930  0.1464 -0.4228  0.2651
  334loPI   C1B 5341  10.639   1.219   8.614  0.0378  0.1012 -0.1921
  334loPI   C2B 5342  10.768   0.925   8.300 -0.3739 -0.0274  0.0919
  334loPI   C3B 5343  10.772   0.905   7.850 -0.0312  0.0578  0.0248
  334loPI   C4B 5344  11.043   0.708   7.569  0.3379 -0.0833  0.1215
  335loPI    C1 5345   1.422   5.731   9.710 -0.0814 -0.4059 -0.2382
  335loPI    C2 5346   1.105   5.927   9.564  0.0731 -0.2094 -0.3133
  335loPI    C3 5347   1.102   5.797   9.942  0.0414  0.1042 -0.2028
  335loPI   PO4 5348   1.569   5.747   9.458  0.2242 -0.1306 -0.0327
  335loPI   GL1 5349   1.712   5.779   9.018  0.1694  0.1890 -0.1593
  335loPI   GL2 5350   1.768   6.078   9.078  0.3342  0.2258  0.2336
  335loPI   C1A 5351   1.699   5.706   8.603 -0.3386  0.1227 -0.2503
  335loPI   C2A 5352   1.488   5.498   8.234  0.1552 -0.0340 -0.0782
  335loPI   C3A 5353   1.368   5.308   7.876  0.3382  0.1348 -0.0743
  335loPI   C4A 5354   1.133   5.304   7.574 -0.0934 -0.3848 -0.0212
  335loPI   C5A 5355   0.733   5.533   7.510  0.0094  0.5861 -0.1578
  335loPI   C6A 5356   0.462   5.346   7.220  0.0529  0.2216 -0.2217
  335loPI   C1B 5357   1.810   6.232   8.601 -0.1015 -0.1241 -0.0025
  335loPI   C2B 5358   1.879   6.303   8.106 -0.1384  0.4213 -0.3487
  335loPI   C3B 5359   1.860   6.240   7.743  0.2286  0.1787  0.0833
  335loPI   C4B 5360   1.605   6.062   7.382  0.1132  0.1592 -0.4083
  336loPI    C1 5361  12.084  17.432  10.249  0.0742  0.2212  0.1728
  336loPI    C2 5362  11.749  17.384  10.463  0.0645 -0.0731  0.0961
  336loPI    C3 5363  11.926  17.743  10.445 -0.2597  0.0910  0.1158
  336loPI   PO4 5364  12.077  17.134   9.981  0.0488  0.1477 -0.2039
  336loPI   GL1 5365  12.314  16.850   9.635 -0.2604 -0.3013 -0.1006
  336loPI   GL2 5366  12.557  17.068   9.791 -0.0202 -0.0750  0.3732
  336loPI   C1A 5367  12.351  17.102   9.295 -0.1135  0.2341 -0.0176
  336loPI   C2A 5368  12.133  17.244   8.893  0.1990  0.0281 -0.0199
  336loPI   C3A 5369  12.147  17.123   8.477  0.0105 -0.0109  0.1546
  336loPI   C4A 5370  12.320  17.175   8.069  0.1826 -0.1772  0.2793
  336loPI   C5A 5371  12.632  16.998   7.775 -0.0928  0.1325 -0.1943
  336loPI   C6A 5372  12.411  16.700   7.741 -0.2878  0.1272  0.0985
  336loPI   C1B 5373  12.837  17.047   9.456  0.0146  0.0616  0.2821
  336loPI   C2B 5374  12.826  17.057   9.000 -0.0642  0.1450 -0.0240
  336loPI   C3B 5375  12.638  17.079   8.674 -0.0314 -0.1771  0.0698
  336loPI   C4B 5376  12.547  17.430   8.408 -0.0214 -0.1937 -0.3649
  337loPI    C1 5377  16.968   9.430  10.051 -0.0016  0.1745 -0.3116
  337loPI    C2 5378  16.769   9.713  10.253 -0.2195 -0.0209 -0.2485
  337loPI    C3 5379  16.920   9.397  10.447 -0.0870 -0.0125 -0.3365
  337loPI   PO4 5380  17.106   9.544   9.860 -0.1005 -0.1444 -0.2017
  337loPI   GL1 5381  17.194   9.568   9.430  0.3928 -0.3430  0.0605
  337loPI   GL2 5382  17.127   9.922   9.390  0.0548 -0.0415  0.2263
  337loPI   C1A 5383  17.263   9.577   8.959 -0.0500  0.0271 -0.1642
  337loPI   C2A 5384  17.255   9.663   8.588 -0.2996 -0.0925 -0.1569
  337loPI   C3A 5385  17.254   9.841   8.181  0.1671 -0.0021  0.0710
  337loPI   C4A 5386  17.156  10.264   7.860 -0.0180  0.0287  0.0896
  337loPI   C5A 5387  16.875  10.431   7.588  0.0781 -0.0937  0.2277
  337loPI   C6A 5388  16.565  10.248   7.343  0.1333 -0.0922 -0.2501
  337loPI   C1B 5389  16.948  10.084   8.938  0.2300  0.5443 -0.2515
  337loPI   C2B 5390  16.861   9.990   8.559 -0.0771  0.0622 -0.1099
  337loPI   C3B 5391  16.756   9.974   8.150 -0.1413 -0.1808  0.2770
  337loPI   C4B 5392  16.958   9.596   7.841  0.1708  0.3265  0.1886
  338loPI    C1 5393  12.632  12.896   9.960  0.0038  0.1294  0.0824
  338loPI    C2 5394  12.546  12.513  10.034  0.0062  0.1076 -0.0257
  338loPI    C3 5395  12.409  12.800  10.277 -0.0365  0.0421  0.0280
  338loPI   PO4 5396  12.709  12.874   9.683  0.0196  0.2357  0.0073
  338loPI   GL1 5397  12.758  13.085   9.308  0.1027 -0.0249  0.3470
  338loPI   GL2 5398  12.429  12.956   9.268  0.0091  0.2925  0.0174
  338loPI   C1A 5399  12.666  13.198   8.892 -0.0100  0.0560  0.1764
  338loPI   C2A 5400  12.658  13.122   8.465 -0.0949  0.0156 -0.1822
  338loPI   C3A 5401  12.660  13.159   8.014 -0.0034 -0.1297 -0.0429
  338loPI   C4A 5402  12.863  12.881   7.668 -0.1849  0.1656  0.2663
  338loPI   C5A 5403  12.935  13.001   7.320  0.2639  0.0787 -0.1925
  338loPI   C6A 5404  13.118  13.122   6.941 -0.2473 -0.2281 -0.1306
  338loPI   C1B 5405  12.257  12.851   8.896 -0.0177 -0.0620 -0.2677
  338loPI   C2B 5406  12.157  12.591   8.494  0.2460  0.0647  0.2307
  338loPI   C3B 5407  12.049  12.462   8.093 -0.1450  0.1886  0.0667
  338loPI   C4B 5408  12.220  12.356   7.676 -0.0298  0.1853  0.0587
  339loPI    C1 5409   5.768  11.392   9.884 -0.0606 -0.0646  0.0825
  339loPI    C2 5410   5.959  11.553  10.196  0.1929 -0.0463 -0.0785
  339loPI    C3 5411   5.560  11.577  10.171  0.1584 -0.1477  0.2985
  339loPI   PO4 5412   6.041  11.319   9.693 -0.1801  0.0577 -0.1825
  339loPI   GL1 5413   6.284  11.084   9.339 -0.2386  0.1414 -0.0458
  339loPI   GL2 5414   6.327  10.719   9.121 -0.0942 -0.3108 -0.1408
  339loPI   C1A 5415   6.282  11.174   8.915  0.2764 -0.3067  0.2237
  339loPI   C2A 5416   6.299  11.241   8.507 -0.1979  0.1588 -0.1527
  339loPI   C3A 5417   6.409  11.109   8.155  0.2717 -0.1179 -0.0174
  339loPI   C4A 5418   6.677  10.837   7.940 -0.4078  0.1483  0.1373
  339loPI   C5A 5419   6.895  10.743   7.596 -0.3761  0.3277 -0.3272
  339loPI   C6A 5420   6.980  10.585   7.089  0.0594 -0.2336  0.1981
  339loPI   C1B 5421   6.295  10.441   8.765  0.1416  0.1877 -0.2284
  339loPI   C2B 5422   6.094  10.182   8.379  0.0987  0.0955  0.3368
  339loPI   C3B 5423   5.944  10.126   7.958  0.2922 -0.1687 -0.3056
  339loPI   C4B 5424   6.086   9.902   7.633 -0.0562 -0.0114 -0.0951
  340loPI    C1 5425  12.684   6.170   9.922 -0.0768 -0.0177  0.0248
  340loPI    C2 5426  12.962   5.883   9.909 -0.2183 -0.1575  0.0427
  340loPI    C3 5427  12.786   5.975  10.256  0.0391  0.1599  0.0942
  340loPI   PO4 5428  12.731   6.278   9.630 -0.0680 -0.1900  0.3263
  340loPI   GL1 5429  12.748   5.994   9.349  0.2496 -0.2420  0.0487
  340loPI   GL2 5430  12.825   5.777   9.330  0.0643  0.2336 -0.2086
  340loPI   C1A 5431  12.736   6.202   8.859 -0.0961  0.0953  0.0632
  340loPI   C2A 5432  12.531   6.429   8.549 -0.0595 -0.0011  0.1575
  340loPI   C3A 5433  12.363   6.616   8.189 -0.0869 -0.2799  0.0506
  340loPI   C4A 5434  12.389   6.662   7.774 -0.0673  0.1080  0.0601
  340loPI   C5A 5435  12.468   6.612   7.343  0.2989  0.4388  0.1067
  340loPI   C6A 5436  12.334   6.711   6.916 -0.0572 -0.3124  0.3680
  340loPI   C1B 5437  13.079   5.798   8.945 -0.1156  0.0986 -0.1609
  340loPI   C2B 5438  13.283   5.810   8.564  0.2583  0.0905 -0.4005
  340loPI   C3B 5439  13.411   5.774   8.235 -0.3389 -0.1663 -0.1679
  340loPI   C4B 5440  13.512   6.056   7.985 -0.0406 -0.0839  0.2889
  341loPI    C1 5441   7.858   2.723   9.684  0.2854 -0.0571  0.1884
  341loPI    C2 5442   7.939   2.391   9.892 -0.2209 -0.2582  0.0804
  341loPI    C3 5443   7.886   2.739  10.083  0.0460 -0.2903  0.2179
  341loPI   PO4 5444   7.878   2.494   9.418  0.2889 -0.0392  0.1814
  341loPI   GL1 5445   8.021   2.364   8.901  0.2782 -0.1042 -0.1257
  341loPI   GL2 5446   8.243   2.538   8.946  0.3618 -0.1645  0.3134
  341loPI   C1A 5447   7.794   2.082   8.702 -0.3141 -0.0224  0.1911
  341loPI   C2A 5448   7.664   2.024   8.327 -0.1223 -0.0390 -0.1624
  341loPI   C3A 5449   7.843   2.046   7.999  0.0906  0.0660  0.1085
  341loPI   C4A 5450   7.814   1.913   7.570  0.0127 -0.0897  0.5238
  341loPI   C5A 5451   7.558   1.906   7.259  0.5390  0.1068  0.1820
  341loPI   C6A 5452   7.103   1.928   7.051  0.1608 -0.2038 -0.3655
  341loPI   C1B 5453   8.151   2.314   8.462 -0.4022 -0.4486  0.1130
  341loPI   C2B 5454   8.218   2.391   8.063  0.0553  0.2076 -0.1111
  341loPI   C3B 5455   8.126   2.337   7.622 -0.0649  0.4214  0.1981
  341loPI   C4B 5456   8.121   2.253   7.166  0.1433 -0.1499 -0.0171
  342loPI    C1 5457  11.807   8.112  10.053  0.1629  0.1341  0.3245
  342loPI    C2 5458  11.585   8.444  10.079  0.0172  0.0731 -0.0658
  342loPI    C3 5459  11.472   8.113  10.272 -0.1940  0.0650 -0.1995
  342loPI   PO4 5460  11.851   8.033   9.771 -0.3559 -0.0066 -0.0059
  342loPI   GL1 5461  11.547   7.763   9.445  0.1863 -0.2637  0.3193
  342loPI   GL2 5462  11.715   7.576   9.566  0.0427 -0.1068 -0.3156
  342loPI   C1A 5463  11.418   7.896   9.111 -0.4217  0.3162  0.2008
  342loPI   C2A 5464  11.292   7.749   8.739 -0.1901  0.1249 -0.0457
  342loPI   C3A 5465  11.418   7.652   8.313 -0.1401 -0.3451  0.1097
  342loPI   C4A 5466  11.425   8.026   7.812  0.0849 -0.2523 -0.0508
  342loPI   C5A 5467  11.502   8.269   7.473  0.1327  0.4180  0.0272
  342loPI   C6A 5468  11.577   8.191   7.009 -0.1971 -0.0407  0.0139
  342loPI   C1B 5469  11.706   7.393   9.086  0.4106  0.0583  0.1624
  342loPI   C2B 5470  11.614   7.375   8.663  0.1271 -0.0050  0.0817
  342loPI   C3B 5471  11.381   7.205   8.220  0.0090  0.2611 -0.2420
  342loPI   C4B 5472  11.136   6.882   7.954 -0.2850  0.1444  0.2189
  343loPI    C1 5473   3.090  11.886  10.494 -0.1681  0.2272 -0.0566
  343loPI    C2 5474   3.297  11.809  10.827 -0.0343  0.1413 -0.1584
  343loPI    C3 5475   3.393  12.124  10.600 -0.0807  0.1597 -0.1525
  343loPI   PO4 5476   3.094  11.698  10.325 -0.1683  0.1432 -0.1007
  343loPI   GL1 5477   3.189  11.819   9.948 -0.2553 -0.4456 -0.0523
  343loPI   GL2 5478   3.406  11.573   9.912 -0.0560 -0.1640 -0.0407
  343loPI   C1A 5479   3.304  11.778   9.472 -0.0192  0.1638  0.1027
  343loPI   C2A 5480   3.098  11.721   9.153 -0.1131 -0.2498  0.2168
  343loPI   C3A 5481   3.104  11.677   8.745  0.3286  0.4088  0.1931
  343loPI   C4A 5482   3.242  11.749   8.356  0.2535  0.1079 -0.3068
  343loPI   C5A 5483   3.269  11.628   7.950 -0.2435  0.0047 -0.3284
  343loPI   C6A 5484   3.097  11.341   7.714  0.1510  0.0112  0.2462
  343loPI   C1B 5485   3.524  11.352   9.564  0.3089 -0.1257 -0.0633
  343loPI   C2B 5486   3.592  11.439   9.155  0.1607  0.0945 -0.3321
  343loPI   C3B 5487   3.492  11.147   8.828 -0.0612 -0.0855  0.4355
  343loPI   C4B 5488   3.414  10.877   8.449  0.1814 -0.1538  0.2414
  344loPI    C1 5489  18.621   8.649  10.420  0.1324 -0.1777  0.0595
  344loPI    C2 5490  18.541   8.902  10.719  0.0019 -0.0421 -0.0885
  344loPI    C3 5491  18.503   8.508  10.775  0.1047 -0.0249  0.1116
  344loPI   PO4 5492  18.631   8.783  10.165  0.0646  0.1600 -0.0664
  344loPI   GL1 5493  18.727   8.729   9.723  0.2208 -0.0963 -0.0124
  344loPI   GL2 5494  18.450   8.900   9.502  0.0210 -0.0483  0.2150
  344loPI   C1A 5495  18.885   8.664   9.435 -0.2323 -0.0493 -0.1085
  344loPI   C2A 5496  19.013   8.484   9.067 -0.0257 -0.3478 -0.0709
  344loPI   C3A 5497  18.822   8.614   8.714  0.1570  0.2156 -0.1605
  344loPI   C4A 5498  18.731   8.752   8.313 -0.0397 -0.0280  0.1298
  344loPI   C5A 5499  19.012   8.849   7.958  0.1312 -0.4410  0.0255
  344loPI   C6A 5500  19.415   8.953   7.768 -0.0936  0.0618 -0.1257
  344loPI   C1B 5501  18.599   8.983   9.008 -0.0654 -0.0120  0.0386
  344loPI   C2B 5502  18.414   9.092   8.590 -0.2930 -0.2828 -0.1406
  344loPI   C3B 5503  18.608   9.180   8.122  0.1192 -0.1287  0.1964
  344loPI   C4B 5504  18.465   9.302   7.799  0.0327  0.2846 -0.0514
  345loPI    C1 5505   0.833   6.328   9.992 -0.0246 -0.0422 -0.0781
  345loPI    C2 5506   0.577   6.466  10.266 -0.0927 -0.1162 -0.1042
  345loPI    C3 5507   0.971   6.501  10.325 -0.1078  0.2328 -0.1829
  345loPI   PO4 5508   0.768   6.361   9.787 -0.1834  0.3460  0.0674
  345loPI   GL1 5509   0.552   6.682   9.504  0.2434 -0.1987  0.0116
  345loPI   GL2 5510   0.399   6.295   9.483  0.0044  0.0319  0.3917
  345loPI   C1A 5511   0.902   6.620   9.255 -0.1448 -0.0784  0.0092
  345loPI   C2A 5512   1.014   6.861   8.887 -0.0903 -0.0806 -0.1223
  345loPI   C3A 5513   1.081   6.895   8.494 -0.0576 -0.3270 -0.0653
  345loPI   C4A 5514   0.687   6.906   8.190 -0.0834 -0.3066 -0.2090
  345loPI   C5A 5515   0.571   7.146   7.732 -0.1773  0.4126  0.0666
  345loPI   C6A 5516   0.296   7.348   7.442  0.3186  0.4455  0.0298
  345loPI   C1B 5517   0.453   6.461   9.017  0.2388 -0.1684 -0.0358
  345loPI   C2B 5518   0.846   6.341   8.763 -0.1126  0.0713  0.1624
  345loPI   C3B 5519   0.954   6.466   8.298  0.0219 -0.2440 -0.0954
  345loPI   C4B 5520   0.735   6.506   7.905  0.1569 -0.1941  0.0371
  346loPI    C1 5521  13.130   1.315  10.162 -0.0616  0.0654 -0.0446
  346loPI    C2 5522  13.034   1.645  10.366 -0.2071  0.0985 -0.1640
  346loPI    C3 5523  13.178   1.325  10.559 -0.2026  0.1806 -0.0295
  346loPI   PO4 5524  13.246   1.571   9.952 -0.0796  0.0962  0.1840
  346loPI   GL1 5525  13.156   1.610   9.522 -0.2692  0.0257  0.0873
  346loPI   GL2 5526  12.992   1.275   9.597 -0.2260 -0.1110 -0.2360
  346loPI   C1A 5527  13.412   1.469   9.227 -0.2841  0.0538 -0.1918
  346loPI   C2A 5528  13.572   1.324   8.879 -0.0532 -0.1906 -0.0950
  346loPI   C3A 5529  13.745   1.380   8.493 -0.0279  0.0359  0.0635
  346loPI   C4A 5530  13.525   1.205   8.206  0.1704  0.0985  0.3481
  346loPI   C5A 5531  13.421   1.041   7.793 -0.0827 -0.0564 -0.0014
  346loPI   C6A 5532  13.123   0.822   7.664  0.2051 -0.0670 -0.1278
  346loPI   C1B 5533  12.960   1.216   9.230 -0.1758  0.0956 -0.0294
  346loPI   C2B 5534  13.076   1.332   8.753  0.1692  0.1010  0.0545
  346loPI   C3B 5535  13.107   1.270   8.423 -0.0978 -0.1611  0.1455
  346loPI   C4B 5536  12.895   1.042   8.057 -0.0085  0.0173 -0.1536
  347loPI    C1 5537   6.073  18.176   9.622 -0.2718  0.1313  0.4104
  347loPI    C2 5538   6.275  18.105   9.960  0.3182  0.1721  0.0791
  347loPI    C3 5539   6.122  18.468   9.891 -0.0506  0.0876  0.4195
  347loPI   PO4 5540   6.242  18.217   9.419 -0.0352 -0.1429 -0.0400
  347loPI   GL1 5541   6.046  18.231   9.016 -0.1633 -0.0738  0.2145
  347loPI   GL2 5542   6.239  18.419   9.014  0.2547 -0.0704 -0.2569
  347loPI   C1A 5543   6.016  18.040   8.616 -0.0625  0.3330  0.4081
  347loPI   C2A 5544   6.021  18.004   8.195 -0.3225 -0.1157 -0.0841
  347loPI   C3A 5545   5.867  17.959   7.857 -0.1728  0.0764 -0.1128
  347loPI   C4A 5546   5.704  17.916   7.477  0.0207 -0.1098 -0.3346
  347loPI   C5A 5547   5.461  17.861   7.109 -0.0497  0.1990  0.2980
  347loPI   C6A 5548   5.316  17.773   6.651  0.0438 -0.1195 -0.1297
  347loPI   C1B 5549   6.242  18.490   8.618 -0.3027  0.3828 -0.0508
  347loPI   C2B 5550   6.311  18.436   8.133  0.1214 -0.1629 -0.0136
  347loPI   C3B 5551   6.154  18.368   7.758 -0.0239  0.0395 -0.2987
  347loPI   C4B 5552   6.023  18.302   7.321 -0.1022  0.1173 -0.0420
  348loPI    C1 5553   8.413  17.510   9.874 -0.0950  0.0365  0.1165
  348loPI    C2 5554   8.652  17.212   9.993  0.0706  0.1036 -0.0427
  348loPI    C3 5555   8.775  17.591  10.025  0.0661  0.1291 -0.3046
  348loPI   PO4 5556   8.344  17.472   9.611  0.0821 -0.0489 -0.0322
  348loPI   GL1 5557   8.335  17.146   9.296 -0.0952 -0.3335  0.3449
  348loPI   GL2 5558   8.095  17.153   9.187 -0.0565 -0.0361 -0.0290
  348loPI   C1A 5559   8.535  17.186   9.009  0.0992 -0.2635  0.1162
  348loPI   C2A 5560   8.457  17.196   8.604  0.1189 -0.1003  0.0440
  348loPI   C3A 5561   8.315  17.065   8.215 -0.2117  0.1164  0.1667
  348loPI   C4A 5562   8.261  16.860   7.883  0.0818  0.1062  0.1824
  348loPI   C5A 5563   8.637  16.901   7.634 -0.0594  0.0361 -0.0089
  348loPI   C6A 5564   8.772  16.610   7.297 -0.0440  0.1309 -0.0580
  348loPI   C1B 5565   7.965  17.113   8.792  0.0309 -0.1492  0.1357
  348loPI   C2B 5566   7.924  17.278   8.286 -0.3220 -0.0889 -0.0046
  348loPI   C3B 5567   7.774  17.431   7.832 -0.0646 -0.0211  0.1257
  348loPI   C4B 5568   7.559  17.701   7.490  0.2974  0.0784  0.2146
  349loPI    C1 5569   2.697   4.635   9.306  0.1114 -0.0126 -0.3399
  349loPI    C2 5570   3.072   4.496   9.319  0.0049 -0.2812  0.0992
  349loPI    C3 5571   2.957   4.784   9.571 -0.0879 -0.2056 -0.0284
  349loPI   PO4 5572   2.643   4.648   9.078  0.0072 -0.3574  0.1607
  349loPI   GL1 5573   2.647   4.843   8.714 -0.0419 -0.1790 -0.0659
  349loPI   GL2 5574   2.580   4.563   8.561 -0.0021  0.3448 -0.4613
  349loPI   C1A 5575   2.644   4.905   8.280  0.1300  0.3690  0.1485
  349loPI   C2A 5576   2.591   5.139   7.781  0.0298  0.0504 -0.1221
  349loPI   C3A 5577   2.608   5.512   7.511  0.4993 -0.1202  0.1182
  349loPI   C4A 5578   2.932   5.637   7.146 -0.1396 -0.1603 -0.5481
  349loPI   C5A 5579   3.414   5.569   7.226 -0.1142 -0.0304 -0.2175
  349loPI   C6A 5580   3.834   5.484   7.062  0.0867  0.1508  0.2055
  349loPI   C1B 5581   2.692   4.385   8.203  0.1957 -0.1727 -0.3192
  349loPI   C2B 5582   2.874   4.256   7.799 -0.0888 -0.2255 -0.1508
  349loPI   C3B 5583   2.753   4.147   7.378 -0.0214 -0.2287  0.0557
  349loPI   C4B 5584   2.624   4.016   6.911 -0.0342  0.3675  0.0792
  350loPI    C1 5585  17.236  15.950  10.574  0.1264  0.1447 -0.0237
  350loPI    C2 5586  17.636  15.949  10.564  0.1245 -0.0719 -0.1533
  350loPI    C3 5587  17.443  15.770  10.865  0.1235 -0.2359 -0.2509
  350loPI   PO4 5588  17.183  15.862  10.282 -0.0555  0.0045  0.0172
  350loPI   GL1 5589  17.017  15.914   9.887  0.2287  0.0803 -0.1251
  350loPI   GL2 5590  16.947  16.254  10.157 -0.1589  0.1813 -0.0638
  350loPI   C1A 5591  16.853  16.145   9.536  0.1022  0.1760 -0.0169
  350loPI   C2A 5592  16.831  16.367   9.202 -0.0508 -0.1739  0.0505
  350loPI   C3A 5593  16.893  16.426   8.700 -0.3167  0.3237 -0.0675
  350loPI   C4A 5594  16.734  16.502   8.244  0.0078  0.1199  0.2430
  350loPI   C5A 5595  16.575  16.379   8.008 -0.1414 -0.0141 -0.2380
  350loPI   C6A 5596  16.579  16.435   7.561  0.3512  0.2234  0.5579
  350loPI   C1B 5597  17.236  16.420   9.703  0.0317  0.1203 -0.2118
  350loPI   C2B 5598  17.343  16.510   9.275  0.0466 -0.1820  0.0015
  350loPI   C3B 5599  17.330  16.668   8.952 -0.0116  0.1753 -0.1653
  350loPI   C4B 5600  17.475  16.642   8.553 -0.2015  0.3652 -0.0413
  351loPI    C1 5601  16.752  15.798  10.515 -0.2188 -0.0138 -0.0105
  351loPI    C2 5602  16.606  15.552  10.794 -0.0227  0.1340  0.2265
  351loPI    C3 5603  16.914  15.791  10.880  0.0410  0.1811 -0.1193
  351loPI   PO4 5604  16.764  15.532  10.253  0.0800  0.0227 -0.1286
  351loPI   GL1 5605  16.546  15.438  10.065 -0.2281 -0.0500 -0.1936
  351loPI   GL2 5606  16.182  15.264  10.030  0.3127  0.0388 -0.3742
  351loPI   C1A 5607  16.327  15.716   9.776 -0.2566  0.2022 -0.2604
  351loPI   C2A 5608  16.160  15.874   9.444 -0.0111 -0.0391 -0.0664
  351loPI   C3A 5609  15.991  15.942   9.058  0.1153 -0.3095 -0.1094
  351loPI   C4A 5610  15.773  15.826   8.563  0.1815  0.1551  0.2473
  351loPI   C5A 5611  15.515  15.948   8.242 -0.0073  0.0452 -0.0219
  351loPI   C6A 5612  15.300  15.975   7.884 -0.0996  0.1121  0.2851
  351loPI   C1B 5613  16.052  15.334   9.607 -0.2264  0.0570  0.2846
  351loPI   C2B 5614  16.264  15.402   9.220  0.1332 -0.0336  0.0511
  351loPI   C3B 5615  16.202  15.522   8.740  0.0387  0.0177 -0.2536
  351loPI   C4B 5616  16.086  15.507   8.250  0.2791 -0.1103  0.1996
  352loPI    C1 5617   7.508   6.403  10.397  0.1183  0.1288  0.1233
  352loPI    C2 5618   7.401   6.036  10.278 -0.1658  0.2207  0.0886
  352loPI    C3 5619   7.426   6.120  10.668 -0.1389  0.1751  0.0967
  352loPI   PO4 5620   7.779   6.474  10.189  0.1298  0.2159 -0.1319
  352loPI   GL1 5621   7.766   6.404   9.698  0.0465  0.0286 -0.0242
  352loPI   GL2 5622   7.561   6.659   9.566 -0.5218 -0.3647 -0.0110
  352loPI   C1A 5623   7.986   5.987   9.541  0.0830 -0.2373 -0.1757
  352loPI   C2A 5624   7.747   5.646   9.454  0.3006  0.3356  0.1955
  352loPI   C3A 5625   7.640   5.299   9.326 -0.1511 -0.0620  0.0964
  352loPI   C4A 5626   7.715   5.283   8.846 -0.3058 -0.0527 -0.0539
  352loPI   C5A 5627   7.809   5.490   8.404  0.0095 -0.1177  0.1405
  352loPI   C6A 5628   7.602   5.380   7.924  0.2138  0.2564  0.3104
  352loPI   C1B 5629   7.557   6.794   9.195  0.0959  0.0793  0.0126
  352loPI   C2B 5630   7.522   7.128   8.879  0.0885  0.0703 -0.2384
  352loPI   C3B 5631   7.406   7.141   8.438 -0.2090 -0.0759 -0.3580
  352loPI   C4B 5632   7.226   6.965   8.103 -0.1253  0.1261 -0.0638
  353loPI    C1 5633   6.591   5.475  10.244 -0.1866 -0.1538  0.3042
  353loPI    C2 5634   6.471   5.694  10.556 -0.0866  0.2550  0.0632
  353loPI    C3 5635   6.565   5.873  10.211  0.0568 -0.1673 -0.1231
  353loPI   PO4 5636   6.467   5.256  10.071 -0.0248  0.0685 -0.0877
  353loPI   GL1 5637   6.457   5.201   9.622 -0.2243 -0.1883  0.0444
  353loPI   GL2 5638   6.123   5.126   9.648  0.3814  0.1440  0.1333
  353loPI   C1A 5639   6.512   4.990   9.233 -0.3257 -0.0351  0.0957
  353loPI   C2A 5640   6.569   5.093   8.802  0.5060  0.2961 -0.3471
  353loPI   C3A 5641   6.774   5.167   8.418  0.0835  0.0762  0.3160
  353loPI   C4A 5642   7.049   5.223   8.138  0.1783  0.0317 -0.1148
  353loPI   C5A 5643   6.873   5.519   7.773  0.0021  0.0642 -0.1411
  353loPI   C6A 5644   6.495   5.852   7.726  0.1657  0.1035  0.1720
  353loPI   C1B 5645   6.131   5.386   9.233 -0.0306 -0.0176  0.1395
  353loPI   C2B 5646   6.206   5.413   8.807  0.1819 -0.0378 -0.0349
  353loPI   C3B 5647   6.273   5.385   8.435  0.0942 -0.0671  0.1413
  353loPI   C4B 5648   6.450   5.259   8.075  0.0122 -0.1374  0.2731
  354loPI    C1 5649   5.272   9.780  10.560  0.1796 -0.2976  0.2211
  354loPI    C2 5650   4.883   9.800  10.468  0.2492 -0.0998 -0.0427
  354loPI    C3 5651   5.013   9.940  10.819  0.1177  0.0729 -0.0617
  354loPI   PO4 5652   5.368   9.970  10.303  0.0118 -0.5087  0.0810
  354loPI   GL1 5653   5.344  10.217   9.885 -0.0975  0.0097 -0.0461
  354loPI   GL2 5654   5.566   9.940   9.814 -0.1496  0.3340 -0.0188
  354loPI   C1A 5655   5.350  10.361   9.426  0.1368 -0.3469  0.0781
  354loPI   C2A 5656   5.006  10.296   9.139  0.1962  0.3718  0.2108
  354loPI   C3A 5657   4.650  10.192   8.833 -0.2454  0.3146 -0.1094
  354loPI   C4A 5658   4.786   9.970   8.446  0.0370 -0.0481 -0.3399
  354loPI   C5A 5659   4.827   9.976   8.014  0.1082  0.2617  0.0866
  354loPI   C6A 5660   5.114   9.693   7.845  0.0527 -0.3573 -0.1208
  354loPI   C1B 5661   5.750  10.109   9.506  0.0760  0.3323  0.2745
  354loPI   C2B 5662   5.523  10.015   9.053 -0.0529  0.0549 -0.0277
  354loPI   C3B 5663   5.625   9.641   8.781 -0.2374 -0.0326 -0.4016
  354loPI   C4B 5664   5.628   9.411   8.410  0.1575 -0.0304  0.0133
  355loPI    C1 5665  18.722   9.235  10.302  0.0976  0.2193 -0.1719
  355loPI    C2 5666  19.001   9.428  10.515  0.0048  0.5136 -0.3114
  355loPI    C3 5667  18.618   9.442  10.629  0.0811 -0.1987  0.0956
  355loPI   PO4 5668  18.795   9.270  10.082  0.3445  0.0059  0.0308
  355loPI   GL1 5669  18.914   9.196   9.618  0.1058  0.1699  0.0081
  355loPI   GL2 5670  19.170   9.005   9.762  0.0520 -0.2683  0.0338
  355loPI   C1A 5671  18.999   9.149   9.221 -0.5667 -0.1229 -0.0208
  355loPI   C2A 5672  18.965   9.144   8.776  0.0687  0.1109  0.0661
  355loPI   C3A 5673  19.087   9.275   8.308  0.4116  0.0718  0.0397
  355loPI   C4A 5674  19.030   9.323   7.828 -0.0342 -0.3748 -0.2561
  355loPI   C5A 5675  18.968   9.775   7.657 -0.0800  0.0367 -0.0883
  355loPI   C6A 5676  18.840   9.957   7.282 -0.0692  0.1335  0.0821
  355loPI   C1B 5677  19.365   8.834   9.505  0.1559  0.0470 -0.0796
  355loPI   C2B 5678  19.425   8.785   9.184  0.2520 -0.1292 -0.2962
  355loPI   C3B 5679  19.343   8.764   8.800 -0.0522  0.1072 -0.0532
  355loPI   C4B 5680  19.174   8.818   8.437 -0.0082 -0.1136  0.3658
  356loPI    C1 5681  14.988  12.584  10.105 -0.2368 -0.0574 -0.1543
  356loPI    C2 5682  15.074  12.921  10.304  0.1508 -0.0794 -0.2760
  356loPI    C3 5683  14.868  12.629  10.484  0.1374  0.0696 -0.0465
  356loPI   PO4 5684  15.122  12.567   9.934 -0.0881  0.1513  0.5061
  356loPI   GL1 5685  15.169  12.229   9.501  0.1800  0.2627  0.1853
  356loPI   GL2 5686  15.019  12.005   9.422 -0.1726 -0.0021 -0.2511
  356loPI   C1A 5687  15.403  12.333   9.236 -0.3976  0.2070  0.1243
  356loPI   C2A 5688  15.505  12.468   8.783  0.0183 -0.4332 -0.0814
  356loPI   C3A 5689  15.653  12.779   8.482 -0.2862 -0.0153 -0.1879
  356loPI   C4A 5690  15.777  12.661   8.082 -0.2764  0.0918  0.1876
  356loPI   C5A 5691  15.989  12.725   7.705 -0.4129 -0.3702 -0.1477
  356loPI   C6A 5692  16.218  12.899   7.435 -0.0345 -0.3122 -0.2578
  356loPI   C1B 5693  15.087  11.906   9.031 -0.2154  0.4190 -0.1118
  356loPI   C2B 5694  15.058  11.754   8.655  0.1671  0.1787  0.1022
  356loPI   C3B 5695  14.783  11.739   8.371 -0.0528  0.0002 -0.0132
  356loPI   C4B 5696  14.820  11.702   7.947 -0.1153 -0.2090  0.3692
  357loPI    C1 5697   8.203   4.921  10.035 -0.1510 -0.1224  0.0490
  357loPI    C2 5698   8.119   4.532   9.990 -0.1315 -0.1407  0.1680
  357loPI    C3 5699   8.319   4.728   9.704 -0.1719 -0.2096  0.0922
  357loPI   PO4 5700   8.013   5.168   9.962 -0.3294  0.1724 -0.3009
  357loPI   GL1 5701   8.029   5.315   9.723 -0.2146 -0.0848  0.0189
  357loPI   GL2 5702   8.118   5.115   9.464 -0.1626  0.0328 -0.2225
  357loPI   C1A 5703   8.172   5.539   9.301  0.0927 -0.1187 -0.0176
  357loPI   C2A 5704   8.252   5.509   9.065 -0.3096 -0.0026  0.8198
  357loPI   C3A 5705   8.222   5.386   8.568 -0.0140  0.1539 -0.0762
  357loPI   C4A 5706   8.270   5.463   8.081 -0.2673 -0.1230  0.0780
  357loPI   C5A 5707   8.178   5.278   7.644 -0.1021  0.1588  0.2995
  357loPI   C6A 5708   8.335   5.525   7.334 -0.0069  0.4007 -0.2782
  357loPI   C1B 5709   8.154   4.949   9.085  0.3371 -0.1815 -0.2227
  357loPI   C2B 5710   7.957   4.923   8.572  0.1140 -0.1120 -0.3323
  357loPI   C3B 5711   7.928   5.016   8.103  0.1164  0.1117 -0.3484
  357loPI   C4B 5712   7.707   4.984   7.582  0.0813  0.0483  0.1125
  358loPI    C1 5713   2.875  13.706   9.916 -0.5133 -0.0292  0.0886
  358loPI    C2 5714   2.624  13.827  10.203 -0.2100 -0.0135  0.3519
  358loPI    C3 5715   2.986  13.687  10.300 -0.0718  0.0693 -0.0290
  358loPI   PO4 5716   2.889  13.818   9.720  0.0708 -0.2536  0.3103
  358loPI   GL1 5717   3.051  13.784   9.345 -0.3111  0.0293  0.1730
  358loPI   GL2 5718   3.069  13.420   9.238 -0.0384  0.0059  0.3100
  358loPI   C1A 5719   2.948  13.768   8.900  0.2158  0.1114 -0.1973
  358loPI   C2A 5720   2.866  13.954   8.467  0.0688 -0.0691 -0.4666
  358loPI   C3A 5721   2.501  14.060   8.266  0.1688  0.3559 -0.2159
  358loPI   C4A 5722   2.499  14.166   7.839  0.0229 -0.3253 -0.2297
  358loPI   C5A 5723   2.666  14.368   7.490  0.2735 -0.0612 -0.2116
  358loPI   C6A 5724   3.066  14.457   7.271  0.1324 -0.1894  0.1833
  358loPI   C1B 5725   3.184  13.252   8.729 -0.5024  0.0386 -0.0382
  358loPI   C2B 5726   3.307  13.013   8.331  0.1872 -0.1928 -0.1243
  358loPI   C3B 5727   3.387  12.802   7.982  0.2442 -0.0094  0.0605
  358loPI   C4B 5728   3.547  12.650   7.496  0.0270 -0.0456  0.1118
  359loPI    C1 5729   9.283   1.539   9.908 -0.1524 -0.0774  0.0542
  359loPI    C2 5730   9.156   1.738   9.585  0.0634  0.0847  0.0675
  359loPI    C3 5731   8.999   1.819   9.944 -0.2310 -0.1489 -0.0047
  359loPI   PO4 5732   9.594   1.536   9.847 -0.3539  0.3348 -0.2351
  359loPI   GL1 5733   9.811   1.522   9.425  0.3209  0.2186 -0.0377
  359loPI   GL2 5734   9.450   1.334   9.377  0.1921  0.0474 -0.2223
  359loPI   C1A 5735   9.848   1.360   9.059  0.0122  0.3757 -0.2716
  359loPI   C2A 5736  10.046   1.520   8.731 -0.1725  0.1194  0.2013
  359loPI   C3A 5737  10.190   1.630   8.322 -0.2268 -0.0882  0.0662
  359loPI   C4A 5738  10.108   1.683   7.864  0.0274  0.0905  0.1511
  359loPI   C5A 5739  10.075   1.705   7.462 -0.0293 -0.2623  0.3435
  359loPI   C6A 5740  10.354   1.443   7.185 -0.0123  0.2341  0.2355
  359loPI   C1B 5741   9.419   1.167   9.024  0.0460  0.2179  0.3020
  359loPI   C2B 5742   9.631   1.200   8.647  0.0360 -0.0900 -0.0600
  359loPI   C3B 5743   9.733   1.407   8.175  0.1628 -0.0551  0.0960
  359loPI   C4B 5744   9.698   1.417   7.655 -0.0565 -0.2441  0.0606
  360loPI    C1 5745   5.153   2.207   9.853 -0.0503  0.0697  0.0538
  360loPI    C2 5746   5.305   1.965  10.134  0.0688 -0.1074 -0.1604
  360loPI    C3 5747   4.924   2.085  10.158  0.0382 -0.2339  0.0018
  360loPI   PO4 5748   5.211   2.069   9.637 -0.0088 -0.2378  0.0911
  360loPI   GL1 5749   5.169   2.238   9.193  0.2502  0.0068  0.0518
  360loPI   GL2 5750   5.397   2.534   9.253 -0.1491  0.2267 -0.1731
  360loPI   C1A 5751   4.999   2.099   8.883 -0.0013 -0.0684 -0.0530
  360loPI   C2A 5752   5.043   2.250   8.394  0.1221 -0.1047 -0.1307
  360loPI   C3A 5753   5.097   2.391   7.987  0.0032 -0.0589  0.3147
  360loPI   C4A 5754   5.156   2.470   7.514  0.1100 -0.1245 -0.0067
  360loPI   C5A 5755   5.135   2.729   7.101 -0.1331 -0.2749 -0.1412
  360loPI   C6A 5756   4.916   2.941   6.770 -0.1096  0.1400  0.4486
  360loPI   C1B 5757   5.322   2.495   8.732  0.1319 -0.1971  0.1233
  360loPI   C2B 5758   5.465   2.630   8.347 -0.0232  0.0071 -0.0054
  360loPI   C3B 5759   5.551   2.711   7.842 -0.2626 -0.2224 -0.0608
  360loPI   C4B 5760   5.341   2.941   7.506  0.1295  0.0942  0.2346
  361loPI    C1 5761   2.166  16.702  10.314 -0.1864 -0.2369 -0.1243
  361loPI    C2 5762   1.925  16.798  10.618 -0.0432  0.2236 -0.1473
  361loPI    C3 5763   2.187  16.499  10.657  0.0212  0.3224  0.2084
  361loPI   PO4 5764   1.919  16.630  10.161  0.0377  0.2041  0.1124
  361loPI   GL1 5765   1.781  16.514   9.805 -0.1823 -0.1073 -0.0539
  361loPI   GL2 5766   1.415  16.500   9.665 -0.1909 -0.1793 -0.0736
  361loPI   C1A 5767   2.019  16.611   9.398 -0.2347  0.4287 -0.0040
  361loPI   C2A 5768   2.338  16.549   9.041 -0.2714 -0.1294 -0.0864
  361loPI   C3A 5769   2.443  16.385   8.648 -0.2109 -0.2931 -0.1106
  361loPI   C4A 5770   2.380  16.401   8.140  0.2298  0.4144 -0.3931
  361loPI   C5A 5771   2.505  16.364   7.702 -0.0366  0.0003  0.0014
  361loPI   C6A 5772   2.484  16.275   7.309 -0.2506 -0.2006  0.1862
  361loPI   C1B 5773   1.563  16.460   9.258 -0.1406  0.0066  0.0015
  361loPI   C2B 5774   1.470  16.331   8.787  0.0365  0.1499  0.0324
  361loPI   C3B 5775   1.602  16.311   8.411 -0.1813  0.0302 -0.0023
  361loPI   C4B 5776   1.258  16.354   8.163 -0.0067  0.2483  0.1747
  362loPI    C1 5777   1.155   0.450   9.800  0.0871 -0.2441  0.1624
  362loPI    C2 5778   0.768   0.493   9.893  0.0179 -0.2651 -0.1084
  362loPI    C3 5779   1.042   0.729  10.064 -0.1529 -0.0139 -0.1744
  362loPI   PO4 5780   1.207   0.289   9.569 -0.1710  0.2409  0.1603
  362loPI   GL1 5781   1.311   0.180   9.142 -0.4105  0.2088  0.0109
  362loPI   GL2 5782   1.506  -0.042   8.999  0.0636  0.0440 -0.1457
  362loPI   C1A 5783   0.971   0.285   8.901 -0.1894 -0.2941  0.1484
  362loPI   C2A 5784   0.913   0.227   8.548  0.0406 -0.0520 -0.2016
  362loPI   C3A 5785   0.957   0.416   8.165 -0.1743 -0.2524  0.0978
  362loPI   C4A 5786   1.161   0.575   7.872  0.1836 -0.3113  0.5105
  362loPI   C5A 5787   1.057   0.594   7.451 -0.2984  0.2526 -0.0955
  362loPI   C6A 5788   0.723   0.595   7.159 -0.0471 -0.0049  0.0438
  362loPI   C1B 5789   1.435   0.250   8.640 -0.2546 -0.0313  0.0646
  362loPI   C2B 5790   1.428   0.311   8.151 -0.0018 -0.1514  0.2885
  362loPI   C3B 5791   1.604   0.333   7.686  0.1664 -0.0021 -0.0171
  362loPI   C4B 5792   1.905   0.650   7.398  0.0537  0.0263 -0.2117
  363loPI    C1 5793   7.862   9.007  10.063 -0.0512 -0.1522 -0.0577
  363loPI    C2 5794   7.617   9.003  10.379  0.1514 -0.2709  0.1003
  363loPI    C3 5795   7.908   9.276  10.356 -0.0047 -0.1179 -0.0963
  363loPI   PO4 5796   7.683   9.065   9.867 -0.0036 -0.1297 -0.1324
  363loPI   GL1 5797   7.832   8.882   9.496 -0.1002 -0.3622 -0.2034
  363loPI   GL2 5798   7.623   8.764   9.249 -0.0618  0.1225  0.3083
  363loPI   C1A 5799   8.108   8.795   9.064  0.1285 -0.1005  0.1821
  363loPI   C2A 5800   8.087   8.860   8.582 -0.0348  0.0538  0.1920
  363loPI   C3A 5801   8.033   8.727   8.136  0.0856 -0.2231  0.1563
  363loPI   C4A 5802   7.892   8.626   7.726 -0.2027 -0.0590 -0.0930
  363loPI   C5A 5803   7.538   8.425   7.415 -0.3299 -0.0414  0.0261
  363loPI   C6A 5804   7.122   8.533   7.284 -0.1112 -0.0040  0.1894
  363loPI   C1B 5805   7.650   8.763   8.883  0.3703 -0.0908 -0.1806
  363loPI   C2B 5806   7.682   8.623   8.517 -0.0359 -0.4151  0.0667
  363loPI   C3B 5807   7.535   8.573   8.280 -0.1368  0.1465  0.1464
  363loPI   C4B 5808   7.478   8.454   7.902 -0.0858 -0.1914 -0.1489
  364loPI    C1 5809  18.512  12.893  10.031 -0.0697 -0.0107  0.0552
  364loPI    C2 5810  18.360  13.003  10.385 -0.2867  0.1342 -0.0801
  364loPI    C3 5811  18.613  13.246  10.191  0.3113 -0.2011  0.2482
  364loPI   PO4 5812  18.385  12.843   9.910 -0.0083 -0.0841 -0.1194
  364loPI   GL1 5813  18.533  12.589   9.506 -0.1253  0.2074 -0.0107
  364loPI   GL2 5814  18.720  12.764   9.546  0.0561 -0.1589  0.0233
  364loPI   C1A 5815  18.380  12.685   9.071  0.1931 -0.2848  0.0262
  364loPI   C2A 5816  18.395  12.474   8.666 -0.1774  0.4300  0.0653
  364loPI   C3A 5817  18.450  12.516   8.313 -0.1563 -0.1787  0.1967
  364loPI   C4A 5818  18.542  12.828   8.131 -0.0480  0.1739  0.1952
  364loPI   C5A 5819  18.512  13.133   7.888  0.3708 -0.0037  0.1535
  364loPI   C6A 5820  18.231  13.174   7.564  0.0259  0.0332  0.1468
  364loPI   C1B 5821  18.858  12.772   9.136  0.2185 -0.2323  0.1433
  364loPI   C2B 5822  18.918  12.559   8.831 -0.1366  0.0003  0.1274
  364loPI   C3B 5823  19.008  12.652   8.365 -0.2781 -0.2217 -0.1863
  364loPI   C4B 5824  19.186  12.611   8.005 -0.3092 -0.0502  0.2431
  365loPI    C1 5825  12.323   1.485  10.355  0.1149  0.0292  0.0640
  365loPI    C2 5826  12.675   1.308  10.423 -0.0051 -0.2469 -0.0170
  365loPI    C3 5827  12.355   1.205  10.640 -0.0990 -0.2017 -0.1331
  365loPI   PO4 5828  12.247   1.455  10.148 -0.1881 -0.2089  0.2696
  365loPI   GL1 5829  12.355   1.245   9.702  0.2333  0.2594  0.4537
  365loPI   GL2 5830  12.463   1.277   9.371  0.0822 -0.3294  0.3682
  365loPI   C1A 5831  12.210   0.860   9.471 -0.0008  0.3390  0.3047
  365loPI   C2A 5832  12.360   0.793   9.078  0.0701 -0.1796  0.3282
  365loPI   C3A 5833  12.440   0.604   8.718 -0.1265 -0.1278 -0.2431
  365loPI   C4A 5834  12.372   0.686   8.362 -0.2516  0.2247 -0.1103
  365loPI   C5A 5835  12.445   0.689   7.927  0.1204  0.0060 -0.5199
  365loPI   C6A 5836  12.630   0.527   7.561 -0.3079 -0.1758 -0.1051
  365loPI   C1B 5837  12.567   1.280   8.931  0.0669 -0.0549 -0.0510
  365loPI   C2B 5838  12.485   1.187   8.490 -0.0852 -0.1179  0.2978
  365loPI   C3B 5839  12.366   1.159   8.083  0.3331  0.0012  0.3351
  365loPI   C4B 5840  12.550   1.159   7.622 -0.5274  0.0269 -0.0156
  366loPI    C1 5841   8.808  13.472   9.648  0.2480 -0.1272  0.0137
  366loPI    C2 5842   8.537  13.242   9.831 -0.2940  0.2908 -0.2342
  366loPI    C3 5843   8.695  13.556  10.022 -0.1498  0.1789 -0.1675
  366loPI   PO4 5844   9.063  13.353   9.587 -0.0500  0.0381 -0.1340
  366loPI   GL1 5845   9.129  13.455   9.110 -0.0405 -0.3662  0.0992
  366loPI   GL2 5846   8.863  13.180   9.167 -0.1424  0.0689 -0.1138
  366loPI   C1A 5847   9.286  13.296   8.714 -0.0622 -0.0661  0.3727
  366loPI   C2A 5848   9.212  13.127   8.384  0.1223  0.4330  0.2513
  366loPI   C3A 5849   9.128  13.036   7.985 -0.3421  0.2187 -0.2082
  366loPI   C4A 5850   9.021  12.875   7.517 -0.1435  0.0061  0.2692
  366loPI   C5A 5851   8.852  12.588   7.239  0.1326 -0.2490 -0.1773
  366loPI   C6A 5852   8.895  12.012   7.311  0.0220 -0.0586  0.0187
  366loPI   C1B 5853   8.635  13.377   8.797  0.0051  0.1427  0.0266
  366loPI   C2B 5854   8.770  13.362   8.300 -0.0387 -0.3127 -0.1011
  366loPI   C3B 5855   9.110  13.550   8.011 -0.0014  0.1566  0.1379
  366loPI   C4B 5856   9.019  13.842   7.540  0.0677  0.2870  0.2704
  367loPI    C1 5857  11.460  11.587  10.126 -0.2297 -0.1756  0.1267
  367loPI    C2 5858  11.313  11.951  10.049  0.1624 -0.0500 -0.0521
  367loPI    C3 5859  11.402  11.847  10.425 -0.2160 -0.0678  0.0361
  367loPI   PO4 5860  11.284  11.419  10.021 -0.4440 -0.3599 -0.0339
  367loPI   GL1 5861  11.128  11.183   9.716  0.0044 -0.1835 -0.1754
  367loPI   GL2 5862  10.937  11.233   9.521  0.0721 -0.2502 -0.1148
  367loPI   C1A 5863  11.335  11.428   9.287 -0.0057  0.0682 -0.3484
  367loPI   C2A 5864  11.312  11.490   8.860  0.0042 -0.3333  0.1874
  367loPI   C3A 5865  11.426  11.371   8.435  0.0703 -0.1535  0.0432
  367loPI   C4A 5866  11.523  11.261   7.960  0.1191 -0.1798 -0.1734
  367loPI   C5A 5867  11.679  10.956   7.624  0.4461  0.0679 -0.0569
  367loPI   C6A 5868  11.707  10.751   7.247 -0.3468  0.0572 -0.1021
  367loPI   C1B 5869  10.880  11.344   9.139 -0.3109 -0.0690 -0.0619
  367loPI   C2B 5870  10.783  11.502   8.783  0.0662 -0.2476 -0.0455
  367loPI   C3B 5871  10.955  11.416   8.379 -0.0894  0.3339  0.0633
  367loPI   C4B 5872  11.003  11.197   7.993  0.1706 -0.4854  0.1767
  368loPI    C1 5873   0.537   9.411  10.367 -0.2096  0.0471  0.1426
  368loPI    C2 5874   0.684   9.747  10.206  0.0337 -0.0821  0.0899
  368loPI    C3 5875   0.772   9.651  10.584  0.1409 -0.1926  0.0379
  368loPI   PO4 5876   0.581   9.219  10.127 -0.2442  0.1316 -0.0947
  368loPI   GL1 5877   0.576   9.280   9.670  0.2064  0.1673  0.1524
  368loPI   GL2 5878   0.544   9.588   9.747 -0.0119  0.1078  0.0707
  368loPI   C1A 5879   0.354   9.277   9.321  0.2968 -0.3158  0.3202
  368loPI   C2A 5880   0.404   9.266   8.870  0.1135  0.1898  0.0708
  368loPI   C3A 5881   0.358   9.296   8.530  0.1379 -0.0553 -0.1415
  368loPI   C4A 5882   0.342   9.275   8.113 -0.3534  0.1987 -0.0695
  368loPI   C5A 5883   0.765   9.220   7.861  0.3566 -0.1676  0.4123
  368loPI   C6A 5884   1.148   9.284   7.936 -0.0521  0.1442  0.0532
  368loPI   C1B 5885   0.635   9.901   9.526 -0.1029 -0.3937 -0.2137
  368loPI   C2B 5886   0.693   9.858   9.132 -0.0043 -0.2618  0.0190
  368loPI   C3B 5887   0.608   9.752   8.677  0.1698 -0.1640 -0.0644
  368loPI   C4B 5888   0.727   9.624   8.213 -0.2358 -0.0676  0.1730
  369loPI    C1 5889  10.645   5.518   9.862 -0.1365 -0.1111 -0.0012
  369loPI    C2 5890  10.551   5.173  10.040 -0.0709 -0.0676  0.1187
  369loPI    C3 5891  10.313   5.491  10.083 -0.2377 -0.1517 -0.1561
  369loPI   PO4 5892  10.704   5.436   9.583  0.1200  0.2462 -0.1118
  369loPI   GL1 5893  10.501   5.404   9.239 -0.0284  0.2328  0.2708
  369loPI   GL2 5894  10.142   5.485   9.043  0.0094 -0.1463 -0.1731
  369loPI   C1A 5895  10.642   5.267   8.915 -0.0953 -0.2435 -0.1232
  369loPI   C2A 5896  10.513   5.420   8.434  0.2293 -0.0557  0.0574
  369loPI   C3A 5897  10.315   5.508   8.073  0.1941  0.0804  0.1666
  369loPI   C4A 5898   9.938   5.506   7.813 -0.1862 -0.0471 -0.2303
  369loPI   C5A 5899   9.666   5.731   7.511  0.1565  0.0970  0.1532
  369loPI   C6A 5900   9.798   6.216   7.509  0.2266  0.1601  0.4586
  369loPI   C1B 5901  10.239   5.702   8.720 -0.2662  0.2539  0.2096
  369loPI   C2B 5902  10.007   5.787   8.318  0.1167 -0.2676  0.1718
  369loPI   C3B 5903   9.752   5.897   8.041 -0.1910 -0.5845  0.2278
  369loPI   C4B 5904   9.436   6.162   7.794  0.0555 -0.2223 -0.0402
  370loPI    C1 5905   9.250  17.871  10.175 -0.0769 -0.0101 -0.0389
  370loPI    C2 5906   9.018  18.154  10.337 -0.0473 -0.0398  0.0559
  370loPI    C3 5907   8.999  17.778  10.472 -0.0198 -0.0640 -0.0074
  370loPI   PO4 5908   9.208  17.822   9.845 -0.1324 -0.2120 -0.2707
  370loPI   GL1 5909   9.288  17.695   9.296 -0.2612  0.1458 -0.1349
  370loPI   GL2 5910   9.592  17.705   9.520 -0.0626 -0.1301  0.3229
  370loPI   C1A 5911   9.232  18.006   8.830 -0.0377 -0.0769 -0.2072
  370loPI   C2A 5912   9.330  18.052   8.448 -0.1124 -0.1667  0.1499
  370loPI   C3A 5913   9.248  17.996   8.115  0.2325  0.0646  0.2132
  370loPI   C4A 5914   9.139  17.876   7.631 -0.0779 -0.2636  0.0578
  370loPI   C5A 5915   9.265  17.642   7.348  0.2659  0.0356 -0.0365
  370loPI   C6A 5916   9.459  17.315   7.256 -0.0292 -0.1582 -0.0675
  370loPI   C1B 5917   9.756  17.695   9.098 -0.0077  0.0531 -0.3414
  370loPI   C2B 5918   9.655  17.651   8.615 -0.0504  0.2086 -0.1294
  370loPI   C3B 5919   9.692  17.838   8.246 -0.1036  0.0746  0.1009
  370loPI   C4B 5920   9.599  17.946   7.807 -0.0572  0.3219  0.0918
  371loPI    C1 5921   6.624   1.585   9.570 -0.2049 -0.3032  0.1361
  371loPI    C2 5922   6.957   1.624   9.787 -0.0424 -0.3296 -0.1046
  371loPI    C3 5923   6.638   1.441   9.943 -0.0513 -0.0359  0.2364
  371loPI   PO4 5924   6.711   1.495   9.342 -0.0617 -0.0696 -0.0610
  371loPI   GL1 5925   6.737   1.287   8.970 -0.0608  0.2230  0.0815
  371loPI   GL2 5926   6.600   1.034   8.949 -0.1675 -0.2099 -0.0203
  371loPI   C1A 5927   6.864   1.374   8.600 -0.0573  0.0525  0.0486
  371loPI   C2A 5928   6.882   1.419   8.169  0.3001  0.1443 -0.0891
  371loPI   C3A 5929   7.025   1.466   7.755 -0.0454  0.1854 -0.2353
  371loPI   C4A 5930   6.894   1.354   7.159  0.2274  0.0921 -0.1169
  371loPI   C5A 5931   6.696   1.669   6.912  0.3887  0.2253 -0.0119
  371loPI   C6A 5932   6.801   1.962   6.671 -0.1409 -0.2579  0.6038
  371loPI   C1B 5933   6.631   0.968   8.579  0.1363  0.0177 -0.0143
  371loPI   C2B 5934   6.882   0.802   8.252  0.0035 -0.1554  0.1796
  371loPI   C3B 5935   6.748   0.944   7.875  0.0499 -0.0884  0.3557
  371loPI   C4B 5936   6.657   1.210   7.616 -0.0966 -0.3830 -0.1303
  372loPI    C1 5937   5.861  12.445   9.751  0.1359  0.3842  0.2100
  372loPI    C2 5938   6.206  12.538   9.572  0.1150 -0.3181 -0.2362
  372loPI    C3 5939   6.206  12.397   9.946  0.2962 -0.1951 -0.1886
  372loPI   PO4 5940   5.729  12.612   9.603  0.1009 -0.1025  0.1372
  372loPI   GL1 5941   5.378  12.552   9.317 -0.1440  0.2702  0.0107
  372loPI   GL2 5942   5.644  12.377   9.188 -0.1177  0.2789 -0.4009
  372loPI   C1A 5943   5.173  12.604   8.944  0.3057  0.2390 -0.1655
  372loPI   C2A 5944   5.298  12.279   8.601  0.0106  0.1125 -0.4388
  372loPI   C3A 5945   5.414  12.021   8.327 -0.1686  0.1594  0.1098
  372loPI   C4A 5946   5.318  12.041   7.828  0.0122 -0.1627  0.0320
  372loPI   C5A 5947   5.604  12.103   7.498  0.2373  0.1557  0.3490
  372loPI   C6A 5948   5.938  12.407   7.578  0.1668 -0.1086 -0.0139
  372loPI   C1B 5949   5.738  12.277   8.836 -0.0685  0.1247 -0.0089
  372loPI   C2B 5950   5.841  12.016   8.621 -0.1158 -0.1324  0.0784
  372loPI   C3B 5951   5.861  11.747   8.322  0.1811  0.0554  0.1397
  372loPI   C4B 5952   5.879  11.952   7.921 -0.1524 -0.0300  0.2086
  373loPI    C1 5953   4.841   0.668   9.470  0.2171  0.0873 -0.0999
  373loPI    C2 5954   5.155   0.421   9.448  0.1215 -0.0415 -0.0372
  373loPI    C3 5955   5.112   0.663   9.764  0.2333  0.0817 -0.1150
  373loPI   PO4 5956   4.775   0.665   9.235  0.1478  0.5580  0.3623
  373loPI   GL1 5957   4.450   0.555   8.930  0.4201 -0.1778 -0.3542
  373loPI   GL2 5958   4.380   0.890   9.065  0.2053  0.1521  0.0595
  373loPI   C1A 5959   4.627   0.506   8.500 -0.1947  0.1098 -0.0490
  373loPI   C2A 5960   4.542   0.780   8.208  0.1233  0.1237 -0.1193
  373loPI   C3A 5961   4.541   0.929   7.732 -0.2238  0.2487 -0.4564
  373loPI   C4A 5962   4.655   0.699   7.438 -0.1244 -0.1433  0.0533
  373loPI   C5A 5963   4.542   0.254   7.385 -0.3636 -0.1433 -0.2076
  373loPI   C6A 5964   4.442  -0.035   7.125 -0.1248  0.0212  0.0999
  373loPI   C1B 5965   4.624   1.095   8.683 -0.0730  0.0800  0.1231
  373loPI   C2B 5966   4.915   1.270   8.380 -0.0502 -0.2087 -0.3332
  373loPI   C3B 5967   4.986   1.147   7.994  0.2800 -0.2323  0.0836
  373loPI   C4B 5968   5.057   1.233   7.601 -0.1386  0.1557  0.0867
  374loPI    C1 5969   7.673  17.844   9.787 -0.0584 -0.1268  0.0217
  374loPI    C2 5970   7.679  17.995  10.157 -0.0612 -0.2723  0.0818
  374loPI    C3 5971   7.902  17.675  10.068  0.0282 -0.1683 -0.0728
  374loPI   PO4 5972   7.652  18.052   9.666  0.0749  0.0854  0.1230
  374loPI   GL1 5973   7.744  17.948   9.233 -0.1571 -0.0548  0.0239
  374loPI   GL2 5974   8.042  17.809   9.271 -0.0492  0.0984 -0.0125
  374loPI   C1A 5975   7.852  18.000   8.856 -0.2020  0.1184 -0.2972
  374loPI   C2A 5976   7.929  18.080   8.402 -0.1975  0.0108  0.1813
  374loPI   C3A 5977   8.079  17.867   8.013  0.1344 -0.0668  0.0646
  374loPI   C4A 5978   8.049  17.827   7.493 -0.3029  0.0408 -0.3620
  374loPI   C5A 5979   7.985  17.478   7.332 -0.2084 -0.0239 -0.1199
  374loPI   C6A 5980   7.730  17.198   7.005 -0.4465 -0.1249 -0.1765
  374loPI   C1B 5981   8.206  17.564   8.854 -0.0116 -0.0399  0.1197
  374loPI   C2B 5982   8.236  17.669   8.569 -0.4414 -0.3747 -0.0442
  374loPI   C3B 5983   8.332  17.529   8.212  0.0827 -0.2216 -0.2855
  374loPI   C4B 5984   8.287  17.384   7.758 -0.2147 -0.0390  0.1558
  375loPI    C1 5985   7.995  10.443   9.724 -0.1644  0.0828 -0.0823
  375loPI    C2 5986   7.739  10.584   9.997 -0.3867 -0.0544 -0.2161
  375loPI    C3 5987   7.959  10.837   9.779 -0.1468  0.0542  0.1430
  375loPI   PO4 5988   7.884  10.316   9.503 -0.5540  0.1608  0.0139
  375loPI   GL1 5989   7.592  10.222   9.215 -0.2425  0.0452  0.1556
  375loPI   GL2 5990   7.723   9.998   9.090 -0.1556 -0.1245  0.0682
  375loPI   C1A 5991   7.452  10.239   8.689 -0.2233  0.0855 -0.2675
  375loPI   C2A 5992   7.434  10.292   8.267 -0.0354 -0.5816 -0.0425
  375loPI   C3A 5993   7.386  10.047   7.916 -0.0069 -0.4015  0.1114
  375loPI   C4A 5994   7.292   9.786   7.564 -0.0620 -0.0677  0.1048
  375loPI   C5A 5995   7.193   9.348   7.529 -0.1071  0.1658  0.2328
  375loPI   C6A 5996   6.826   9.107   7.479  0.2019 -0.1060 -0.2040
  375loPI   C1B 5997   7.875   9.986   8.629 -0.2123 -0.1034  0.1594
  375loPI   C2B 5998   7.873   9.675   8.272 -0.1894 -0.1743  0.0574
  375loPI   C3B 5999   8.210   9.624   7.914  0.1830 -0.2658 -0.3129
  375loPI   C4B 6000   8.643   9.343   7.900  0.3097  0.0937  0.1005
  376loPI    C1 6001  12.674  11.110  10.126 -0.1173 -0.0756  0.0258
  376loPI    C2 6002  12.787  10.741  10.022  0.1185 -0.0485  0.1784
  376loPI    C3 6003  12.825  10.862  10.401  0.0212  0.1256  0.1333
  376loPI   PO4 6004  12.726  11.213   9.799 -0.1327 -0.0598 -0.1000
  376loPI   GL1 6005  12.996  10.905   9.560  0.3179 -0.0124  0.1006
  376loPI   GL2 6006  12.809  11.101   9.275  0.0856 -0.2197  0.1377
  376loPI   C1A 6007  13.040  10.694   9.140 -0.2213  0.0696  0.1416
  376loPI   C2A 6008  13.062  10.735   8.673  0.1715 -0.2873 -0.0962
  376loPI   C3A 6009  12.984  10.785   8.246 -0.1980 -0.2114 -0.3258
  376loPI   C4A 6010  13.036  10.789   7.849  0.3872 -0.0261  0.0705
  376loPI   C5A 6011  13.117  10.453   7.607  0.1066 -0.2833  0.1474
  376loPI   C6A 6012  13.465  10.099   7.604 -0.1710 -0.1362  0.1209
  376loPI   C1B 6013  12.639  10.879   8.935  0.0969  0.3254  0.0238
  376loPI   C2B 6014  12.481  10.950   8.535  0.0418  0.2518  0.0608
  376loPI   C3B 6015  12.449  11.007   8.064 -0.2338  0.0396 -0.2332
  376loPI   C4B 6016  12.618  10.996   7.689  0.0300 -0.0190  0.0815
  377loPI    C1 6017   1.979   8.160  10.391 -0.1591 -0.2243  0.1923
  377loPI    C2 6018   2.274   8.282  10.631  0.1123  0.0174 -0.2499
  377loPI    C3 6019   2.331   7.971  10.386 -0.0360  0.0029 -0.2669
  377loPI   PO4 6020   1.903   8.333  10.288  0.3683 -0.0488 -0.1590
  377loPI   GL1 6021   1.824   8.520   9.808  0.2143  0.1152  0.0491
  377loPI   GL2 6022   1.729   8.383   9.584 -0.2698  0.0175  0.3252
  377loPI   C1A 6023   1.684   8.902   9.548  0.0294 -0.1646 -0.0726
  377loPI   C2A 6024   1.673   9.039   9.143  0.3454  0.0649 -0.0928
  377loPI   C3A 6025   1.833   9.005   8.751  0.2872 -0.2234 -0.1411
  377loPI   C4A 6026   1.921   8.962   8.416  0.0271 -0.2197  0.1935
  377loPI   C5A 6027   1.980   8.907   8.008  0.1867  0.2735 -0.1490
  377loPI   C6A 6028   2.062   8.650   7.618  0.1797 -0.0954  0.1712
  377loPI   C1B 6029   1.743   8.501   9.116  0.1001  0.2711  0.0574
  377loPI   C2B 6030   1.651   8.525   8.655  0.2001 -0.1131  0.1863
  377loPI   C3B 6031   1.590   8.583   8.194 -0.0876 -0.2737 -0.3689
  377loPI   C4B 6032   1.428   8.655   7.856 -0.2614 -0.0659  0.1818
  378loPI    C1 6033  11.059  16.838   9.788 -0.2485 -0.1866 -0.1224
  378loPI    C2 6034  10.843  17.077  10.026 -0.0168  0.0460 -0.1411
  378loPI    C3 6035  10.853  17.144   9.632 -0.1378 -0.1390 -0.1767
  378loPI   PO4 6036  10.993  16.557   9.780  0.2816  0.0267 -0.2740
  378loPI   GL1 6037  11.157  16.291   9.515  0.1522 -0.1316  0.0323
  378loPI   GL2 6038  11.020  15.987   9.510  0.1130 -0.1624  0.2259
  378loPI   C1A 6039  11.454  16.109   9.132  0.2168  0.0945 -0.1837
  378loPI   C2A 6040  11.638  15.986   8.643 -0.2212  0.3737 -0.0268
  378loPI   C3A 6041  11.498  15.775   8.282 -0.0999 -0.2054  0.0313
  378loPI   C4A 6042  11.333  15.754   7.866  0.0762 -0.2069 -0.0478
  378loPI   C5A 6043  11.162  16.054   7.706 -0.2209 -0.3496  0.0257
  378loPI   C6A 6044  11.220  16.530   7.550  0.2975 -0.4692  0.0384
  378loPI   C1B 6045  10.860  15.982   9.142  0.1593  0.0332  0.0527
  378loPI   C2B 6046  11.027  15.813   8.745  0.1752 -0.2197 -0.0516
  378loPI   C3B 6047  10.988  15.784   8.265  0.1157 -0.0117  0.0386
  378loPI   C4B 6048  10.809  15.714   7.917  0.2593  0.1870  0.1774
  379loPI    C1 6049  14.864   9.050  10.091 -0.0147  0.1969 -0.1035
  379loPI    C2 6050  14.476   9.132  10.145 -0.0568 -0.0746  0.0233
  379loPI    C3 6051  14.751   9.310  10.373 -0.1491 -0.3027  0.3193
  379loPI   PO4 6052  14.869   9.021   9.854 -0.0647 -0.0780 -0.1260
  379loPI   GL1 6053  14.778   9.168   9.397  0.2587  0.0860  0.1589
  379loPI   GL2 6054  14.567   9.423   9.408  0.1018  0.2810  0.0263
  379loPI   C1A 6055  15.120   9.133   9.095 -0.0681  0.0571  0.1470
  379loPI   C2A 6056  15.447   9.305   8.826  0.4199 -0.2343  0.1345
  379loPI   C3A 6057  15.298   9.369   8.438 -0.1588  0.1042 -0.1403
  379loPI   C4A 6058  15.493   9.354   7.976  0.0563  0.3714  0.0868
  379loPI   C5A 6059  15.538   9.146   7.540  0.0271  0.1147 -0.3390
  379loPI   C6A 6060  15.649   8.810   7.211 -0.0817  0.0152 -0.0537
  379loPI   C1B 6061  14.589   9.578   8.983  0.2948  0.0773  0.2426
  379loPI   C2B 6062  14.884   9.442   8.743  0.1315 -0.1610 -0.2767
  379loPI   C3B 6063  14.905   9.080   8.459  0.0263 -0.3113  0.2009
  379loPI   C4B 6064  14.723   8.861   8.267 -0.2623  0.2516 -0.1795
  380loPI    C1 6065  10.958  15.271  10.238 -0.3972 -0.1512  0.4809
  380loPI    C2 6066  11.326  15.377  10.355 -0.2361 -0.1215 -0.0270
  380loPI    C3 6067  11.020  15.630  10.405 -0.0649  0.1229 -0.1915
  380loPI   PO4 6068  11.036  15.187   9.847 -0.3586  0.1420 -0.0321
  380loPI   GL1 6069  11.187  15.310   9.439  0.0473  0.0257 -0.0498
  380loPI   GL2 6070  11.249  15.569   9.392  0.2380  0.1815  0.0855
  380loPI   C1A 6071  11.020  15.171   9.131  0.3799  0.1444 -0.0633
  380loPI   C2A 6072  10.840  14.963   8.870  0.1601  0.0877 -0.0005
  380loPI   C3A 6073  10.778  14.962   8.431  0.0472 -0.0090  0.1015
  380loPI   C4A 6074  11.013  14.949   7.987 -0.3659  0.3943  0.3350
  380loPI   C5A 6075  11.122  15.262   7.656 -0.1217  0.0272  0.0791
  380loPI   C6A 6076  11.081  15.614   7.433 -0.0390 -0.0815 -0.2178
  380loPI   C1B 6077  11.321  15.531   9.009  0.0302 -0.0519 -0.1279
  380loPI   C2B 6078  11.148  15.350   8.612  0.0775 -0.0304  0.1957
  380loPI   C3B 6079  11.311  15.328   8.147  0.3667  0.4651  0.0506
  380loPI   C4B 6080  11.692  15.261   7.771 -0.0740 -0.1623  0.2723
  381loPI    C1 6081  17.789   3.381   9.810  0.0295 -0.2611 -0.0673
  381loPI    C2 6082  18.109   3.209   9.977  0.0201 -0.1038  0.1159
  381loPI    C3 6083  17.867   3.439  10.198  0.0416  0.1585 -0.1279
  381loPI   PO4 6084  17.944   3.474   9.566 -0.0563  0.1626 -0.0583
  381loPI   GL1 6085  17.781   3.460   9.195  0.1195  0.1978  0.1226
  381loPI   GL2 6086  17.597   3.383   8.892  0.0783 -0.3044 -0.2913
  381loPI   C1A 6087  18.037   3.699   8.814  0.1660 -0.0401  0.0825
  381loPI   C2A 6088  18.054   3.666   8.405 -0.1822 -0.1064  0.1892
  381loPI   C3A 6089  18.177   3.904   8.082 -0.0031  0.0129  0.1585
  381loPI   C4A 6090  18.382   4.233   7.999  0.2376 -0.2886 -0.2072
  381loPI   C5A 6091  18.388   4.538   8.330  0.0169  0.0923  0.0500
  381loPI   C6A 6092  18.217   4.478   8.752 -0.1298 -0.1946 -0.2952
  381loPI   C1B 6093  17.635   3.356   8.516 -0.2803  0.1661 -0.0633
  381loPI   C2B 6094  17.635   3.371   7.989 -0.2399  0.1109  0.0955
  381loPI   C3B 6095  17.606   3.544   7.652 -0.3058  0.6253 -0.1924
  381loPI   C4B 6096  17.828   3.725   7.266  0.1269  0.0167  0.0468
  382loPI    C1 6097  12.661  14.740  10.426  0.0834  0.1530  0.1501
  382loPI    C2 6098  12.358  14.992  10.357 -0.0962 -0.1043 -0.0217
  382loPI    C3 6099  12.356  14.761  10.684 -0.0467 -0.0516  0.0161
  382loPI   PO4 6100  12.857  14.895  10.210 -0.0308 -0.1822  0.0648
  382loPI   GL1 6101  12.999  14.933   9.772  0.1921  0.0526 -0.3924
  382loPI   GL2 6102  12.679  14.784   9.670  0.3369 -0.1044  0.1716
  382loPI   C1A 6103  13.074  15.011   9.343  0.1011  0.2308 -0.0364
  382loPI   C2A 6104  13.048  14.983   8.981 -0.0300 -0.1543  0.0417
  382loPI   C3A 6105  13.249  15.047   8.580 -0.1305 -0.0264  0.2974
  382loPI   C4A 6106  13.141  14.711   8.250 -0.4259  0.1998 -0.0190
  382loPI   C5A 6107  12.979  14.451   7.869  0.3095 -0.1271 -0.1149
  382loPI   C6A 6108  13.031  14.414   7.457 -0.0236 -0.2939  0.1755
  382loPI   C1B 6109  12.566  14.776   9.203 -0.0296 -0.0897 -0.2165
  382loPI   C2B 6110  12.617  14.828   8.754 -0.1478  0.0850 -0.0356
  382loPI   C3B 6111  12.604  14.981   8.370 -0.4406  0.0535  0.3384
  382loPI   C4B 6112  12.805  15.082   8.015 -0.1380 -0.4210  0.1735
  383loPI    C1 6113   3.266   7.023   9.631 -0.3728 -0.2186  0.3098
  383loPI    C2 6114   3.607   7.140   9.804 -0.0946 -0.0692 -0.3120
  383loPI    C3 6115   3.476   6.766   9.854  0.1816 -0.1416 -0.1025
  383loPI   PO4 6116   3.360   7.280   9.370 -0.0229 -0.0452  0.3506
  383loPI   GL1 6117   3.526   7.703   9.341 -0.2888  0.2007  0.0301
  383loPI   GL2 6118   3.411   8.070   9.315 -0.0407  0.0174 -0.0208
  383loPI   C1A 6119   3.683   7.652   8.876  0.3210  0.1569  0.2866
  383loPI   C2A 6120   3.879   7.710   8.564 -0.0388 -0.1335  0.0762
  383loPI   C3A 6121   3.901   7.804   8.158  0.0913  0.0342 -0.3356
  383loPI   C4A 6122   3.798   7.701   7.765 -0.3812  0.1284 -0.3603
  383loPI   C5A 6123   3.817   7.430   7.394 -0.1933 -0.0737  0.0869
  383loPI   C6A 6124   3.979   7.409   7.001  0.0436 -0.0207  0.2622
  383loPI   C1B 6125   3.386   7.997   8.818  0.0872  0.0734 -0.0668
  383loPI   C2B 6126   3.401   7.905   8.392 -0.3558  0.0793  0.0331
  383loPI   C3B 6127   3.542   8.090   7.986 -0.1154 -0.3488 -0.0911
  383loPI   C4B 6128   3.949   8.230   7.799 -0.0515  0.1161 -0.2212
  384loPI    C1 6129   8.449   2.736   9.472  0.0880 -0.1104  0.0127
  384loPI    C2 6130   8.337   2.786   9.853 -0.2563  0.0288 -0.1029
  384loPI    C3 6131   8.374   2.417   9.702 -0.2855 -0.0240  0.0177
  384loPI   PO4 6132   8.318   2.911   9.287  0.1237  0.1683  0.1387
  384loPI   GL1 6133   8.183   3.016   8.844 -0.0576  0.0715 -0.1687
  384loPI   GL2 6134   8.480   3.237   8.783  0.0965  0.2045  0.3432
  384loPI   C1A 6135   7.973   3.083   8.428 -0.1689  0.1585  0.2502
  384loPI   C2A 6136   8.115   3.290   8.074  0.1391 -0.1783  0.3706
  384loPI   C3A 6137   8.176   3.299   7.622 -0.0367  0.1802  0.0430
  384loPI   C4A 6138   8.206   3.186   7.178  0.2416 -0.2703  0.1040
  384loPI   C5A 6139   8.534   3.166   6.893  0.3326  0.1464  0.0384
  384loPI   C6A 6140   8.900   3.418   6.747 -0.1317 -0.4101  0.1765
  384loPI   C1B 6141   8.355   3.533   8.475 -0.1093 -0.3124 -0.2981
  384loPI   C2B 6142   8.449   3.674   8.063  0.2734  0.5538 -0.1365
  384loPI   C3B 6143   8.473   3.696   7.549  0.4851 -0.0831 -0.1188
  384loPI   C4B 6144   8.790   3.747   7.369  0.0033 -0.0430  0.2439
  385loPI    C1 6145   4.264  14.233   9.811 -0.0070  0.1767  0.0366
  385loPI    C2 6146   4.553  14.003   9.965  0.0534  0.0764 -0.2214
  385loPI    C3 6147   4.425  14.325  10.165  0.1241 -0.0552  0.0389
  385loPI   PO4 6148   4.364  14.265   9.559 -0.3838  0.0982  0.0508
  385loPI   GL1 6149   4.376  14.054   9.056  0.0455 -0.1193  0.2248
  385loPI   GL2 6150   4.733  14.157   9.143  0.3569 -0.0747  0.3337
  385loPI   C1A 6151   4.324  14.031   8.578  0.2106  0.0210 -0.1650
  385loPI   C2A 6152   4.635  14.002   8.211  0.1052 -0.0597 -0.1009
  385loPI   C3A 6153   4.696  13.844   7.869  0.0072 -0.1351  0.0762
  385loPI   C4A 6154   4.517  13.456   7.566  0.0479  0.2039  0.0144
  385loPI   C5A 6155   4.297  13.091   7.549 -0.0818 -0.1474 -0.1345
  385loPI   C6A 6156   4.203  12.736   7.335  0.0655 -0.2546  0.0903
  385loPI   C1B 6157   4.799  14.049   8.689  0.1604  0.2691  0.2865
  385loPI   C2B 6158   4.979  13.716   8.466 -0.1978 -0.4144  0.4646
  385loPI   C3B 6159   4.923  13.487   8.161  0.2623 -0.1650 -0.2545
  385loPI   C4B 6160   4.828  13.174   7.835 -0.3422 -0.0103  0.2277
  386loPI    C1 6161  17.866  13.700  10.159  0.1340 -0.0296  0.1337
  386loPI    C2 6162  17.826  13.510  10.508 -0.3135  0.0125  0.1111
  386loPI    C3 6163  17.634  13.855  10.446 -0.0292  0.1386 -0.0855
  386loPI   PO4 6164  17.671  13.534   9.964  0.0549 -0.0571  0.0085
  386loPI   GL1 6165  17.777  13.155   9.684  0.0736  0.5161  0.0332
  386loPI   GL2 6166  17.790  12.827   9.774 -0.1180  0.0603 -0.0654
  386loPI   C1A 6167  17.716  13.196   9.292  0.5391 -0.1927 -0.0166
  386loPI   C2A 6168  17.594  13.241   8.921  0.3339  0.2407 -0.0777
  386loPI   C3A 6169  17.608  13.250   8.490 -0.0069 -0.1045 -0.3330
  386loPI   C4A 6170  17.662  13.089   8.094 -0.0180 -0.0130 -0.1126
  386loPI   C5A 6171  17.504  13.037   7.799  0.0678 -0.2442  0.0262
  386loPI   C6A 6172  17.190  13.328   7.636 -0.0392 -0.0891 -0.1030
  386loPI   C1B 6173  17.446  12.855   9.488  0.3771  0.2788  0.1392
  386loPI   C2B 6174  17.415  12.724   9.043 -0.0111  0.0192 -0.0597
  386loPI   C3B 6175  17.605  12.488   8.684 -0.1370  0.0700 -0.2341
  386loPI   C4B 6176  17.874  12.426   8.365  0.0372  0.1786  0.2277
  387loPI    C1 6177   3.918   9.749  10.225  0.1790 -0.0940  0.0026
  387loPI    C2 6178   3.991   9.754  10.618  0.3465 -0.1001 -0.0277
  387loPI    C3 6179   4.290   9.690  10.360  0.2480 -0.0361 -0.1589
  387loPI   PO4 6180   3.572   9.779  10.261 -0.1453 -0.1391  0.1307
  387loPI   GL1 6181   3.415   9.903   9.962 -0.1138  0.0468 -0.2035
  387loPI   GL2 6182   3.190   9.680   9.961  0.1822 -0.2285 -0.1883
  387loPI   C1A 6183   3.527  10.088   9.535 -0.4504 -0.1965  0.0534
  387loPI   C2A 6184   3.783  10.077   9.216  0.1505  0.0223  0.3265
  387loPI   C3A 6185   3.883  10.073   8.840 -0.4816 -0.0898 -0.0636
  387loPI   C4A 6186   4.009  10.171   8.446 -0.0619 -0.0935 -0.1277
  387loPI   C5A 6187   4.088  10.438   8.016 -0.1872 -0.5339 -0.1034
  387loPI   C6A 6188   3.731  10.707   7.786 -0.0427  0.1705  0.2144
  387loPI   C1B 6189   3.366   9.592   9.518  0.4204  0.0064  0.1766
  387loPI   C2B 6190   3.423   9.682   9.038  0.1875 -0.1343 -0.1105
  387loPI   C3B 6191   3.460   9.901   8.641 -0.3939 -0.0870 -0.1458
  387loPI   C4B 6192   3.534   9.989   8.178  0.0697 -0.4294  0.0159
  388loPI    C1 6193   5.434   3.541   9.978  0.0566 -0.0157  0.1338
  388loPI    C2 6194   5.386   3.148  10.038 -0.0705  0.0233  0.2969
  388loPI    C3 6195   5.738   3.321  10.117  0.1007 -0.1199 -0.1222
  388loPI   PO4 6196   5.449   3.688   9.702  0.0480 -0.3186  0.0675
  388loPI   GL1 6197   5.462   3.694   9.328  0.2234  0.2691 -0.3290
  388loPI   GL2 6198   5.631   3.455   9.191 -0.0860 -0.1948  0.1118
  388loPI   C1A 6199   5.572   3.945   8.972 -0.0691  0.1191  0.3054
  388loPI   C2A 6200   5.619   3.895   8.605 -0.1156  0.2678  0.2788
  388loPI   C3A 6201   5.826   3.653   8.231 -0.1276 -0.1678  0.2449
  388loPI   C4A 6202   5.945   3.733   7.796  0.4384  0.1205 -0.3586
  388loPI   C5A 6203   6.035   3.500   7.451  0.2367  0.0789 -0.1864
  388loPI   C6A 6204   6.360   3.405   7.244  0.2013 -0.2705 -0.3234
  388loPI   C1B 6205   5.822   3.319   8.800  0.3648  0.0674  0.2811
  388loPI   C2B 6206   6.121   3.291   8.297 -0.1253  0.0432 -0.3460
  388loPI   C3B 6207   6.307   3.424   7.889  0.0054  0.1061  0.3804
  388loPI   C4B 6208   6.451   3.716   7.717 -0.0724  0.0449 -0.1460
  389loPI    C1 6209  12.156  12.190  10.050  0.2128 -0.2734  0.0537
  389loPI    C2 6210  12.308  11.941  10.323 -0.0364 -0.2653  0.2027
  389loPI    C3 6211  12.261  12.328  10.410  0.2462 -0.1851  0.0103
  389loPI   PO4 6212  12.273  12.074   9.779 -0.0774 -0.2312 -0.1871
  389loPI   GL1 6213  12.352  12.345   9.409  0.0138  0.0680 -0.1011
  389loPI   GL2 6214  12.652  12.365   9.612  0.0471  0.1835  0.0147
  389loPI   C1A 6215  12.636  11.967   9.172  0.1071 -0.4207  0.2566
  389loPI   C2A 6216  12.754  11.860   8.723  0.1088  0.2326  0.0434
  389loPI   C3A 6217  12.853  11.817   8.311 -0.0611 -0.0135  0.1450
  389loPI   C4A 6218  13.093  11.861   7.919  0.0426  0.2942  0.2872
  389loPI   C5A 6219  13.410  12.020   7.610 -0.2020 -0.2511 -0.1385
  389loPI   C6A 6220  13.469  12.296   7.310 -0.0348 -0.2920  0.1991
  389loPI   C1B 6221  13.014  12.287   9.380 -0.3289  0.0603 -0.3547
  389loPI   C2B 6222  13.094  12.159   9.023  0.0609  0.3548  0.2318
  389loPI   C3B 6223  12.994  12.296   8.693 -0.0967 -0.0900  0.1726
  389loPI   C4B 6224  13.062  12.436   8.260  0.2576 -0.1412  0.2211
  390loPI    C1 6225  14.443  15.646  10.524  0.0250  0.0397  0.1702
  390loPI    C2 6226  14.368  16.020  10.645 -0.1522  0.0015  0.1818
  390loPI    C3 6227  14.606  15.783  10.862  0.3973  0.2763 -0.0966
  390loPI   PO4 6228  14.429  15.620  10.299  0.2943 -0.2370  0.2287
  390loPI   GL1 6229  14.656  15.520   9.876  0.0263  0.2431  0.0262
  390loPI   GL2 6230  14.477  15.258   9.743  0.1346  0.2179  0.3712
  390loPI   C1A 6231  14.568  15.765   9.579 -0.0612 -0.3483 -0.1493
  390loPI   C2A 6232  14.482  15.775   9.040  0.2106 -0.0152  0.1687
  390loPI   C3A 6233  14.585  15.818   8.610 -0.2084 -0.1458  0.1027
  390loPI   C4A 6234  14.474  15.839   8.185 -0.2305  0.0220  0.0115
  390loPI   C5A 6235  14.332  15.650   7.818 -0.1405 -0.1454  0.1960
  390loPI   C6A 6236  14.101  15.657   7.344  0.4872 -0.1703 -0.0998
  390loPI   C1B 6237  14.427  15.379   9.327  0.1402  0.2269  0.1045
  390loPI   C2B 6238  14.417  15.286   8.831  0.0374 -0.0850 -0.0308
  390loPI   C3B 6239  14.305  15.314   8.479 -0.2442  0.1548 -0.0309
  390loPI   C4B 6240  14.300  15.210   8.059  0.0465  0.0608 -0.2486
  391loPI    C1 6241  14.496  14.748  10.589 -0.1685  0.0134 -0.2591
  391loPI    C2 6242  14.149  14.866  10.748  0.0159 -0.0189  0.1802
  391loPI    C3 6243  14.474  15.095  10.786  0.1202 -0.1458  0.0634
  391loPI   PO4 6244  14.463  14.612  10.348 -0.3522  0.0216 -0.1523
  391loPI   GL1 6245  14.523  14.652   9.964 -0.0615 -0.0449  0.0342
  391loPI   GL2 6246  14.732  14.423   9.777 -0.0264  0.1483  0.0454
  391loPI   C1A 6247  14.318  14.564   9.499 -0.2048  0.1318 -0.2038
  391loPI   C2A 6248  14.325  14.525   9.088 -0.1904 -0.1610 -0.1356
  391loPI   C3A 6249  14.432  14.492   8.683  0.3433  0.0654 -0.1012
  391loPI   C4A 6250  14.476  14.499   8.271  0.0552  0.0390 -0.0929
  391loPI   C5A 6251  14.658  14.620   7.897  0.1320  0.0046 -0.2766
  391loPI   C6A 6252  15.017  14.770   7.767  0.0349 -0.1480 -0.1485
  391loPI   C1B 6253  14.801  14.369   9.353 -0.2689 -0.0814  0.2094
  391loPI   C2B 6254  14.884  14.393   8.867  0.0762 -0.1468  0.3660
  391loPI   C3B 6255  14.873  14.344   8.459  0.2578 -0.1405 -0.1227
  391loPI   C4B 6256  14.938  14.287   8.010 -0.2699  0.0428  0.0985
  392loPI    C1 6257   5.885  16.324   9.584  0.3237  0.1287  0.0772
  392loPI    C2 6258   6.241  16.231   9.429  0.3067 -0.1139  0.1788
  392loPI    C3 6259   6.169  16.165   9.817  0.1248 -0.1422  0.1411
  392loPI   PO4 6260   5.716  16.277   9.414 -0.2541  0.0647 -0.1074
  392loPI   GL1 6261   5.678  16.195   8.903  0.0386  0.0951 -0.2272
  392loPI   GL2 6262   5.799  16.426   8.718  0.3767 -0.0688  0.3404
  392loPI   C1A 6263   5.953  15.868   8.748 -0.0534 -0.2941 -0.0148
  392loPI   C2A 6264   6.045  15.591   8.320  0.0222  0.3233 -0.1308
  392loPI   C3A 6265   5.873  15.352   7.887 -0.0358  0.1469  0.0655
  392loPI   C4A 6266   5.670  15.306   7.514 -0.2185 -0.2511 -0.3527
  392loPI   C5A 6267   5.500  15.327   7.246  0.0200 -0.3955  0.0557
  392loPI   C6A 6268   5.472  15.134   6.882 -0.0558 -0.0567  0.0381
  392loPI   C1B 6269   6.023  16.294   8.429  0.4055 -0.3765 -0.2782
  392loPI   C2B 6270   6.219  16.107   8.136  0.3033 -0.1471  0.0046
  392loPI   C3B 6271   6.368  16.157   7.619  0.1267  0.0825 -0.0286
  392loPI   C4B 6272   6.385  15.964   7.179  0.0875  0.2646  0.0327
  393loPI    C1 6273  18.578  16.049  10.265 -0.1309 -0.1644  0.2729
  393loPI    C2 6274  18.372  16.349  10.429  0.0169  0.0585  0.0575
  393loPI    C3 6275  18.771  16.349  10.446  0.0257 -0.0151 -0.1299
  393loPI   PO4 6276  18.524  16.067   9.976 -0.1410 -0.2968  0.0270
  393loPI   GL1 6277  18.407  15.901   9.618 -0.0245 -0.0138 -0.2574
  393loPI   GL2 6278  18.701  15.898   9.490  0.0658  0.0245 -0.0426
  393loPI   C1A 6279  18.261  15.990   9.168 -0.1729 -0.1301  0.0273
  393loPI   C2A 6280  18.161  15.897   8.746 -0.1909 -0.2050 -0.1108
  393loPI   C3A 6281  17.951  15.792   8.412 -0.0360  0.1633 -0.2387
  393loPI   C4A 6282  17.689  15.804   7.996 -0.0222  0.1616  0.2973
  393loPI   C5A 6283  17.576  16.193   7.736  0.2243 -0.1472 -0.1495
  393loPI   C6A 6284  17.920  16.475   7.619 -0.1105  0.3066 -0.1984
  393loPI   C1B 6285  18.689  16.015   8.995 -0.0232  0.0026  0.2605
  393loPI   C2B 6286  18.630  16.072   8.547 -0.0668 -0.0763 -0.4947
  393loPI   C3B 6287  18.391  16.008   8.202  0.1626 -0.1052  0.1961
  393loPI   C4B 6288  18.304  16.223   7.830 -0.2607 -0.1345  0.2168
  394loPI    C1 6289   0.089   2.449   9.608 -0.0817  0.1135 -0.1358
  394loPI    C2 6290  -0.221   2.350   9.840 -0.1782  0.3198 -0.1742
  394loPI    C3 6291   0.092   2.543   9.996  0.0610 -0.1338 -0.0747
  394loPI   PO4 6292   0.083   2.234   9.369 -0.3131  0.2531  0.1240
  394loPI   GL1 6293  -0.031   2.076   9.045 -0.1033  0.0381  0.1096
  394loPI   GL2 6294   0.091   2.328   8.897 -0.2178 -0.1588  0.3137
  394loPI   C1A 6295   0.093   1.767   8.791 -0.0168  0.1710 -0.1237
  394loPI   C2A 6296   0.249   1.666   8.298  0.3004 -0.1072  0.1458
  394loPI   C3A 6297   0.135   1.688   7.862  0.3476  0.0603  0.2141
  394loPI   C4A 6298  -0.008   1.758   7.473  0.1629  0.2628 -0.0008
  394loPI   C5A 6299  -0.346   2.042   7.293 -0.1600  0.0198  0.2475
  394loPI   C6A 6300  -0.617   2.270   7.070 -0.4654 -0.2422 -0.0518
  394loPI   C1B 6301   0.331   2.134   8.515 -0.3620  0.0628  0.0981
  394loPI   C2B 6302   0.421   2.120   7.995 -0.0188  0.2960 -0.2149
  394loPI   C3B 6303   0.550   1.953   7.594  0.1251  0.2692 -0.1644
  394loPI   C4B 6304   0.417   1.754   7.090 -0.1767  0.1671 -0.1053
  395loPI    C1 6305  15.771  15.443  10.893  0.1213  0.1761 -0.0496
  395loPI    C2 6306  16.057  15.165  10.928  0.0306  0.0577 -0.2327
  395loPI    C3 6307  15.696  15.102  11.089  0.0585  0.1379 -0.1387
  395loPI   PO4 6308  15.895  15.616  10.662 -0.1557 -0.2643 -0.0687
  395loPI   GL1 6309  15.723  15.630  10.191  0.2364  0.4464 -0.0588
  395loPI   GL2 6310  15.627  15.236   9.996 -0.3785 -0.3439  0.1891
  395loPI   C1A 6311  15.792  15.719   9.755  0.1254  0.0618  0.0698
  395loPI   C2A 6312  15.687  15.554   9.439  0.1970  0.1515  0.0758
  395loPI   C3A 6313  15.412  15.606   9.045  0.1578  0.1041  0.0936
  395loPI   C4A 6314  15.316  15.647   8.632  0.1701  0.2535  0.0946
  395loPI   C5A 6315  14.994  15.836   8.287 -0.3248  0.0748  0.2896
  395loPI   C6A 6316  14.885  15.693   7.829  0.2542  0.0074 -0.3338
  395loPI   C1B 6317  15.429  15.157   9.593  0.1607 -0.0153 -0.0067
  395loPI   C2B 6318  15.394  15.092   9.224  0.1378  0.1166 -0.0073
  395loPI   C3B 6319  15.290  15.187   8.788  0.1091  0.1954  0.1476
  395loPI   C4B 6320  15.177  15.204   8.361  0.1962  0.0602 -0.0021
  396loPI    C1 6321   2.358  12.414  10.392  0.1149 -0.1975 -0.1705
  396loPI    C2 6322   2.522  12.583  10.069  0.0380 -0.1045 -0.1617
  396loPI    C3 6323   2.523  12.778  10.418 -0.0305 -0.1323 -0.1458
  396loPI   PO4 6324   2.179  12.215  10.250 -0.1280  0.1498  0.0125
  396loPI   GL1 6325   1.887  12.122   9.891 -0.1293 -0.0313  0.3221
  396loPI   GL2 6326   2.017  12.360   9.734 -0.1131 -0.1534 -0.1574
  396loPI   C1A 6327   1.886  11.757   9.508  0.3403  0.1013 -0.0237
  396loPI   C2A 6328   1.974  11.583   9.105  0.1397  0.5891  0.2225
  396loPI   C3A 6329   2.112  11.208   8.803  0.0606 -0.2849  0.1832
  396loPI   C4A 6330   2.141  10.768   8.639  0.1436  0.5052  0.0595
  396loPI   C5A 6331   1.922  10.529   8.314 -0.1605 -0.3369  0.0687
  396loPI   C6A 6332   1.907  10.586   7.828  0.1176  0.3353  0.4660
  396loPI   C1B 6333   2.245  12.184   9.394  0.2824  0.3670 -0.0971
  396loPI   C2B 6334   2.224  11.990   9.031 -0.1342 -0.0588  0.0024
  396loPI   C3B 6335   2.235  11.873   8.670  0.2408  0.1038  0.1184
  396loPI   C4B 6336   2.267  11.987   8.241 -0.2468  0.0502  0.1705
  397loPI    C1 6337  16.455   1.130   9.675  0.0002 -0.0192 -0.0499
  397loPI    C2 6338  16.589   0.807   9.870  0.0220 -0.0634 -0.1376
  397loPI    C3 6339  16.214   0.816   9.730 -0.0714  0.0630  0.1139
  397loPI   PO4 6340  16.536   1.270   9.517  0.0742 -0.1043 -0.1752
  397loPI   GL1 6341  16.558   1.356   9.167  0.1321  0.1145  0.0124
  397loPI   GL2 6342  16.731   1.598   9.077 -0.2887  0.2592 -0.2832
  397loPI   C1A 6343  16.599   1.177   8.729 -0.0843 -0.0936 -0.0478
  397loPI   C2A 6344  16.797   1.281   8.389  0.1548 -0.0095 -0.1122
  397loPI   C3A 6345  16.818   1.319   7.978  0.0907 -0.0982  0.0319
  397loPI   C4A 6346  16.565   1.075   7.650 -0.2873 -0.1429  0.0399
  397loPI   C5A 6347  16.585   0.642   7.626  0.0555 -0.1672 -0.1471
  397loPI   C6A 6348  16.417   0.290   7.685  0.2203  0.0059  0.1993
  397loPI   C1B 6349  16.794   1.739   8.673 -0.1836  0.0408  0.1680
  397loPI   C2B 6350  16.741   1.754   8.181 -0.0872  0.0609 -0.0237
  397loPI   C3B 6351  16.662   1.781   7.800 -0.0003 -0.0546  0.1071
  397loPI   C4B 6352  16.445   1.614   7.472 -0.0411  0.1300  0.1476
  398loPI    C1 6353  16.381   4.100   9.912 -0.3347 -0.0481 -0.1675
  398loPI    C2 6354  16.038   4.095  10.118 -0.1271 -0.0957  0.1842
  398loPI    C3 6355  16.315   3.813  10.183  0.0618  0.0560  0.0473
  398loPI   PO4 6356  16.356   4.315   9.782 -0.0064  0.1672  0.1569
  398loPI   GL1 6357  16.295   4.361   9.392 -0.2412  0.3553  0.2832
  398loPI   GL2 6358  16.209   4.639   9.434  0.0598  0.1731 -0.1201
  398loPI   C1A 6359  16.161   4.452   8.981  0.4624 -0.1002 -0.1467
  398loPI   C2A 6360  15.949   4.473   8.510  0.1463  0.1508 -0.0383
  398loPI   C3A 6361  15.861   4.523   8.007 -0.0546  0.2071 -0.0949
  398loPI   C4A 6362  16.069   4.389   7.595 -0.0698 -0.0992 -0.4476
  398loPI   C5A 6363  16.548   4.721   7.431 -0.1602 -0.1836 -0.0668
  398loPI   C6A 6364  16.850   4.887   7.194  0.0029  0.1203  0.0059
  398loPI   C1B 6365  16.513   4.836   9.267  0.1423  0.1111 -0.0814
  398loPI   C2B 6366  16.428   5.104   8.899 -0.0340  0.3972  0.0467
  398loPI   C3B 6367  16.032   5.098   8.663  0.0254 -0.3033 -0.1560
  398loPI   C4B 6368  15.910   5.388   8.338  0.0635  0.0422  0.0050
  399loPI    C1 6369   2.374   2.591   9.634 -0.4298  0.0153 -0.2991
  399loPI    C2 6370   2.439   2.949   9.798  0.2127 -0.2611  0.0888
  399loPI    C3 6371   2.126   2.729   9.916  0.1153 -0.0503  0.2313
  399loPI   PO4 6372   2.484   2.699   9.351  0.0818  0.0625 -0.2003
  399loPI   GL1 6373   2.768   2.785   9.076 -0.1331  0.0063 -0.0885
  399loPI   GL2 6374   3.118   2.679   9.127  0.1029  0.1217 -0.1221
  399loPI   C1A 6375   2.762   3.005   8.765  0.2626  0.2407  0.1217
  399loPI   C2A 6376   2.821   3.011   8.344  0.2979  0.3122  0.0446
  399loPI   C3A 6377   2.908   3.092   7.907 -0.1111 -0.1190 -0.1778
  399loPI   C4A 6378   3.005   3.179   7.537 -0.0136 -0.0605  0.1249
  399loPI   C5A 6379   2.822   3.134   7.135 -0.0959  0.0595 -0.1036
  399loPI   C6A 6380   2.864   2.826   6.949 -0.2739 -0.1077  0.4891
  399loPI   C1B 6381   3.075   2.541   8.725 -0.1613 -0.1168 -0.0752
  399loPI   C2B 6382   3.101   2.546   8.311  0.0070  0.0819 -0.0633
  399loPI   C3B 6383   3.112   2.680   7.978 -0.2801 -0.1989  0.5040
  399loPI   C4B 6384   3.040   2.698   7.512  0.2507 -0.4349 -0.1691
  400loPI    C1 6385  11.423  18.389  10.063  0.0411 -0.2787  0.3726
  400loPI    C2 6386  11.801  18.278  10.128  0.2961  0.2170 -0.1729
  400loPI    C3 6387  11.657  18.611  10.298  0.0560 -0.0388  0.1363
  400loPI   PO4 6388  11.381  18.399   9.784 -0.0707 -0.1508  0.0957
  400loPI   GL1 6389  11.516  18.316   9.417  0.2313  0.1584 -0.0390
  400loPI   GL2 6390  11.801  17.984   9.307 -0.4009  0.2602 -0.3590
  400loPI   C1A 6391  11.581  18.093   8.923  0.0874  0.0224  0.1007
  400loPI   C2A 6392  11.568  17.933   8.553 -0.1573 -0.0485  0.0618
  400loPI   C3A 6393  11.673  17.652   8.153  0.0131 -0.1298 -0.1456
  400loPI   C4A 6394  11.856  17.379   8.026 -0.0553  0.0766 -0.1238
  400loPI   C5A 6395  11.944  17.098   7.700  0.0159  0.1826 -0.2208
  400loPI   C6A 6396  12.259  17.010   7.357 -0.1076  0.0224  0.3663
  400loPI   C1B 6397  12.016  17.869   9.008 -0.4901  0.1196 -0.1512
  400loPI   C2B 6398  12.099  17.740   8.618 -0.1730 -0.1733  0.5596
  400loPI   C3B 6399  12.240  17.675   8.105 -0.0922  0.0257 -0.1874
  400loPI   C4B 6400  12.660  17.650   7.918 -0.1177  0.0747  0.4400
  401loPI    C1 6401  12.152  11.214   9.878 -0.0155 -0.3052  0.0190
  401loPI    C2 6402  11.948  11.507  10.059  0.3006 -0.0297 -0.0629
  401loPI    C3 6403  12.188  11.269  10.273  0.3082 -0.0079 -0.0471
  401loPI   PO4 6404  11.981  11.328   9.574  0.0182  0.0348  0.1588
  401loPI   GL1 6405  11.998  11.647   9.245 -0.2116 -0.2144 -0.0650
  401loPI   GL2 6406  11.773  11.396   9.136  0.1819  0.0284  0.0865
  401loPI   C1A 6407  12.147  11.727   8.806  0.0523 -0.4144 -0.0824
  401loPI   C2A 6408  12.377  12.048   8.467  0.1305  0.0574 -0.0677
  401loPI   C3A 6409  12.508  12.208   8.154  0.2055  0.0237 -0.0384
  401loPI   C4A 6410  12.782  12.373   7.799  0.0855 -0.0152  0.0359
  401loPI   C5A 6411  13.216  12.498   7.647 -0.2019  0.2755  0.0529
  401loPI   C6A 6412  13.442  12.834   7.571  0.0736  0.1423  0.3800
  401loPI   C1B 6413  11.835  11.304   8.705  0.0862 -0.1694  0.2078
  401loPI   C2B 6414  12.069  11.242   8.403 -0.2211  0.2121 -0.2017
  401loPI   C3B 6415  11.953  11.001   8.041 -0.4151 -0.3078  0.1465
  401loPI   C4B 6416  12.157  10.733   7.759 -0.0780  0.0911  0.0196
  402loPI    C1 6417  18.008   4.527   9.891 -0.0521 -0.0726 -0.0012
  402loPI    C2 6418  18.217   4.784  10.115 -0.0765 -0.0505 -0.0037
  402loPI    C3 6419  17.958   4.533  10.288 -0.3046  0.1606 -0.0335
  402loPI   PO4 6420  18.025   4.701   9.634  0.1629  0.3116  0.3730
  402loPI   GL1 6421  18.065   4.834   9.232 -0.0464  0.1593  0.3046
  402loPI   GL2 6422  17.797   4.652   9.083 -0.1451 -0.3006  0.0770
  402loPI   C1A 6423  17.973   5.129   8.925 -0.0653  0.1119 -0.0993
  402loPI   C2A 6424  18.029   5.271   8.406  0.1148  0.0658 -0.0290
  402loPI   C3A 6425  17.952   5.637   8.136  0.0666 -0.2272 -0.0882
  402loPI   C4A 6426  17.677   5.699   7.724  0.2259 -0.1934  0.2173
  402loPI   C5A 6427  17.629   6.077   7.482  0.1123  0.0541  0.1811
  402loPI   C6A 6428  17.647   6.537   7.437 -0.0906 -0.0553 -0.0295
  402loPI   C1B 6429  17.687   4.692   8.632  0.1219  0.0993  0.2816
  402loPI   C2B 6430  17.957   4.810   8.242 -0.0399  0.1895 -0.0327
  402loPI   C3B 6431  18.079   4.657   7.851  0.2170 -0.0292  0.1906
  402loPI   C4B 6432  18.081   4.711   7.423  0.0854 -0.0112 -0.0853
  403loPI    C1 6433   0.724  18.449   9.821 -0.0112  0.1442  0.0819
  403loPI    C2 6434   0.469  18.211   9.624  0.0611  0.1501 -0.0200
  403loPI    C3 6435   0.372  18.354   9.985 -0.1150  0.2192 -0.0933
  403loPI   PO4 6436   0.823  18.617   9.608  0.0607 -0.1647  0.3862
  403loPI   GL1 6437   1.017  18.410   9.190 -0.0330 -0.0974 -0.0758
  403loPI   GL2 6438   0.925  18.149   9.341  0.0139 -0.2078  0.1246
  403loPI   C1A 6439   1.089  18.351   8.777 -0.1658  0.2667 -0.1331
  403loPI   C2A 6440   1.126  18.423   8.264  0.0959  0.0039  0.0764
  403loPI   C3A 6441   1.149  18.659   7.788  0.2234 -0.1418 -0.4409
  403loPI   C4A 6442   1.004  18.438   7.348 -0.0709 -0.2720 -0.1110
  403loPI   C5A 6443   0.800  18.363   6.927 -0.0011  0.0218 -0.0754
  403loPI   C6A 6444   1.026  18.427   6.563  0.3054  0.0669  0.2495
  403loPI   C1B 6445   1.146  17.887   9.006  0.0990  0.0784 -0.0301
  403loPI   C2B 6446   1.049  17.850   8.571 -0.1210 -0.2468  0.1464
  403loPI   C3B 6447   1.054  17.792   8.218 -0.1280  0.3949 -0.1425
  403loPI   C4B 6448   0.732  17.738   7.874 -0.3055 -0.0715  0.0971
  404loPI    C1 6449   4.632   5.998   9.875  0.0564  0.0921  0.1834
  404loPI    C2 6450   4.872   6.030  10.193 -0.1495 -0.0284  0.3541
  404loPI    C3 6451   4.486   5.938  10.243 -0.2157  0.0894  0.0776
  404loPI   PO4 6452   4.642   6.202   9.683 -0.3304  0.0503 -0.2944
  404loPI   GL1 6453   4.641   6.406   9.319 -0.0129 -0.0498 -0.0006
  404loPI   GL2 6454   4.495   6.173   9.130 -0.0948  0.0535  0.0371
  404loPI   C1A 6455   4.566   6.571   8.865 -0.1325  0.0733 -0.1401
  404loPI   C2A 6456   4.536   6.693   8.444 -0.0757 -0.1870  0.2357
  404loPI   C3A 6457   4.484   6.548   8.036  0.0090 -0.0538 -0.2312
  404loPI   C4A 6458   4.657   6.522   7.599 -0.0352  0.1862 -0.1064
  404loPI   C5A 6459   5.000   6.403   7.280 -0.0896  0.2905 -0.2221
  404loPI   C6A 6460   5.181   6.033   7.081 -0.1789 -0.1453 -0.3358
  404loPI   C1B 6461   4.425   6.068   8.774 -0.0427 -0.3571 -0.1886
  404loPI   C2B 6462   4.420   6.099   8.337  0.1102 -0.0615  0.3052
  404loPI   C3B 6463   4.364   5.944   8.056  0.0104 -0.0281  0.3051
  404loPI   C4B 6464   4.309   6.100   7.711  0.0842 -0.2743 -0.0470
  405loPI    C1 6465  16.449  10.554  10.072  0.0356  0.0359 -0.0166
  405loPI    C2 6466  16.539  10.758  10.403 -0.0387 -0.1415  0.1150
  405loPI    C3 6467  16.379  10.393  10.432 -0.1319 -0.1201 -0.1171
  405loPI   PO4 6468  16.720  10.486   9.908  0.1300  0.0267 -0.0275
  405loPI   GL1 6469  16.945  10.817   9.518  0.0669  0.1612  0.1953
  405loPI   GL2 6470  17.396  10.795   9.555  0.0976  0.0399 -0.1528
  405loPI   C1A 6471  16.931  10.971   9.024 -0.1739  0.2265  0.1368
  405loPI   C2A 6472  17.150  11.102   8.719  0.0730 -0.2427  0.0777
  405loPI   C3A 6473  17.301  10.837   8.385  0.2348  0.1101 -0.2316
  405loPI   C4A 6474  17.231  10.737   7.880 -0.1880 -0.2118  0.1657
  405loPI   C5A 6475  17.379  10.623   7.409 -0.0115  0.0013 -0.2806
  405loPI   C6A 6476  17.817  10.749   7.273 -0.0468 -0.1916 -0.0113
  405loPI   C1B 6477  17.389  10.959   9.218 -0.1405  0.0183  0.0202
  405loPI   C2B 6478  17.426  10.766   8.955 -0.0603 -0.1709 -0.3312
  405loPI   C3B 6479  17.652  10.509   8.602  0.0322 -0.2015  0.2150
  405loPI   C4B 6480  17.539  10.450   8.197  0.2268 -0.1319  0.1017
  406loPI    C1 6481   6.919  12.084   9.819  0.0745 -0.0220 -0.0615
  406loPI    C2 6482   7.045  12.442   9.945 -0.1097 -0.0513  0.2136
  406loPI    C3 6483   7.148  12.112  10.145  0.1268 -0.1637 -0.0857
  406loPI   PO4 6484   6.622  12.146   9.788  0.0758  0.1589  0.2108
  406loPI   GL1 6485   6.436  12.160   9.333  0.2028 -0.1630 -0.2646
  406loPI   GL2 6486   6.576  11.787   9.457 -0.1216 -0.2089  0.0147
  406loPI   C1A 6487   6.591  12.073   8.888  0.0313 -0.0854  0.2213
  406loPI   C2A 6488   6.675  12.032   8.447 -0.1048 -0.2259  0.3643
  406loPI   C3A 6489   6.793  11.901   8.018  0.0978 -0.4630 -0.0645
  406loPI   C4A 6490   6.909  11.806   7.633 -0.1601 -0.0012 -0.2517
  406loPI   C5A 6491   7.208  11.655   7.144  0.0927  0.0043 -0.1539
  406loPI   C6A 6492   7.543  11.405   7.198  0.2899  0.1871 -0.2970
  406loPI   C1B 6493   6.667  11.585   9.186 -0.1710  0.1458 -0.0850
  406loPI   C2B 6494   6.697  11.536   8.755 -0.0567 -0.2256 -0.2110
  406loPI   C3B 6495   6.834  11.372   8.433 -0.2247 -0.0142  0.0402
  406loPI   C4B 6496   7.028  11.132   8.231 -0.0881  0.2249 -0.0477
  407loPI    C1 6497   1.698  18.765  10.039  0.0226 -0.1510 -0.1272
  407loPI    C2 6498   1.301  18.802  10.061  0.0405  0.0960 -0.1894
  407loPI    C3 6499   1.509  18.684  10.382 -0.0858 -0.0734 -0.1683
  407loPI   PO4 6500   1.719  18.632   9.767  0.3262  0.1031  0.1950
  407loPI   GL1 6501   1.724  18.440   9.366 -0.0158 -0.0347  0.1277
  407loPI   GL2 6502   1.990  18.261   9.428  0.0201  0.1311  0.0493
  407loPI   C1A 6503   1.497  18.564   9.000 -0.0787 -0.1331 -0.2004
  407loPI   C2A 6504   1.399  18.750   8.624  0.0190 -0.4312 -0.0448
  407loPI   C3A 6505   1.433  18.992   8.188  0.2397  0.1876 -0.1415
  407loPI   C4A 6506   1.614  18.959   7.823 -0.0060 -0.3415 -0.0330
  407loPI   C5A 6507   1.988  18.764   7.584 -0.4421 -0.0859  0.0210
  407loPI   C6A 6508   1.951  18.522   7.201 -0.0169  0.2164  0.1406
  407loPI   C1B 6509   2.153  18.104   9.078 -0.0275 -0.0639 -0.2504
  407loPI   C2B 6510   2.076  18.013   8.678 -0.0236  0.1625 -0.0592
  407loPI   C3B 6511   2.327  17.885   8.327 -0.1628 -0.0168 -0.1440
  407loPI   C4B 6512   2.653  17.826   8.112  0.2393  0.1476  0.0832
  408loPI    C1 6513  11.427  10.691  10.161  0.1811 -0.2166  0.0033
  408loPI    C2 6514  11.034  10.714  10.232  0.1559 -0.1305 -0.1611
  408loPI    C3 6515  11.273  11.021  10.325  0.1521 -0.0970 -0.2603
  408loPI   PO4 6516  11.434  10.688   9.891  0.1482  0.0913 -0.2227
  408loPI   GL1 6517  11.252  10.665   9.489 -0.0678  0.0248 -0.2173
  408loPI   GL2 6518  11.497  10.931   9.432 -0.3069  0.0123 -0.4050
  408loPI   C1A 6519  11.371  10.494   9.051  0.1737  0.4929 -0.4368
  408loPI   C2A 6520  11.157  10.216   8.849  0.0093  0.0094 -0.0512
  408loPI   C3A 6521  10.993  10.409   8.455  0.2355  0.1357  0.1752
  408loPI   C4A 6522  11.089  10.511   8.134 -0.0160 -0.0598  0.1607
  408loPI   C5A 6523  11.190  10.691   7.731  0.1951  0.2737 -0.3419
  408loPI   C6A 6524  11.216  10.790   7.288 -0.2590  0.5465 -0.0642
  408loPI   C1B 6525  11.555  10.996   9.066  0.0112  0.0377 -0.1778
  408loPI   C2B 6526  11.545  10.772   8.707 -0.1659 -0.3564  0.1425
  408loPI   C3B 6527  11.469  10.440   8.442  0.0164 -0.3557 -0.0598
  408loPI   C4B 6528  11.640  10.302   8.137  0.0970  0.0696 -0.0113
  409loPI    C1 6529   6.665  13.883   9.895 -0.0545  0.1984 -0.0859
  409loPI    C2 6530   6.767  14.253  10.009 -0.0135  0.2376 -0.2467
  409loPI    C3 6531   7.050  13.975   9.956 -0.0283  0.2311 -0.2925
  409loPI   PO4 6532   6.548  13.893   9.658 -0.1885  0.1067  0.2196
  409loPI   GL1 6533   6.352  13.923   9.239 -0.0959 -0.2391 -0.0592
  409loPI   GL2 6534   6.663  13.625   9.272  0.0312  0.0340 -0.2876
  409loPI   C1A 6535   6.207  13.681   8.864 -0.1690 -0.0319  0.1433
  409loPI   C2A 6536   6.047  13.560   8.512  0.2449  0.0112 -0.1073
  409loPI   C3A 6537   5.545  13.658   8.334 -0.1145  0.3762 -0.2319
  409loPI   C4A 6538   5.325  13.533   7.928  0.0968  0.7231 -0.0801
  409loPI   C5A 6539   5.006  13.588   7.448  0.0777  0.1081 -0.1960
  409loPI   C6A 6540   4.774  13.958   7.383 -0.0260 -0.1970  0.1241
  409loPI   C1B 6541   6.674  13.670   8.886  0.0831  0.1306 -0.5151
  409loPI   C2B 6542   6.493  13.803   8.441  0.2161 -0.1293  0.3477
  409loPI   C3B 6543   6.074  13.844   8.087 -0.3812 -0.1534  0.1106
  409loPI   C4B 6544   5.994  14.086   7.687  0.0300  0.0368  0.1977
  410loPI    C1 6545  11.833   9.646  10.274  0.1150  0.0183 -0.0551
  410loPI    C2 6546  11.661   9.842  10.578  0.0533  0.0194 -0.0906
  410loPI    C3 6547  11.978   9.608  10.645  0.0836  0.0755 -0.0368
  410loPI   PO4 6548  11.787   9.805  10.073  0.0942  0.2536  0.0156
  410loPI   GL1 6549  11.622   9.868   9.604 -0.1398 -0.1576  0.0090
  410loPI   GL2 6550  11.351   9.745   9.687 -0.1450 -0.1420  0.4321
  410loPI   C1A 6551  11.709   9.951   9.092  0.0789 -0.1489  0.3688
  410loPI   C2A 6552  11.497   9.899   8.711  0.3962  0.0698 -0.1387
  410loPI   C3A 6553  11.378   9.949   8.337 -0.0373  0.1129 -0.0303
  410loPI   C4A 6554  11.250  10.076   7.890 -0.0646  0.2322 -0.0800
  410loPI   C5A 6555  11.539  10.175   7.544  0.1286 -0.1569 -0.1023
  410loPI   C6A 6556  11.781  10.440   7.563 -0.2444  0.3269 -0.2017
  410loPI   C1B 6557  11.152   9.635   9.339  0.2627  0.3718 -0.1439
  410loPI   C2B 6558  11.099   9.706   8.897 -0.0108 -0.4927 -0.1242
  410loPI   C3B 6559  11.075   9.510   8.491 -0.0040 -0.0413  0.1703
  410loPI   C4B 6560  11.144   9.238   8.277  0.2466 -0.0261  0.1399
  411loPI    C1 6561   2.192  18.414   9.851  0.0164 -0.2169  0.0977
  411loPI    C2 6562   2.205  18.697  10.133 -0.0307 -0.0598 -0.0566
  411loPI    C3 6563   2.261  18.314  10.232 -0.4722 -0.0563  0.2354
  411loPI   PO4 6564   2.337  18.585   9.651  0.2205  0.3587 -0.1822
  411loPI   GL1 6565   2.543  18.430   9.323  0.3323 -0.1112 -0.2114
  411loPI   GL2 6566   2.585  18.238   9.329  0.4522 -0.3185  0.1903
  411loPI   C1A 6567   2.530  18.399   8.869  0.2496  0.2246 -0.3455
  411loPI   C2A 6568   2.403  18.389   8.417 -0.0825 -0.0966  0.0224
  411loPI   C3A 6569   2.224  18.351   8.088 -0.4189 -0.0894 -0.1833
  411loPI   C4A 6570   1.909  18.248   7.719 -0.2170 -0.2425  0.2781
  411loPI   C5A 6571   1.408  18.177   7.557  0.2004  0.2524  0.2149
  411loPI   C6A 6572   1.078  18.150   7.842  0.0492  0.2384  0.0118
  411loPI   C1B 6573   3.013  18.292   9.077  0.4127 -0.1209  0.0169
  411loPI   C2B 6574   2.976  18.231   8.659  0.0050 -0.1315  0.2558
  411loPI   C3B 6575   3.032  18.099   8.269 -0.0181 -0.3222  0.0160
  411loPI   C4B 6576   3.203  18.337   7.896 -0.4021  0.2044 -0.0362
  412loPI    C1 6577   1.804   5.270   9.443 -0.0522 -0.0381  0.0543
  412loPI    C2 6578   1.430   5.199   9.563 -0.1813  0.2382 -0.1708
  412loPI    C3 6579   1.703   5.330   9.825 -0.2490  0.0681 -0.0130
  412loPI   PO4 6580   1.839   5.278   9.159  0.2736  0.1594  0.0083
  412loPI   GL1 6581   1.654   5.213   8.809 -0.2012 -0.0909 -0.1327
  412loPI   GL2 6582   1.313   5.403   8.671 -0.3480  0.1114  0.0128
  412loPI   C1A 6583   1.688   4.865   8.513 -0.1462 -0.0867  0.0628
  412loPI   C2A 6584   1.658   4.835   8.060  0.1178 -0.2275 -0.2579
  412loPI   C3A 6585   1.736   4.734   7.558 -0.2351  0.1405 -0.2950
  412loPI   C4A 6586   1.966   4.904   7.226  0.0074 -0.1272  0.2721
  412loPI   C5A 6587   2.199   5.300   7.251  0.5653  0.0850  0.3614
  412loPI   C6A 6588   2.352   5.676   7.136 -0.0267  0.0420  0.3033
  412loPI   C1B 6589   1.045   5.384   8.446  0.1437  0.1793  0.0595
  412loPI   C2B 6590   0.942   5.584   8.028 -0.1855 -0.2412  0.1525
  412loPI   C3B 6591   0.517   5.600   7.975  0.1481  0.5575 -0.0344
  412loPI   C4B 6592   0.126   5.596   8.001 -0.1056  0.1250 -0.3233
  413loPI    C1 6593  18.681   1.967   9.567 -0.2286  0.1274  0.2287
  413loPI    C2 6594  18.434   1.689   9.714 -0.0437 -0.1317  0.0565
  413loPI    C3 6595  18.744   1.817   9.932 -0.0506 -0.1607  0.0834
  413loPI   PO4 6596  18.716   1.802   9.310  0.0459 -0.1984 -0.2245
  413loPI   GL1 6597  18.621   1.881   8.876  0.2080 -0.1480  0.0762
  413loPI   GL2 6598  18.497   2.127   9.051 -0.1279 -0.0350  0.1647
  413loPI   C1A 6599  18.664   1.810   8.358  0.0922  0.0727 -0.0456
  413loPI   C2A 6600  18.678   1.812   7.959 -0.0506 -0.2230  0.3813
  413loPI   C3A 6601  18.590   1.628   7.645 -0.3118 -0.0800  0.2058
  413loPI   C4A 6602  18.226   1.541   7.439 -0.1065 -0.0715 -0.2390
  413loPI   C5A 6603  18.034   1.868   7.233 -0.1189 -0.1678  0.0821
  413loPI   C6A 6604  17.908   2.336   7.197  0.1699  0.2501  0.1329
  413loPI   C1B 6605  18.200   2.158   8.755  0.0431  0.0959  0.0392
  413loPI   C2B 6606  18.171   1.969   8.398  0.2925  0.2139  0.1409
  413loPI   C3B 6607  18.166   1.970   7.906 -0.0147 -0.0409 -0.2586
  413loPI   C4B 6608  18.272   2.126   7.575 -0.1382  0.0856  0.1114
  414loPI    C1 6609   1.715   1.395   9.931 -0.0018  0.0039  0.0269
  414loPI    C2 6610   1.539   1.696   9.734 -0.0630  0.0222  0.1089
  414loPI    C3 6611   1.811   1.774  10.017  0.0416 -0.0047  0.0165
  414loPI   PO4 6612   1.749   1.208   9.718  0.2387 -0.3349  0.0538
  414loPI   GL1 6613   1.520   1.257   9.309  0.0746  0.1371 -0.2774
  414loPI   GL2 6614   1.720   1.419   9.210 -0.2425  0.0673 -0.0472
  414loPI   C1A 6615   1.334   1.255   8.885 -0.0952  0.0590 -0.1625
  414loPI   C2A 6616   1.482   1.273   8.488 -0.1414 -0.0923  0.1227
  414loPI   C3A 6617   1.582   1.412   8.118  0.1072 -0.1556 -0.1712
  414loPI   C4A 6618   1.578   1.547   7.711 -0.1128 -0.1212 -0.3726
  414loPI   C5A 6619   1.318   1.519   7.394  0.1482  0.1302 -0.0412
  414loPI   C6A 6620   1.264   1.769   7.026 -0.0408  0.3384  0.0845
  414loPI   C1B 6621   1.912   1.556   8.890  0.1505  0.3464  0.3077
  414loPI   C2B 6622   2.059   1.444   8.475 -0.0431  0.3345 -0.0001
  414loPI   C3B 6623   2.081   1.523   8.073 -0.0628  0.1449  0.0112
  414loPI   C4B 6624   2.274   1.369   7.783  0.5142  0.2157  0.2539
  415loPI    C1 6625  18.258  14.894  10.002 -0.2168 -0.3852 -0.4257
  415loPI    C2 6626  17.940  14.769  10.211 -0.1875  0.2489  0.0255
  415loPI    C3 6627  18.308  14.728  10.362 -0.1189  0.2268 -0.1453
  415loPI   PO4 6628  18.205  14.952   9.756 -0.1830  0.2418  0.0074
  415loPI   GL1 6629  18.375  14.901   9.407  0.1176  0.2427  0.2437
  415loPI   GL2 6630  18.701  15.003   9.334  0.1185 -0.2891  0.1156
  415loPI   C1A 6631  18.162  14.779   9.132  0.0502  0.1148  0.2926
  415loPI   C2A 6632  17.921  14.562   8.732  0.0556  0.1065 -0.0399
  415loPI   C3A 6633  17.743  14.562   8.409 -0.4396 -0.0104  0.1059
  415loPI   C4A 6634  17.975  14.867   8.080  0.5905 -0.0455 -0.1435
  415loPI   C5A 6635  18.225  15.052   8.396  0.1963  0.0992 -0.0181
  415loPI   C6A 6636  18.201  14.987   8.683 -0.0515 -0.0863 -0.2246
  415loPI   C1B 6637  18.608  15.018   8.977 -0.0421 -0.1365  0.1853
  415loPI   C2B 6638  18.703  15.055   8.543  0.2064  0.0417  0.2123
  415loPI   C3B 6639  18.748  15.027   8.101 -0.0976  0.2611  0.2775
  415loPI   C4B 6640  18.874  15.169   7.680 -0.2744  0.0320 -0.3603
  416loPI    C1 6641  18.927  11.203  10.160  0.0064  0.0092 -0.1924
  416loPI    C2 6642  18.665  11.490  10.065 -0.2018 -0.1739 -0.1825
  416loPI    C3 6643  18.718  11.385  10.448  0.1690  0.1237 -0.1457
  416loPI   PO4 6644  19.133  11.225  10.096  0.3608  0.0087 -0.0323
  416loPI   GL1 6645  19.102  11.135   9.676  0.2053 -0.1298  0.0366
  416loPI   GL2 6646  19.359  10.981   9.766 -0.0965  0.2414  0.2094
  416loPI   C1A 6647  18.818  11.095   9.283  0.0832  0.2211 -0.0071
  416loPI   C2A 6648  18.845  11.083   8.813 -0.1109  0.1253  0.2171
  416loPI   C3A 6649  18.833  11.156   8.353 -0.0382  0.0340 -0.0946
  416loPI   C4A 6650  18.760  11.205   7.953 -0.2371 -0.0608  0.0909
  416loPI   C5A 6651  18.617  11.106   7.518  0.0114  0.0211  0.1700
  416loPI   C6A 6652  18.629  10.697   7.383  0.0971 -0.0586 -0.2387
  416loPI   C1B 6653  19.396  11.085   9.285  0.3405 -0.0353 -0.2389
  416loPI   C2B 6654  19.387  11.195   8.773  0.1884 -0.0659  0.0091
  416loPI   C3B 6655  19.326  11.181   8.407 -0.2434  0.0233 -0.2081
  416loPI   C4B 6656  19.248  11.196   7.948  0.2317  0.1636 -0.1683
  417loPI    C1 6657  13.172  12.142  10.150  0.1487 -0.0467 -0.0506
  417loPI    C2 6658  13.130  11.908  10.472  0.1330 -0.0427 -0.0497
  417loPI    C3 6659  13.352  12.241  10.493  0.0332  0.0219 -0.0092
  417loPI   PO4 6660  13.261  12.017   9.921 -0.4015  0.3812 -0.2697
  417loPI   GL1 6661  13.684  11.808   9.793  0.1155  0.2013 -0.3638
  417loPI   GL2 6662  13.719  11.976   9.670  0.0653 -0.3062 -0.0246
  417loPI   C1A 6663  13.646  11.569   9.424  0.1056 -0.1838 -0.1536
  417loPI   C2A 6664  13.608  11.620   9.005 -0.1503 -0.0027 -0.1558
  417loPI   C3A 6665  13.674  11.443   8.681 -0.2887 -0.0761 -0.1876
  417loPI   C4A 6666  13.861  11.512   8.230  0.0054  0.1618 -0.1520
  417loPI   C5A 6667  13.942  11.734   7.786  0.0564  0.1348  0.2355
  417loPI   C6A 6668  14.071  11.457   7.453 -0.0666 -0.0761 -0.0517
  417loPI   C1B 6669  13.943  12.054   9.273  0.0047  0.1512  0.1605
  417loPI   C2B 6670  13.845  12.022   8.915  0.3344 -0.0863  0.2592
  417loPI   C3B 6671  13.786  12.043   8.535  0.4045 -0.0401  0.0600
  417loPI   C4B 6672  13.698  11.995   8.090 -0.1383 -0.1991 -0.1003
  418loPI    C1 6673   4.490  11.440  10.519  0.1328  0.1423 -0.1080
  418loPI    C2 6674   4.294  11.789  10.529  0.2356  0.2086 -0.3304
  418loPI    C3 6675   4.644  11.750  10.719  0.0182  0.0932  0.0583
  418loPI   PO4 6676   4.390  11.392  10.221  0.1382  0.0372 -0.0006
  418loPI   GL1 6677   4.393  11.435   9.710  0.0637 -0.5788  0.1579
  418loPI   GL2 6678   4.465  11.744   9.576  0.1016 -0.1282 -0.2481
  418loPI   C1A 6679   4.556  11.296   9.341 -0.0183 -0.2435  0.1873
  418loPI   C2A 6680   4.411  11.048   9.133  0.2348  0.0480  0.0177
  418loPI   C3A 6681   4.468  11.009   8.651 -0.2389  0.0953 -0.1853
  418loPI   C4A 6682   4.520  10.873   8.252  0.1860 -0.1004  0.1197
  418loPI   C5A 6683   4.331  10.867   7.915 -0.0701 -0.1718  0.0534
  418loPI   C6A 6684   4.172  10.725   7.537 -0.0940  0.4183  0.2423
  418loPI   C1B 6685   4.497  11.958   9.230  0.0902 -0.0781 -0.2690
  418loPI   C2B 6686   4.458  11.993   8.817  0.0137  0.0599 -0.0195
  418loPI   C3B 6687   4.461  11.895   8.422 -0.2845  0.1990  0.1051
  418loPI   C4B 6688   4.388  11.792   8.015 -0.0330 -0.0918 -0.0509
  419loPI    C1 6689   9.572  18.646   9.674  0.0890  0.2626 -0.0587
  419loPI    C2 6690   9.784  18.672  10.012 -0.1182  0.3617  0.0654
  419loPI    C3 6691   9.423  18.842   9.989 -0.3108 -0.0484 -0.0461
  419loPI   PO4 6692   9.776  18.501   9.559  0.1781  0.0387  0.1607
  419loPI   GL1 6693   9.736  18.442   9.180 -0.2623  0.1766  0.4440
  419loPI   GL2 6694   9.651  18.189   9.056  0.0773  0.0905 -0.1461
  419loPI   C1A 6695  10.052  18.520   8.949  0.0346  0.1429 -0.1602
  419loPI   C2A 6696  10.278  18.442   8.558 -0.0815 -0.2349  0.1361
  419loPI   C3A 6697  10.380  18.488   8.115  0.0980  0.1067 -0.2288
  419loPI   C4A 6698  10.678  18.654   7.728 -0.0417  0.0076 -0.1936
  419loPI   C5A 6699  10.836  18.329   7.409 -0.0434  0.2508 -0.4098
  419loPI   C6A 6700  11.243  18.265   7.332 -0.2568 -0.1566 -0.0228
  419loPI   C1B 6701   9.737  18.296   8.609 -0.2246  0.1226 -0.0952
  419loPI   C2B 6702   9.871  18.346   8.113  0.2284  0.1677 -0.1199
  419loPI   C3B 6703   9.963  18.545   7.832 -0.2593  0.1325  0.0030
  419loPI   C4B 6704  10.145  18.807   7.593 -0.0695  0.0574 -0.0719
  420loPI    C1 6705  15.951   6.814   9.562  0.1139 -0.1993 -0.0054
  420loPI    C2 6706  15.931   6.838   9.960  0.0706  0.0547 -0.0214
  420loPI    C3 6707  15.609   6.922   9.738  0.2456  0.4661 -0.1295
  420loPI   PO4 6708  16.138   6.975   9.473  0.3799 -0.0423 -0.5019
  420loPI   GL1 6709  16.170   7.142   9.146  0.2334  0.0911  0.1059
  420loPI   GL2 6710  15.833   6.966   8.968  0.0343 -0.0567 -0.2414
  420loPI   C1A 6711  16.285   7.013   8.678  0.0470  0.1082 -0.1338
  420loPI   C2A 6712  16.226   6.892   8.240 -0.0725 -0.1329  0.3013
  420loPI   C3A 6713  16.257   6.989   7.827  0.1735  0.1122  0.0700
  420loPI   C4A 6714  16.470   7.335   7.572 -0.4139 -0.0545 -0.2588
  420loPI   C5A 6715  16.618   7.569   7.349  0.2209 -0.1724  0.1654
  420loPI   C6A 6716  16.729   7.663   6.947  0.0083 -0.4887  0.0187
  420loPI   C1B 6717  15.756   6.816   8.643  0.0474  0.2757 -0.0132
  420loPI   C2B 6718  15.744   6.801   8.179 -0.0205  0.4279 -0.2881
  420loPI   C3B 6719  15.748   6.925   7.793 -0.3151  0.1498 -0.2904
  420loPI   C4B 6720  15.466   7.078   7.562  0.0889  0.0885 -0.2367
  421loPI    C1 6721  18.430   7.778  10.126  0.0550  0.0206  0.0433
  421loPI    C2 6722  18.094   7.568  10.073  0.1315 -0.0210 -0.3040
  421loPI    C3 6723  18.112   7.850  10.356 -0.1759 -0.0571 -0.2454
  421loPI   PO4 6724  18.455   7.805   9.816  0.3255  0.0098  0.1892
  421loPI   GL1 6725  18.525   7.562   9.455 -0.1972  0.1377  0.0591
  421loPI   GL2 6726  18.804   7.275   9.561  0.1359 -0.1206 -0.2397
  421loPI   C1A 6727  18.638   7.475   8.992 -0.0367  0.1657  0.0262
  421loPI   C2A 6728  18.883   7.433   8.730 -0.4289 -0.0738  0.0630
  421loPI   C3A 6729  19.106   7.337   8.289  0.0291 -0.1350 -0.5202
  421loPI   C4A 6730  19.471   7.424   8.098  0.1296  0.1157  0.1033
  421loPI   C5A 6731  19.788   7.610   8.211 -0.1410  0.2774  0.0829
  421loPI   C6A 6732  20.027   7.542   8.408 -0.1194  0.0617  0.0039
  421loPI   C1B 6733  19.085   7.131   9.196  0.2785  0.0398  0.0851
  421loPI   C2B 6734  19.258   6.961   8.842  0.3418  0.0678  0.1192
  421loPI   C3B 6735  19.158   6.661   8.647  0.1850 -0.1417 -0.2020
  421loPI   C4B 6736  18.946   6.405   8.374  0.0274  0.0250 -0.0159
  422loPI    C1 6737   0.677   1.912   9.593 -0.0603 -0.2382  0.2531
  422loPI    C2 6738   0.810   2.101   9.919  0.0452  0.2117 -0.0421
  422loPI    C3 6739   1.067   1.911   9.679 -0.0140  0.0071  0.0536
  422loPI   PO4 6740   0.550   2.014   9.466  0.1053 -0.1181 -0.1161
  422loPI   GL1 6741   0.537   1.814   9.099  0.1232  0.3127 -0.2643
  422loPI   GL2 6742   0.520   2.152   9.012 -0.1997  0.1519 -0.3135
  422loPI   C1A 6743   0.773   1.846   8.664 -0.0090 -0.0135 -0.0232
  422loPI   C2A 6744   0.831   1.816   8.281 -0.0768 -0.1046  0.2111
  422loPI   C3A 6745   0.716   1.584   7.935 -0.0406  0.0613  0.0076
  422loPI   C4A 6746   0.853   1.580   7.533  0.0744  0.0867  0.0804
  422loPI   C5A 6747   0.841   1.466   7.107 -0.1242 -0.2635 -0.2023
  422loPI   C6A 6748   0.987   1.551   6.690 -0.0721 -0.1088 -0.0405
  422loPI   C1B 6749   0.671   2.416   8.673  0.0599  0.0922  0.0640
  422loPI   C2B 6750   0.750   2.339   8.242  0.1043 -0.0422  0.2478
  422loPI   C3B 6751   0.887   2.278   7.753 -0.2814  0.5265  0.1245
  422loPI   C4B 6752   0.984   2.366   7.327 -0.1740 -0.3779 -0.1618
  423loPI    C1 6753   1.007  16.623   9.982 -0.1416  0.0358  0.1282
  423loPI    C2 6754   1.362  16.648  10.163 -0.0185  0.2037 -0.1300
  423loPI    C3 6755   1.029  16.602  10.381  0.1713 -0.0944  0.1065
  423loPI   PO4 6756   0.919  16.800   9.786  0.4537 -0.0189  0.0791
  423loPI   GL1 6757   1.015  16.840   9.530 -0.1105 -0.0137 -0.1775
  423loPI   GL2 6758   1.267  16.993   9.320 -0.1694 -0.0256 -0.0420
  423loPI   C1A 6759   0.865  16.920   9.054  0.2200  0.2566  0.0917
  423loPI   C2A 6760   0.845  16.774   8.568  0.0471  0.0900  0.5098
  423loPI   C3A 6761   1.022  16.738   8.261 -0.0553  0.3372 -0.1725
  423loPI   C4A 6762   1.071  16.714   7.903  0.1663 -0.4865 -0.1690
  423loPI   C5A 6763   0.792  16.739   7.462 -0.2600 -0.0405  0.1148
  423loPI   C6A 6764   0.977  17.021   7.266  0.1730  0.1269 -0.1250
  423loPI   C1B 6765   1.410  16.868   9.011 -0.1476 -0.1457 -0.1589
  423loPI   C2B 6766   1.390  16.782   8.584  0.0411  0.1325 -0.2741
  423loPI   C3B 6767   1.483  16.765   8.145 -0.2373 -0.3800  0.2473
  423loPI   C4B 6768   1.469  16.999   7.851  0.0537 -0.1155  0.0142
  424loPI    C1 6769   9.901   3.870   9.682 -0.0192  0.1769  0.0461
  424loPI    C2 6770   9.898   4.216   9.882 -0.0624  0.0093  0.3408
  424loPI    C3 6771  10.058   3.890  10.049  0.0687 -0.0913  0.0252
  424loPI   PO4 6772   9.957   3.900   9.467  0.0494  0.2708  0.3984
  424loPI   GL1 6773  10.026   4.213   9.195 -0.1891 -0.1954  0.0395
  424loPI   GL2 6774   9.850   4.503   9.320  0.2279  0.0040 -0.0614
  424loPI   C1A 6775  10.012   4.051   8.737  0.1993  0.0684  0.0631
  424loPI   C2A 6776   9.965   3.975   8.392 -0.0396  0.0433 -0.3068
  424loPI   C3A 6777  10.140   4.053   8.003  0.0956 -0.0156  0.1885
  424loPI   C4A 6778  10.106   4.019   7.663 -0.1871  0.0449 -0.1076
  424loPI   C5A 6779  10.165   4.246   7.371 -0.4474  0.1866  0.0383
  424loPI   C6A 6780  10.257   4.704   7.473 -0.1986  0.1043  0.2393
  424loPI   C1B 6781   9.774   4.866   9.116  0.1458  0.0243  0.0331
  424loPI   C2B 6782   9.696   5.034   8.722  0.1926  0.0790  0.0325
  424loPI   C3B 6783   9.481   4.974   8.392 -0.0770  0.0249  0.1729
  424loPI   C4B 6784   9.524   4.672   8.003 -0.2492  0.3997 -0.0893
  425loPI    C1 6785   6.288   2.018   9.504 -0.0004  0.0912 -0.1102
  425loPI    C2 6786   5.992   1.902   9.747  0.1008  0.1164  0.0258
  425loPI    C3 6787   6.355   1.980   9.896  0.2550 -0.1922 -0.1778
  425loPI   PO4 6788   6.316   1.867   9.339  0.2227 -0.1947  0.0853
  425loPI   GL1 6789   6.051   1.768   9.006  0.2091  0.1032  0.3387
  425loPI   GL2 6790   5.808   1.649   8.852 -0.0424  0.1992  0.0605
  425loPI   C1A 6791   6.034   1.973   8.614 -0.0077 -0.1566  0.1622
  425loPI   C2A 6792   6.063   2.048   8.242  0.2354  0.0911  0.0096
  425loPI   C3A 6793   6.210   2.058   7.856 -0.2882 -0.3503 -0.0037
  425loPI   C4A 6794   6.433   2.089   7.497 -0.1935 -0.2834  0.2648
  425loPI   C5A 6795   6.447   2.141   7.104 -0.0417 -0.6068  0.1452
  425loPI   C6A 6796   6.689   2.346   6.963 -0.1419 -0.1005 -0.0825
  425loPI   C1B 6797   5.819   1.482   8.454  0.0019  0.1071  0.1337
  425loPI   C2B 6798   5.772   1.558   7.992  0.0844  0.1378 -0.0026
  425loPI   C3B 6799   5.580   1.500   7.597  0.0509  0.1686 -0.3795
  425loPI   C4B 6800   5.387   1.565   7.266  0.2337 -0.0589 -0.0166
  426loPI    C1 6801   6.737  16.004   9.714  0.3650  0.1390  0.2085
  426loPI    C2 6802   6.772  16.294   9.441  0.1827  0.0078  0.0435
  426loPI    C3 6803   6.632  16.379   9.806  0.2124  0.1429  0.0240
  426loPI   PO4 6804   6.527  15.815   9.557 -0.0234  0.0222 -0.3384
  426loPI   GL1 6805   6.428  15.923   9.111 -0.2007  0.1351 -0.1061
  426loPI   GL2 6806   6.239  16.235   8.897  0.2519  0.0383 -0.1411
  426loPI   C1A 6807   6.518  15.662   8.702  0.0942  0.0422 -0.2745
  426loPI   C2A 6808   6.540  15.612   8.272 -0.0805  0.0736 -0.1508
  426loPI   C3A 6809   6.380  15.585   7.916  0.0906  0.3179  0.2572
  426loPI   C4A 6810   6.125  15.755   7.676  0.0296  0.2667 -0.0293
  426loPI   C5A 6811   5.737  15.894   7.959  0.3820 -0.0806  0.2047
  426loPI   C6A 6812   5.617  16.062   8.320  0.0292 -0.1497  0.0184
  426loPI   C1B 6813   6.639  16.141   8.664 -0.3372  0.1688 -0.0667
  426loPI   C2B 6814   6.806  16.078   8.175 -0.1912 -0.1388  0.1491
  426loPI   C3B 6815   6.843  15.955   7.666  0.3430 -0.0168  0.3012
  426loPI   C4B 6816   7.221  15.685   7.627  0.4412  0.2326 -0.3470
  427loPI    C1 6817  15.943   7.716   9.715  0.0931  0.1519  0.1210
  427loPI    C2 6818  16.215   7.440   9.614  0.1737  0.1914  0.2281
  427loPI    C3 6819  15.905   7.340   9.847 -0.0501  0.0835 -0.1088
  427loPI   PO4 6820  15.898   7.833   9.430  0.1200  0.1086  0.2369
  427loPI   GL1 6821  15.591   7.785   9.156  0.0162  0.1765 -0.2632
  427loPI   GL2 6822  15.386   7.928   9.192 -0.3051 -0.7393 -0.3576
  427loPI   C1A 6823  15.517   7.720   8.680  0.2179  0.0789 -0.1073
  427loPI   C2A 6824  15.534   7.691   8.260 -0.0005  0.1544  0.0309
  427loPI   C3A 6825  15.638   7.899   7.814 -0.3270  0.1033 -0.0861
  427loPI   C4A 6826  15.775   7.905   7.404 -0.0070 -0.2610  0.0294
  427loPI   C5A 6827  15.737   7.899   7.012  0.0260  0.0486 -0.2115
  427loPI   C6A 6828  15.838   8.119   6.557  0.1106 -0.1485 -0.0582
  427loPI   C1B 6829  15.583   8.178   8.880  0.2512 -0.0635  0.1799
  427loPI   C2B 6830  15.458   8.238   8.458  0.0147 -0.2153 -0.2308
  427loPI   C3B 6831  15.368   8.334   8.082  0.0396  0.0632 -0.0492
  427loPI   C4B 6832  15.595   8.768   7.891  0.0958  0.0702  0.0515
  428loPI    C1 6833   3.859   2.694   9.831 -0.1211  0.5498  0.0888
  428loPI    C2 6834   3.535   2.520   9.988  0.2212 -0.0888  0.1225
  428loPI    C3 6835   3.771   2.746  10.217  0.1640 -0.1759  0.2687
  428loPI   PO4 6836   3.891   2.598   9.617 -0.0452 -0.3957  0.5411
  428loPI   GL1 6837   4.104   2.571   9.257 -0.2216  0.3029 -0.4650
  428loPI   GL2 6838   4.465   2.520   9.180 -0.0423 -0.3518  0.2785
  428loPI   C1A 6839   4.101   2.549   8.793  0.0561 -0.1769  0.2406
  428loPI   C2A 6840   4.083   2.706   8.428  0.0678  0.0417  0.2981
  428loPI   C3A 6841   4.095   2.624   7.932 -0.3241  0.0610  0.0048
  428loPI   C4A 6842   4.256   2.575   7.608 -0.2588 -0.2771  0.0730
  428loPI   C5A 6843   4.610   2.736   7.341 -0.0898  0.3180 -0.5925
  428loPI   C6A 6844   4.778   3.117   7.262  0.1007 -0.0690 -0.0135
  428loPI   C1B 6845   4.857   2.580   8.908 -0.0475 -0.1113  0.1152
  428loPI   C2B 6846   4.928   2.712   8.476  0.0789  0.0800 -0.1535
  428loPI   C3B 6847   5.091   2.943   8.260 -0.3358 -0.0433  0.0618
  428loPI   C4B 6848   5.306   3.201   7.975 -0.1285  0.1283 -0.2649
  429loPI    C1 6849  10.117   6.460  10.016  0.0525 -0.1479  0.2482
  429loPI    C2 6850   9.775   6.591   9.854  0.3740  0.1240 -0.2352
  429loPI    C3 6851   9.909   6.752  10.195 -0.2036 -0.3075  0.2166
  429loPI   PO4 6852  10.248   6.436   9.824  0.1564 -0.4593  0.0275
  429loPI   GL1 6853  10.166   6.435   9.382 -0.1388 -0.0078 -0.1182
  429loPI   GL2 6854   9.822   6.437   9.321  0.1729 -0.1262  0.2047
  429loPI   C1A 6855  10.511   6.406   9.114 -0.2673  0.1766 -0.1055
  429loPI   C2A 6856  10.891   6.335   8.866 -0.0590  0.0796  0.2536
  429loPI   C3A 6857  10.899   6.473   8.496  0.2328 -0.0439  0.1944
  429loPI   C4A 6858  10.885   6.447   8.127 -0.1318  0.1257  0.1081
  429loPI   C5A 6859  10.986   6.643   7.616 -0.1709  0.0018  0.1728
  429loPI   C6A 6860  10.828   6.498   7.176 -0.1262  0.1004 -0.2765
  429loPI   C1B 6861   9.819   6.385   8.929  0.1583 -0.0974  0.0821
  429loPI   C2B 6862  10.219   6.174   8.652 -0.3083  0.1038  0.0749
  429loPI   C3B 6863  10.435   6.018   8.342 -0.1288 -0.0214  0.2595
  429loPI   C4B 6864  10.496   6.007   8.001 -0.2594 -0.0689 -0.0207
  430loPI    C1 6865  16.759  19.022   9.991 -0.2101 -0.0462 -0.2275
  430loPI    C2 6866  16.397  19.115  10.133 -0.1887  0.0504 -0.2360
  430loPI    C3 6867  16.624  19.398   9.964  0.0158  0.0574  0.0433
  430loPI   PO4 6868  16.756  18.769   9.919 -0.1119 -0.0969 -0.0135
  430loPI   GL1 6869  16.711  18.582   9.555 -0.2565 -0.1539 -0.0749
  430loPI   GL2 6870  16.445  18.309   9.513  0.0012 -0.1012 -0.2589
  430loPI   C1A 6871  16.864  18.345   9.198  0.3066  0.2573 -0.2245
  430loPI   C2A 6872  16.598  18.168   8.838  0.2850 -0.1128 -0.2492
  430loPI   C3A 6873  16.540  18.181   8.430 -0.1894  0.2206  0.2284
  430loPI   C4A 6874  16.673  18.433   8.078 -0.0970 -0.0691  0.2720
  430loPI   C5A 6875  16.707  18.121   7.746 -0.0702  0.0951 -0.1874
  430loPI   C6A 6876  16.503  17.987   7.275  0.0306  0.1416 -0.2234
  430loPI   C1B 6877  16.402  18.599   9.189 -0.2130  0.5242  0.2547
  430loPI   C2B 6878  16.251  18.518   8.797  0.0050 -0.2410  0.1973
  430loPI   C3B 6879  16.235  18.571   8.368 -0.0843  0.1364  0.1493
  430loPI   C4B 6880  15.819  18.636   8.128 -0.0799 -0.1631  0.1422
  431loPI    C1 6881   8.765   9.211   9.733  0.0217  0.0595  0.0333
  431loPI    C2 6882   8.580   9.520   9.906 -0.1809 -0.0108 -0.0550
  431loPI    C3 6883   8.638   9.517   9.510  0.4229  0.2238  0.0211
  431loPI   PO4 6884   8.987   9.122   9.892  0.2226  0.1821  0.1830
  431loPI   GL1 6885   9.195   8.848   9.682  0.1693  0.0028 -0.0412
  431loPI   GL2 6886   8.882   8.660   9.591  0.1919 -0.1992 -0.0440
  431loPI   C1A 6887   8.851   9.002   9.292 -0.0662 -0.1300 -0.2651
  431loPI   C2A 6888   8.828   9.320   8.891  0.1429  0.2755  0.1026
  431loPI   C3A 6889   8.773   9.320   8.412 -0.0121  0.0445 -0.3846
  431loPI   C4A 6890   8.931   8.956   8.109 -0.1071  0.1360 -0.1398
  431loPI   C5A 6891   8.979   8.771   7.708 -0.5252  0.0024 -0.0331
  431loPI   C6A 6892   8.964   8.765   7.261 -0.0385  0.1230 -0.0884
  431loPI   C1B 6893   8.925   8.567   9.152  0.5667  0.0969  0.0046
  431loPI   C2B 6894   8.676   8.814   8.847 -0.1717 -0.1492 -0.0282
  431loPI   C3B 6895   8.555   8.893   8.400  0.0424 -0.0869 -0.1197
  431loPI   C4B 6896   8.193   9.213   8.291  0.0613  0.2278  0.3660
  432loPI    C1 6897   8.708   6.394  10.277 -0.0161 -0.0178 -0.0759
  432loPI    C2 6898   9.047   6.514  10.453  0.0122  0.2950 -0.3345
  432loPI    C3 6899   8.704   6.707  10.526 -0.1121 -0.0107 -0.0859
  432loPI   PO4 6900   8.726   6.313  10.045 -0.0226  0.0639 -0.1599
  432loPI   GL1 6901   8.792   6.379   9.647  0.1418 -0.3817 -0.1251
  432loPI   GL2 6902   8.946   6.023   9.685  0.0445 -0.0192 -0.3182
  432loPI   C1A 6903   8.414   6.352   9.372  0.0209 -0.2987 -0.3197
  432loPI   C2A 6904   8.369   6.677   9.060 -0.1938  0.2730 -0.3749
  432loPI   C3A 6905   8.130   6.803   8.713 -0.1100 -0.3285  0.1513
  432loPI   C4A 6906   7.705   6.751   8.581  0.1720 -0.0557 -0.2200
  432loPI   C5A 6907   7.629   6.578   8.221 -0.1644 -0.1074  0.1638
  432loPI   C6A 6908   7.729   6.808   7.882  0.0213  0.1986 -0.0688
  432loPI   C1B 6909   8.985   6.064   9.198  0.0755  0.1219  0.0431
  432loPI   C2B 6910   8.684   6.015   8.872  0.2384  0.0216 -0.0383
  432loPI   C3B 6911   8.364   5.856   8.591  0.2736  0.0936  0.2805
  432loPI   C4B 6912   8.331   5.934   8.185  0.0193 -0.1615 -0.0370
  433loPI    C1 6913  10.000  11.111   9.801 -0.1377  0.4305 -0.0913
  433loPI    C2 6914   9.708  11.095  10.074 -0.0150 -0.0341  0.0223
  433loPI    C3 6915  10.075  10.966  10.167  0.0607 -0.0791 -0.3251
  433loPI   PO4 6916   9.902  10.941   9.567  0.2126 -0.1089 -0.0280
  433loPI   GL1 6917   9.694  10.955   9.179  0.1098  0.1364  0.0688
  433loPI   GL2 6918   9.886  11.301   9.248  0.2374 -0.0885  0.1527
  433loPI   C1A 6919   9.532  10.943   8.860 -0.4215 -0.1400 -0.0745
  433loPI   C2A 6920   9.660  10.963   8.486 -0.0956  0.2004  0.0130
  433loPI   C3A 6921   9.790  10.905   8.104  0.0539 -0.0837  0.1630
  433loPI   C4A 6922   9.810  10.703   7.681  0.1230  0.1468 -0.1138
  433loPI   C5A 6923   9.613  10.524   7.304  0.2836 -0.1477 -0.0778
  433loPI   C6A 6924   9.563  10.222   6.947  0.0364 -0.1123 -0.0357
  433loPI   C1B 6925   9.633  11.418   8.865 -0.2480  0.1145  0.0011
  433loPI   C2B 6926   9.544  11.418   8.545 -0.0956  0.0361  0.0212
  433loPI   C3B 6927   9.652  11.436   8.139  0.0470  0.1220 -0.1260
  433loPI   C4B 6928   9.660  11.753   7.844 -0.1360  0.3499  0.1013
  434loPI    C1 6929  17.425  14.236  10.123 -0.0513 -0.0497  0.1451
  434loPI    C2 6930  17.158  14.241   9.826 -0.1752 -0.2020  0.2522
  434loPI    C3 6931  17.094  14.457  10.156  0.0156  0.0543  0.1252
  434loPI   PO4 6932  17.649  14.159   9.951 -0.1470  0.0865  0.0952
  434loPI   GL1 6933  17.685  14.127   9.470 -0.4550 -0.0294  0.0319
  434loPI   GL2 6934  17.488  13.859   9.580  0.2356  0.2860 -0.0891
  434loPI   C1A 6935  17.592  14.138   8.953 -0.1029  0.0893 -0.0579
  434loPI   C2A 6936  17.416  14.190   8.551 -0.2761  0.2147  0.1195
  434loPI   C3A 6937  17.433  14.171   8.084  0.4902 -0.1054  0.3775
  434loPI   C4A 6938  17.211  14.428   7.833 -0.1293 -0.0851 -0.1530
  434loPI   C5A 6939  17.076  14.753   7.644  0.0863 -0.3049  0.0731
  434loPI   C6A 6940  17.056  15.223   7.796 -0.0692  0.2644 -0.0468
  434loPI   C1B 6941  17.637  13.670   9.120 -0.3235  0.0468 -0.2775
  434loPI   C2B 6942  17.489  13.698   8.742  0.0718  0.3107  0.2038
  434loPI   C3B 6943  17.696  13.771   8.345 -0.3781 -0.0323  0.0266
  434loPI   C4B 6944  17.885  13.882   7.980 -0.2475 -0.0875  0.1496
  435loPI    C1 6945   1.854  17.890  10.325  0.0690  0.3017  0.2650
  435loPI    C2 6946   1.719  18.235  10.175  0.0201  0.2102  0.0956
  435loPI    C3 6947   1.483  18.013  10.410 -0.0880  0.1043 -0.1104
  435loPI   PO4 6948   1.908  17.688  10.136 -0.3215  0.1497  0.0955
  435loPI   GL1 6949   1.947  17.494   9.781  0.0177 -0.0425 -0.0619
  435loPI   GL2 6950   1.635  17.361   9.519 -0.2357  0.1172  0.1820
  435loPI   C1A 6951   2.261  17.656   9.436 -0.1059  0.0757  0.0584
  435loPI   C2A 6952   2.563  17.831   9.092  0.0457 -0.2027  0.2724
  435loPI   C3A 6953   2.515  17.755   8.791 -0.0468 -0.3647 -0.0948
  435loPI   C4A 6954   2.602  17.525   8.496  0.1752 -0.2715  0.1107
  435loPI   C5A 6955   2.378  17.326   8.106 -0.1549  0.0082  0.2327
  435loPI   C6A 6956   2.064  17.314   7.784  0.0809  0.1302  0.1039
  435loPI   C1B 6957   1.521  17.378   9.073 -0.0576 -0.2499  0.0275
  435loPI   C2B 6958   1.513  17.597   8.766 -0.1528 -0.2317 -0.0519
  435loPI   C3B 6959   1.510  17.546   8.457  0.0533 -0.0701 -0.1432
  435loPI   C4B 6960   1.401  17.499   7.991 -0.2040  0.2237 -0.0784
  436loPI    C1 6961   9.918   8.263  10.005  0.1009 -0.0893 -0.2170
  436loPI    C2 6962  10.034   8.211  10.384 -0.0016  0.0522 -0.1657
  436loPI    C3 6963  10.073   8.569  10.210 -0.0561  0.0157 -0.2534
  436loPI   PO4 6964   9.918   8.120   9.734  0.1896  0.0960 -0.3569
  436loPI   GL1 6965   9.911   8.240   9.345 -0.0707  0.0951 -0.0950
  436loPI   GL2 6966   9.797   8.537   9.465  0.3009  0.1402 -0.2204
  436loPI   C1A 6967   9.985   8.183   9.018  0.1004 -0.2574 -0.1150
  436loPI   C2A 6968   9.980   8.065   8.611 -0.1726 -0.3998  0.0549
  436loPI   C3A 6969   9.899   8.050   8.235  0.2583  0.0868  0.0170
  436loPI   C4A 6970   9.775   7.862   7.825  0.2158  0.2614 -0.0157
  436loPI   C5A 6971   9.867   7.635   7.464  0.5017 -0.0168  0.0635
  436loPI   C6A 6972  10.088   7.177   7.504  0.0825  0.1089  0.2389
  436loPI   C1B 6973   9.489   8.385   9.023  0.2949 -0.0594  0.0336
  436loPI   C2B 6974   9.538   8.339   8.508 -0.4278  0.2998 -0.1321
  436loPI   C3B 6975   9.410   8.115   8.184 -0.0184  0.0918  0.2513
  436loPI   C4B 6976   9.236   7.980   7.759 -0.1723 -0.3304  0.0773
  437loPI    C1 6977   8.189   8.373  10.217  0.1437  0.1261  0.1009
  437loPI    C2 6978   7.832   8.326  10.393  0.0337  0.1568 -0.1104
  437loPI    C3 6979   8.167   8.321  10.613 -0.0869 -0.0057  0.0724
  437loPI   PO4 6980   8.263   8.602  10.095  0.2774 -0.0301 -0.0087
  437loPI   GL1 6981   8.289   8.718   9.721 -0.1743  0.1767 -0.0149
  437loPI   GL2 6982   8.342   8.987   9.623  0.0457  0.0151  0.0517
  437loPI   C1A 6983   8.422   8.406   9.260  0.0491  0.1556 -0.0350
  437loPI   C2A 6984   8.557   8.288   8.854  0.1678  0.0104 -0.0839
  437loPI   C3A 6985   8.714   7.985   8.623  0.0774  0.3151 -0.0375
  437loPI   C4A 6986   8.822   8.036   8.215  0.0512 -0.0165  0.1388
  437loPI   C5A 6987   8.801   8.215   7.738 -0.1267 -0.1390 -0.2410
  437loPI   C6A 6988   8.525   8.525   7.520  0.1413  0.2560  0.1026
  437loPI   C1B 6989   8.371   9.151   9.167 -0.0663 -0.0319 -0.3855
  437loPI   C2B 6990   8.385   9.246   8.769 -0.1642 -0.2374 -0.2179
  437loPI   C3B 6991   8.380   9.616   8.453 -0.2957  0.0162  0.1525
  437loPI   C4B 6992   8.516   9.887   8.158 -0.0170  0.1904  0.0917
  438loPI    C1 6993  16.416  14.788  10.228 -0.0426  0.0967 -0.0003
  438loPI    C2 6994  16.663  14.563  10.448  0.0465  0.4359  0.2565
  438loPI    C3 6995  16.355  14.750  10.622 -0.1822  0.3056  0.0001
  438loPI   PO4 6996  16.155  14.739  10.037 -0.2228  0.1925  0.0615
  438loPI   GL1 6997  16.168  14.791   9.577  0.3465  0.2822  0.0468
  438loPI   GL2 6998  16.393  14.612   9.510 -0.1936  0.0251  0.1299
  438loPI   C1A 6999  15.927  15.020   9.279  0.3145  0.0496 -0.1601
  438loPI   C2A 7000  15.791  15.322   8.993  0.1509 -0.1375 -0.0355
  438loPI   C3A 7001  15.809  15.248   8.558  0.1474 -0.4357  0.0121
  438loPI   C4A 7002  15.622  15.251   8.112  0.0222 -0.1668 -0.2104
  438loPI   C5A 7003  15.443  15.536   7.774  0.1826  0.3942  0.0532
  438loPI   C6A 7004  15.346  15.760   7.470 -0.1643 -0.4355 -0.0617
  438loPI   C1B 7005  16.212  14.506   9.154 -0.6672 -0.1814  0.0780
  438loPI   C2B 7006  16.225  14.527   8.670  0.4055  0.2111  0.0701
  438loPI   C3B 7007  16.235  14.587   8.238  0.2332  0.1130 -0.0415
  438loPI   C4B 7008  16.161  15.005   8.212  0.1446 -0.0504 -0.1578
  439loPI    C1 7009  15.149   4.786  10.038 -0.0558  0.0683  0.1697
  439loPI    C2 7010  14.791   4.654   9.917  0.0807 -0.2254  0.0782
  439loPI    C3 7011  14.865   4.702  10.307 -0.0858 -0.0792  0.0930
  439loPI   PO4 7012  15.208   4.920   9.788  0.0046  0.2613 -0.1102
  439loPI   GL1 7013  15.270   4.980   9.381  0.0661  0.2388  0.1187
  439loPI   GL2 7014  15.280   4.720   9.291  0.0302 -0.3452 -0.4098
  439loPI   C1A 7015  15.152   5.144   8.921 -0.0090  0.1595 -0.2858
  439loPI   C2A 7016  15.202   4.937   8.506 -0.1049 -0.1687  0.0695
  439loPI   C3A 7017  15.068   4.927   8.143 -0.0399  0.1199 -0.5602
  439loPI   C4A 7018  14.837   5.089   7.766 -0.0495 -0.1349 -0.2258
  439loPI   C5A 7019  14.602   5.355   7.623  0.0846  0.0775  0.2086
  439loPI   C6A 7020  14.579   5.683   7.317 -0.0105 -0.2075 -0.0222
  439loPI   C1B 7021  15.044   4.588   8.868 -0.0514  0.0994  0.0924
  439loPI   C2B 7022  14.859   4.491   8.480 -0.1115  0.0886  0.1572
  439loPI   C3B 7023  14.717   4.652   8.163  0.0435 -0.0617  0.0441
  439loPI   C4B 7024  14.649   4.663   7.710  0.0612 -0.3035 -0.1888
  440loPI    C1 7025  14.309  16.690  10.159 -0.1009  0.1233  0.0828
  440loPI    C2 7026  14.321  16.816  10.539 -0.0113  0.0522  0.1038
  440loPI    C3 7027  14.264  17.079  10.242 -0.0244  0.1153  0.1621
  440loPI   PO4 7028  14.463  16.536  10.099 -0.3670  0.0455  0.0996
  440loPI   GL1 7029  14.497  16.438   9.717  0.3270 -0.1004 -0.0926
  440loPI   GL2 7030  14.318  16.635   9.548 -0.7407  0.1667  0.0480
  440loPI   C1A 7031  14.233  16.112   9.369 -0.0123 -0.2558 -0.3228
  440loPI   C2A 7032  14.102  16.062   8.925  0.2148  0.0561  0.0078
  440loPI   C3A 7033  14.225  16.221   8.461 -0.1483 -0.0904  0.3030
  440loPI   C4A 7034  14.385  16.424   8.097  0.0616  0.4731 -0.0551
  440loPI   C5A 7035  14.370  16.843   7.940  0.2049  0.1645  0.1802
  440loPI   C6A 7036  14.472  17.242   7.827  0.0017 -0.3384  0.1106
  440loPI   C1B 7037  13.881  16.578   9.391  0.0475  0.0017  0.0419
  440loPI   C2B 7038  13.595  16.682   9.076  0.1771 -0.0895  0.4721
  440loPI   C3B 7039  13.470  16.872   8.711  0.0600 -0.2150  0.1210
  440loPI   C4B 7040  13.145  17.123   8.645 -0.1469 -0.2780  0.1041
  441loPI    C1 7041  10.777   5.951  10.138  0.0962 -0.1356 -0.1547
  441loPI    C2 7042  10.818   5.594  10.313  0.2209 -0.0933 -0.0966
  441loPI    C3 7043  10.510   5.830  10.409  0.2577 -0.0939  0.0257
  441loPI   PO4 7044  11.036   6.001   9.896  0.0555 -0.0161  0.0877
  441loPI   GL1 7045  11.067   5.965   9.464  0.0141  0.0133  0.0121
  441loPI   GL2 7046  11.014   5.728   9.307  0.1222  0.2746 -0.2060
  441loPI   C1A 7047  11.241   6.118   9.078  0.1372  0.3269  0.0065
  441loPI   C2A 7048  11.355   6.203   8.592 -0.1010  0.1691  0.2039
  441loPI   C3A 7049  11.579   6.077   8.269 -0.3055 -0.0746  0.1314
  441loPI   C4A 7050  11.838   5.761   7.902  0.0394  0.3564 -0.3162
  441loPI   C5A 7051  11.689   5.503   7.637  0.2553 -0.3418  0.1703
  441loPI   C6A 7052  11.866   5.278   7.327  0.1300  0.0382  0.0505
  441loPI   C1B 7053  11.288   5.696   8.831  0.0603  0.0999 -0.1700
  441loPI   C2B 7054  11.392   5.555   8.421 -0.0968  0.1460 -0.0251
  441loPI   C3B 7055  11.361   5.638   8.005  0.0789 -0.2727  0.3356
  441loPI   C4B 7056  11.278   5.333   7.695  0.1951  0.1220 -0.0538
  442loPI    C1 7057  13.027   0.872  10.043 -0.0437  0.2099 -0.0920
  442loPI    C2 7058  13.302   0.808  10.327  0.0139 -0.0679 -0.2070
  442loPI    C3 7059  12.924   0.890  10.429  0.1151  0.2161 -0.0491
  442loPI   PO4 7060  13.070   0.718   9.874 -0.0360 -0.0466  0.1678
  442loPI   GL1 7061  13.251   0.821   9.484 -0.2660 -0.1106  0.0119
  442loPI   GL2 7062  13.368   0.448   9.566  0.4793  0.3256 -0.0494
  442loPI   C1A 7063  13.329   0.910   9.105 -0.1549  0.1335 -0.2433
  442loPI   C2A 7064  13.322   0.887   8.618  0.0442  0.3940 -0.1771
  442loPI   C3A 7065  13.275   0.671   8.302 -0.1949  0.2779  0.2967
  442loPI   C4A 7066  12.879   0.516   8.098 -0.0137 -0.1214  0.0802
  442loPI   C5A 7067  12.545   0.232   8.067 -0.0755  0.0454  0.0291
  442loPI   C6A 7068  12.630  -0.059   7.784  0.0756  0.1901 -0.0001
  442loPI   C1B 7069  13.637   0.499   9.240  0.0052 -0.2465  0.0566
  442loPI   C2B 7070  13.673   0.564   8.812 -0.1633  0.0666 -0.2426
  442loPI   C3B 7071  13.678   0.309   8.372 -0.0617 -0.0357  0.0310
  442loPI   C4B 7072  13.582   0.242   8.026  0.1055 -0.0790  0.0668
  443loPI    C1 7073  17.670  11.295  10.418  0.0356  0.1424  0.1188
  443loPI    C2 7074  17.507  11.098  10.725 -0.0272 -0.2320 -0.1470
  443loPI    C3 7075  17.281  11.201  10.412  0.0756 -0.0175 -0.1528
  443loPI   PO4 7076  17.885  11.070  10.301  0.1048  0.2837 -0.1473
  443loPI   GL1 7077  17.958  11.000   9.957  0.0550 -0.1534 -0.0587
  443loPI   GL2 7078  17.992  11.220   9.631 -0.0986  0.0901  0.0216
  443loPI   C1A 7079  17.895  10.739   9.542 -0.2041  0.0302  0.1068
  443loPI   C2A 7080  17.950  10.788   9.036  0.2265  0.0469  0.1131
  443loPI   C3A 7081  18.176  10.942   8.705  0.0862  0.1874 -0.4374
  443loPI   C4A 7082  18.308  11.013   8.271 -0.1084  0.0438  0.0749
  443loPI   C5A 7083  18.538  10.804   8.000  0.2531  0.0869  0.0109
  443loPI   C6A 7084  18.401  10.421   7.733 -0.0445  0.2134 -0.0312
  443loPI   C1B 7085  18.322  11.107   9.266  0.2351 -0.0051 -0.4288
  443loPI   C2B 7086  18.473  11.374   9.026  0.1688  0.1357  0.1212
  443loPI   C3B 7087  18.504  11.553   8.644  0.1778 -0.0564 -0.0734
  443loPI   C4B 7088  18.435  11.485   8.274 -0.2002 -0.2875 -0.0651
  444loPI    C1 7089   4.046  18.406   9.727 -0.0934  0.2764 -0.0081
  444loPI    C2 7090   4.330  18.592   9.514 -0.3588  0.2860 -0.3632
  444loPI    C3 7091   4.346  18.592   9.914  0.2484  0.1127 -0.3789
  444loPI   PO4 7092   3.903  18.378   9.497  0.5197  0.2002 -0.2321
  444loPI   GL1 7093   3.998  18.479   9.089 -0.2462  0.1989 -0.1416
  444loPI   GL2 7094   4.029  18.715   9.018 -0.0030 -0.1767 -0.3160
  444loPI   C1A 7095   4.044  18.308   8.703  0.4284  0.4476 -0.0000
  444loPI   C2A 7096   4.023  18.171   8.297  0.1424 -0.0235  0.0147
  444loPI   C3A 7097   3.780  18.178   7.953 -0.1261 -0.2968 -0.3009
  444loPI   C4A 7098   3.512  18.220   7.570  0.3094  0.1716  0.0589
  444loPI   C5A 7099   3.190  18.418   7.305  0.0096 -0.4605 -0.2838
  444loPI   C6A 7100   2.800  18.270   7.129  0.0350  0.2997 -0.0449
  444loPI   C1B 7101   4.017  18.772   8.438 -0.3203 -0.2424  0.1020
  444loPI   C2B 7102   4.131  18.609   8.009  0.0693  0.2051 -0.0713
  444loPI   C3B 7103   4.239  18.366   7.721  0.1837  0.2552 -0.3354
  444loPI   C4B 7104   4.210  18.138   7.312 -0.2798 -0.0801  0.1045
  445loPI    C1 7105   7.540   4.713  10.382 -0.2898 -0.1298 -0.0464
  445loPI    C2 7106   7.580   4.954  10.699 -0.3415 -0.0742 -0.0818
  445loPI    C3 7107   7.535   4.560  10.751  0.0808 -0.1209 -0.0338
  445loPI   PO4 7108   7.644   4.821  10.181 -0.2026 -0.0277  0.2844
  445loPI   GL1 7109   7.480   5.145   9.903 -0.3985  0.2093  0.1995
  445loPI   GL2 7110   7.350   4.907   9.718  0.1196 -0.1104  0.0735
  445loPI   C1A 7111   7.280   5.451   9.630 -0.2281 -0.2630  0.0878
  445loPI   C2A 7112   7.275   5.567   9.179  0.0137 -0.2903  0.0709
  445loPI   C3A 7113   7.491   5.697   8.874  0.0850 -0.4209  0.3046
  445loPI   C4A 7114   7.879   5.762   8.862  0.0065  0.2257 -0.2142
  445loPI   C5A 7115   8.204   5.981   9.067 -0.3872  0.1055 -0.2052
  445loPI   C6A 7116   8.540   5.830   9.426  0.1005  0.1040 -0.0648
  445loPI   C1B 7117   7.004   5.079   9.379  0.2256 -0.0750 -0.3434
  445loPI   C2B 7118   7.000   5.198   8.975  0.1372 -0.0930  0.1421
  445loPI   C3B 7119   7.103   5.500   8.700  0.0980  0.0535  0.1668
  445loPI   C4B 7120   7.305   5.624   8.351 -0.1417 -0.0508  0.1325
  446loPI    C1 7121   7.050   6.637   9.882 -0.1495  0.1366 -0.0102
  446loPI    C2 7122   7.099   7.016   9.999  0.1121 -0.0171  0.4013
  446loPI    C3 7123   6.765   6.819  10.095  0.0008  0.0887  0.2364
  446loPI   PO4 7124   7.319   6.471   9.943  0.0597 -0.0234  0.2012
  446loPI   GL1 7125   7.439   6.062   9.809 -0.0274 -0.2483 -0.1094
  446loPI   GL2 7126   7.241   5.928   9.627  0.1301  0.0181  0.0417
  446loPI   C1A 7127   7.567   6.206   9.315 -0.0467 -0.0824  0.1393
  446loPI   C2A 7128   7.522   6.340   8.963 -0.2578  0.5507 -0.1727
  446loPI   C3A 7129   7.453   6.129   8.473 -0.1516  0.3143  0.2247
  446loPI   C4A 7130   7.404   6.242   7.949 -0.0646 -0.3048  0.1831
  446loPI   C5A 7131   7.341   6.623   7.700  0.3809  0.1156 -0.1358
  446loPI   C6A 7132   6.992   6.804   7.523 -0.0537  0.2100 -0.1436
  446loPI   C1B 7133   7.092   6.037   9.208 -0.2571  0.0929 -0.2327
  446loPI   C2B 7134   7.058   6.013   8.735  0.1133 -0.0114  0.2417
  446loPI   C3B 7135   7.008   6.103   8.341  0.0587 -0.2900  0.0601
  446loPI   C4B 7136   6.962   5.997   7.860  0.0755 -0.1467 -0.2024
  447loPI    C1 7137   9.139  15.714   9.611  0.3204 -0.1092 -0.0518
  447loPI    C2 7138   8.966  16.026   9.790 -0.0842 -0.3434 -0.0223
  447loPI    C3 7139   9.168  16.078   9.450 -0.3891 -0.0900 -0.1699
  447loPI   PO4 7140   9.010  15.529   9.649  0.2937 -0.2514  0.1494
  447loPI   GL1 7141   8.952  15.196   9.316 -0.0010  0.0855 -0.2686
  447loPI   GL2 7142   8.848  14.912   9.092  0.1596  0.1469  0.1703
  447loPI   C1A 7143   9.072  15.371   9.005 -0.1624 -0.1392  0.1073
  447loPI   C2A 7144   9.070  15.530   8.637 -0.2278 -0.2747 -0.0740
  447loPI   C3A 7145   8.723  15.491   8.355  0.0492 -0.2205 -0.1304
  447loPI   C4A 7146   8.760  15.546   7.904 -0.4733  0.0456 -0.0473
  447loPI   C5A 7147   8.705  15.856   7.509 -0.0906 -0.2510  0.0611
  447loPI   C6A 7148   8.374  16.162   7.413  0.0367  0.1178 -0.0681
  447loPI   C1B 7149   8.860  14.712   8.702  0.1159  0.1794  0.2381
  447loPI   C2B 7150   8.947  14.634   8.250  0.0477  0.3163 -0.2047
  447loPI   C3B 7151   9.132  14.744   7.783  0.0745 -0.0278  0.3544
  447loPI   C4B 7152   9.378  15.249   7.740 -0.1700  0.0667  0.2868
  448loPI    C1 7153   4.409   3.255   9.646 -0.0488 -0.0111 -0.1021
  448loPI    C2 7154   4.082   3.071   9.508 -0.1986 -0.0229  0.2592
  448loPI    C3 7155   4.128   3.131   9.901  0.2184  0.0118  0.2101
  448loPI   PO4 7156   4.494   3.434   9.536  0.1480 -0.0469  0.1543
  448loPI   GL1 7157   4.583   3.637   9.116 -0.3346  0.1781 -0.3025
  448loPI   GL2 7158   4.751   3.961   9.309 -0.0179  0.1646 -0.1589
  448loPI   C1A 7159   4.688   3.871   8.807 -0.0926 -0.1776  0.0740
  448loPI   C2A 7160   4.832   3.843   8.430  0.2829  0.3482  0.1126
  448loPI   C3A 7161   4.836   3.927   8.022 -0.1544  0.2981 -0.0954
  448loPI   C4A 7162   4.816   3.901   7.579 -0.0933  0.5301  0.4750
  448loPI   C5A 7163   5.087   4.065   7.300  0.2211  0.1530  0.0093
  448loPI   C6A 7164   5.233   3.954   6.939 -0.0001 -0.0735 -0.0100
  448loPI   C1B 7165   5.148   4.057   9.137  0.2283 -0.0342  0.0243
  448loPI   C2B 7166   5.137   4.144   8.723 -0.0589  0.0155 -0.2456
  448loPI   C3B 7167   5.181   4.229   8.280 -0.2662 -0.2760  0.0180
  448loPI   C4B 7168   5.169   4.263   7.818  0.0934  0.2370  0.3163
  449loPI    C1 7169   1.879  10.381  10.550 -0.0702  0.0097  0.1741
  449loPI    C2 7170   2.131  10.151  10.759  0.2873  0.1744 -0.0658
  449loPI    C3 7171   1.939  10.453  10.939  0.1731 -0.0195  0.1430
  449loPI   PO4 7172   1.874  10.281  10.341 -0.3376 -0.3045 -0.4048
  449loPI   GL1 7173   2.265  10.248   9.998  0.0791  0.0271  0.0183
  449loPI   GL2 7174   2.569  10.183   9.759  0.1484  0.3872  0.0007
  449loPI   C1A 7175   2.092  10.411   9.600 -0.0154 -0.0212 -0.2468
  449loPI   C2A 7176   1.641  10.386   9.455 -0.2136  0.3782  0.0711
  449loPI   C3A 7177   1.374  10.313   9.263 -0.2263  0.2345 -0.1442
  449loPI   C4A 7178   1.334  10.340   8.847  0.0632  0.0509  0.0381
  449loPI   C5A 7179   1.279  10.331   8.379 -0.2760 -0.3879 -0.0473
  449loPI   C6A 7180   1.104  10.299   7.950 -0.0819 -0.1818 -0.0678
  449loPI   C1B 7181   2.501  10.277   9.327  0.1216 -0.0924  0.4934
  449loPI   C2B 7182   2.731  10.478   9.046  0.1229 -0.4503 -0.0104
  449loPI   C3B 7183   2.685  10.479   8.696 -0.0852 -0.0086 -0.1473
  449loPI   C4B 7184   2.394  10.551   8.248  0.0192  0.0005  0.0052
  450loPI    C1 7185  18.949   7.913  10.383 -0.0747 -0.2161 -0.1958
  450loPI    C2 7186  18.759   7.654  10.621 -0.2476 -0.0330 -0.1312
  450loPI    C3 7187  18.592   8.007  10.537  0.1078  0.1727  0.0040
  450loPI   PO4 7188  19.071   7.908  10.047 -0.3137  0.1924 -0.1762
  450loPI   GL1 7189  18.950   8.221   9.740 -0.1105  0.1156  0.3990
  450loPI   GL2 7190  19.155   8.421   9.811 -0.1092  0.0659  0.1264
  450loPI   C1A 7191  18.761   8.068   9.255 -0.2674  0.0191  0.2989
  450loPI   C2A 7192  18.716   8.107   8.854  0.1142  0.0104  0.0154
  450loPI   C3A 7193  18.825   7.856   8.525 -0.2462  0.4872  0.1333
  450loPI   C4A 7194  18.832   7.819   8.212 -0.1755  0.1061 -0.1125
  450loPI   C5A 7195  19.037   7.654   7.872  0.0362 -0.0756  0.0104
  450loPI   C6A 7196  18.911   7.388   7.458 -0.0720 -0.0423 -0.3065
  450loPI   C1B 7197  19.437   8.331   9.426  0.2521 -0.0824 -0.1717
  450loPI   C2B 7198  19.485   8.305   8.984 -0.1176 -0.2577  0.1853
  450loPI   C3B 7199  19.237   8.298   8.615  0.1224  0.1400  0.2191
  450loPI   C4B 7200  18.947   8.316   8.235  0.4455  0.0699  0.0873
  451loPI    C1 7201  13.890   1.887  10.070  0.0152  0.2334  0.0673
  451loPI    C2 7202  14.218   1.782   9.867  0.0617  0.2627  0.1271
  451loPI    C3 7203  14.249   1.916  10.243 -0.0495 -0.0703  0.2587
  451loPI   PO4 7204  13.678   1.905   9.816 -0.3325  0.1136  0.3027
  451loPI   GL1 7205  13.651   2.048   9.360  0.0635 -0.0751 -0.3931
  451loPI   GL2 7206  13.450   1.944   9.247  0.2501  0.0102 -0.0055
  451loPI   C1A 7207  14.009   2.185   9.135 -0.2799  0.2772 -0.0250
  451loPI   C2A 7208  14.017   2.370   8.704  0.2728  0.1193 -0.0852
  451loPI   C3A 7209  14.142   2.233   8.330 -0.0644  0.1850 -0.4057
  451loPI   C4A 7210  14.113   2.393   7.913 -0.0620 -0.4214 -0.1566
  451loPI   C5A 7211  14.076   2.612   7.502  0.2382  0.1561  0.3356
  451loPI   C6A 7212  13.627   2.732   7.320 -0.0795  0.3290 -0.1602
  451loPI   C1B 7213  13.477   1.824   8.821  0.0427  0.1051  0.1190
  451loPI   C2B 7214  13.314   1.710   8.544 -0.2373  0.1699 -0.0758
  451loPI   C3B 7215  13.240   1.729   8.126 -0.1673  0.0773 -0.1037
  451loPI   C4B 7216  13.438   1.561   7.766  0.1156  0.0309  0.0335
  452loPI    C1 7217  13.372   9.099  10.051  0.1234  0.0785 -0.0629
  452loPI    C2 7218  13.763   9.164  10.098  0.1120  0.0624  0.0547
  452loPI    C3 7219  13.594   8.837  10.255  0.0075  0.1902  0.2124
  452loPI   PO4 7220  13.187   9.177   9.883  0.1991 -0.0319  0.2581
  452loPI   GL1 7221  13.136   9.009   9.546 -0.2842 -0.1934 -0.2202
  452loPI   GL2 7222  13.274   8.838   9.237 -0.3390 -0.1775 -0.0334
  452loPI   C1A 7223  12.924   9.270   9.247  0.1784 -0.1544 -0.1807
  452loPI   C2A 7224  12.808   9.065   8.807  0.3579 -0.1381 -0.2623
  452loPI   C3A 7225  12.792   8.952   8.396 -0.2584 -0.1185  0.1811
  452loPI   C4A 7226  12.778   8.930   7.898 -0.3595 -0.0444 -0.2562
  452loPI   C5A 7227  12.942   8.934   7.570 -0.1588  0.1002  0.2239
  452loPI   C6A 7228  12.981   9.226   7.273  0.2326  0.1929  0.4234
  452loPI   C1B 7229  13.375   8.998   8.813  0.3311 -0.1908  0.0751
  452loPI   C2B 7230  13.397   8.917   8.316  0.1442 -0.1398 -0.1566
  452loPI   C3B 7231  13.407   8.782   7.880  0.0401  0.1759 -0.2742
  452loPI   C4B 7232  13.575   8.776   7.437 -0.2522  0.0209  0.0070
  453loPI    C1 7233   6.336   7.128  10.095  0.2367  0.0554  0.0806
  453loPI    C2 7234   6.336   7.078  10.492  0.1856 -0.2169  0.0480
  453loPI    C3 7235   6.360   7.445  10.337  0.1743 -0.1066  0.3030
  453loPI   PO4 7236   6.270   6.906   9.962  0.1396 -0.2027 -0.2132
  453loPI   GL1 7237   6.079   6.976   9.647  0.2155 -0.0991 -0.1590
  453loPI   GL2 7238   6.272   6.592   9.530 -0.0121 -0.1592 -0.1479
  453loPI   C1A 7239   5.943   6.824   9.247  0.0636 -0.0262  0.0204
  453loPI   C2A 7240   5.938   6.894   8.775  0.0073  0.2161  0.3300
  453loPI   C3A 7241   5.942   6.889   8.453 -0.0195 -0.0138  0.0166
  453loPI   C4A 7242   5.896   7.099   8.081 -0.3286  0.5413  0.1165
  453loPI   C5A 7243   6.220   6.971   7.866  0.1480 -0.0005 -0.0895
  453loPI   C6A 7244   5.950   6.785   7.555 -0.1789  0.2592  0.1716
  453loPI   C1B 7245   6.240   6.400   9.131 -0.1383  0.0585 -0.0694
  453loPI   C2B 7246   6.133   6.458   8.746 -0.1464 -0.1862 -0.0487
  453loPI   C3B 7247   6.111   6.440   8.254 -0.1114  0.1249  0.1748
  453loPI   C4B 7248   6.295   6.432   7.880  0.2676 -0.2521  0.1874
  454loPI    C1 7249   2.292   0.394   9.791  0.0825  0.1440 -0.0273
  454loPI    C2 7250   2.082   0.360  10.130  0.2269 -0.2258  0.0303
  454loPI    C3 7251   2.402   0.600  10.116  0.0300  0.0430  0.0553
  454loPI   PO4 7252   2.161   0.386   9.559 -0.2580  0.1746 -0.1928
  454loPI   GL1 7253   2.306   0.182   9.216  0.1942 -0.2411 -0.2700
  454loPI   GL2 7254   2.492   0.394   9.088  0.0371  0.0221 -0.2475
  454loPI   C1A 7255   1.947   0.113   8.961 -0.2529 -0.0858 -0.4256
  454loPI   C2A 7256   1.854   0.135   8.443  0.0056 -0.2364 -0.0660
  454loPI   C3A 7257   1.989  -0.060   8.164 -0.0718 -0.0406 -0.0853
  454loPI   C4A 7258   2.163   0.080   7.728 -0.1638 -0.0729 -0.1008
  454loPI   C5A 7259   2.302   0.354   7.389  0.1587 -0.0442  0.2171
  454loPI   C6A 7260   2.322   0.720   7.088  0.1243  0.2473  0.2608
  454loPI   C1B 7261   2.315   0.311   8.647 -0.0935  0.3767  0.1168
  454loPI   C2B 7262   2.375   0.197   8.202  0.3794  0.1633 -0.2834
  454loPI   C3B 7263   2.563   0.476   7.900 -0.0955 -0.2728  0.0153
  454loPI   C4B 7264   2.770   0.439   7.575 -0.1425  0.0963  0.0018
  455loPI    C1 7265   2.050   6.699   9.720 -0.0956  0.1407  0.0068
  455loPI    C2 7266   2.439   6.607   9.699 -0.1895 -0.2423 -0.1433
  455loPI    C3 7267   2.285   6.754  10.038  0.1345  0.1640 -0.1646
  455loPI   PO4 7268   1.850   6.576   9.496  0.0613  0.0554  0.1373
  455loPI   GL1 7269   1.790   6.585   9.112  0.1073 -0.1478  0.2815
  455loPI   GL2 7270   2.189   6.594   9.064  0.0267 -0.1709 -0.1063
  455loPI   C1A 7271   1.378   6.524   8.842  0.1167  0.0665 -0.2145
  455loPI   C2A 7272   1.461   6.594   8.399  0.1653  0.1073 -0.1207
  455loPI   C3A 7273   1.585   6.686   8.002  0.2570  0.0641  0.1727
  455loPI   C4A 7274   1.545   6.828   7.596 -0.3773 -0.0695  0.1166
  455loPI   C5A 7275   1.374   6.663   7.186  0.0828  0.3796  0.0998
  455loPI   C6A 7276   1.245   6.268   7.086  0.3029 -0.2269  0.2938
  455loPI   C1B 7277   1.980   6.684   8.612 -0.0250 -0.2981 -0.1085
  455loPI   C2B 7278   2.253   6.801   8.344 -0.2319  0.2349  0.1612
  455loPI   C3B 7279   2.177   6.829   8.036  0.3411 -0.2370 -0.0243
  455loPI   C4B 7280   2.021   6.716   7.664 -0.0197  0.2750  0.0208
  456loPI    C1 7281  16.777  13.414  10.079  0.4744 -0.0522 -0.0221
  456loPI    C2 7282  16.896  13.125  10.329 -0.1102 -0.2217  0.0766
  456loPI    C3 7283  16.786  13.482  10.473 -0.3264 -0.2779  0.0543
  456loPI   PO4 7284  16.630  13.374   9.863  0.2465  0.2528  0.1150
  456loPI   GL1 7285  16.582  13.110   9.553  0.2337  0.0834 -0.0223
  456loPI   GL2 7286  16.725  12.769   9.563 -0.1651  0.3666 -0.1720
  456loPI   C1A 7287  16.413  12.943   9.185  0.0690  0.0943 -0.0382
  456loPI   C2A 7288  16.341  12.973   8.748  0.4012 -0.2420 -0.1890
  456loPI   C3A 7289  16.194  13.001   8.370 -0.3645  0.3833 -0.1052
  456loPI   C4A 7290  16.173  13.157   7.921  0.0313  0.0411 -0.2056
  456loPI   C5A 7291  16.396  13.462   7.538  0.1288  0.0032  0.3587
  456loPI   C6A 7292  16.875  13.625   7.393  0.0693 -0.0926 -0.1319
  456loPI   C1B 7293  16.983  12.480   9.150 -0.2572  0.0392  0.1700
  456loPI   C2B 7294  17.001  12.489   8.808  0.1781 -0.3397 -0.0986
  456loPI   C3B 7295  17.253  12.789   8.531  0.1766 -0.1678 -0.1748
  456loPI   C4B 7296  17.477  12.661   8.110 -0.0739  0.0889 -0.1059
  457loPI    C1 7297  18.711  15.168   9.973  0.1235 -0.1092 -0.2521
  457loPI    C2 7298  18.986  14.979  10.195  0.0740  0.1124  0.0028
  457loPI    C3 7299  18.680  15.167  10.372 -0.2227 -0.0975 -0.2763
  457loPI   PO4 7300  18.859  15.193   9.737  0.0857 -0.0617 -0.0875
  457loPI   GL1 7301  19.159  15.287   9.479 -0.0308 -0.0509  0.0310
  457loPI   GL2 7302  19.555  15.446   9.495  0.1544 -0.1815 -0.0153
  457loPI   C1A 7303  19.170  15.121   9.029  0.0631 -0.4235  0.1048
  457loPI   C2A 7304  19.186  15.138   8.522  0.1342 -0.1479  0.1689
  457loPI   C3A 7305  19.312  15.160   8.062 -0.0256  0.0551  0.1569
  457loPI   C4A 7306  19.419  15.008   7.740  0.0202 -0.0079  0.3194
  457loPI   C5A 7307  19.308  14.935   7.273  0.3107 -0.2168  0.1333
  457loPI   C6A 7308  19.315  14.822   6.858 -0.0795  0.0132 -0.1021
  457loPI   C1B 7309  19.545  15.446   9.104 -0.1193 -0.1877  0.3798
  457loPI   C2B 7310  19.525  15.603   8.697 -0.1108  0.0342 -0.2323
  457loPI   C3B 7311  19.424  15.684   8.321 -0.2710  0.0364 -0.0497
  457loPI   C4B 7312  19.244  15.647   7.977  0.0318 -0.2811 -0.0873
  458loPI    C1 7313   7.404  11.659   9.982 -0.1472  0.1697 -0.0401
  458loPI    C2 7314   7.230  11.657  10.342 -0.1409  0.2223 -0.0367
  458loPI    C3 7315   7.543  11.896  10.272 -0.0165  0.0665 -0.0177
  458loPI   PO4 7316   7.227  11.621   9.831  0.3674  0.0734  0.3229
  458loPI   GL1 7317   7.102  11.762   9.459  0.2594  0.1423  0.0699
  458loPI   GL2 7318   6.945  12.070   9.283  0.0645 -0.0654  0.2139
  458loPI   C1A 7319   7.128  11.447   9.058 -0.0731  0.1190  0.1973
  458loPI   C2A 7320   7.315  11.306   8.609 -0.0848  0.1136 -0.4520
  458loPI   C3A 7321   7.629  11.431   8.271 -0.0014  0.3753  0.1950
  458loPI   C4A 7322   7.759  11.596   7.856  0.3585  0.0981  0.2333
  458loPI   C5A 7323   7.727  11.831   7.455 -0.2008  0.1788 -0.1277
  458loPI   C6A 7324   7.842  12.246   7.258  0.0682  0.0320 -0.0531
  458loPI   C1B 7325   7.160  11.894   8.924  0.0280 -0.0869  0.0361
  458loPI   C2B 7326   7.146  11.762   8.451  0.2444  0.1291  0.0195
  458loPI   C3B 7327   7.214  11.640   8.097  0.0439 -0.0867  0.1753
  458loPI   C4B 7328   7.360  11.466   7.631  0.3139 -0.4825  0.0063
  459loPI    C1 7329   7.474  14.782   9.522 -0.0852 -0.0639  0.1168
  459loPI    C2 7330   7.775  14.617   9.727 -0.1067 -0.1660  0.0671
  459loPI    C3 7331   7.686  14.484   9.361 -0.0864 -0.0032  0.0021
  459loPI   PO4 7332   7.417  15.060   9.446  0.0092  0.2405 -0.1816
  459loPI   GL1 7333   7.546  15.180   9.121  0.2671  0.1885  0.0363
  459loPI   GL2 7334   7.343  15.415   9.103  0.2006 -0.1194  0.1187
  459loPI   C1A 7335   7.619  15.059   8.743  0.0096 -0.1178  0.2696
  459loPI   C2A 7336   7.941  15.018   8.428  0.0684  0.0837 -0.0423
  459loPI   C3A 7337   7.990  14.955   8.034  0.1418 -0.0886  0.3229
  459loPI   C4A 7338   8.149  15.242   7.717 -0.1733 -0.1866 -0.0748
  459loPI   C5A 7339   8.471  15.354   7.449  0.1963 -0.1125 -0.1118
  459loPI   C6A 7340   8.973  15.410   7.462  0.0380 -0.0186 -0.0142
  459loPI   C1B 7341   7.182  15.437   8.714 -0.0352 -0.2654 -0.0446
  459loPI   C2B 7342   7.081  15.510   8.281 -0.0350  0.2550  0.0338
  459loPI   C3B 7343   7.274  15.262   7.833 -0.2684  0.2552 -0.2694
  459loPI   C4B 7344   7.172  15.235   7.459  0.0484 -0.0108 -0.0967
  460loPI    C1 7345  11.480  19.071  10.187  0.1472 -0.1072  0.1042
  460loPI    C2 7346  11.505  19.398  10.416 -0.1576 -0.2045  0.2826
  460loPI    C3 7347  11.758  19.094  10.473 -0.1093 -0.1501  0.3614
  460loPI   PO4 7348  11.499  19.165   9.964  0.1271 -0.1143  0.0086
  460loPI   GL1 7349  11.418  19.304   9.552 -0.2625  0.0862  0.1138
  460loPI   GL2 7350  11.469  18.948   9.509 -0.0710  0.2411 -0.2685
  460loPI   C1A 7351  11.158  19.553   9.438 -0.1240  0.1876  0.0063
  460loPI   C2A 7352  11.161  19.827   9.093 -0.0648 -0.0191 -0.0468
  460loPI   C3A 7353  11.445  19.804   8.745 -0.2238  0.0121  0.0415
  460loPI   C4A 7354  11.487  19.635   8.316 -0.2598  0.1692 -0.3110
  460loPI   C5A 7355  11.249  19.533   7.939  0.0878  0.2085 -0.1455
  460loPI   C6A 7356  10.987  19.231   7.647  0.0588 -0.3594  0.0643
  460loPI   C1B 7357  11.565  18.689   9.098  0.0127 -0.1591  0.2435
  460loPI   C2B 7358  11.609  18.588   8.708 -0.0546  0.0403 -0.2653
  460loPI   C3B 7359  11.856  18.794   8.358  0.0533 -0.2866 -0.1556
  460loPI   C4B 7360  12.120  19.222   8.304  0.0689 -0.3086  0.2330
  461loPI    C1 7361   5.320  13.812   9.811  0.0158 -0.0559 -0.5162
  461loPI    C2 7362   5.011  14.062   9.855  0.2503  0.1685 -0.0851
  461loPI    C3 7363   5.302  14.147   9.594  0.2092  0.2221 -0.1136
  461loPI   PO4 7364   5.233  13.574   9.696 -0.1005 -0.1426 -0.0815
  461loPI   GL1 7365   5.316  13.374   9.188  0.2013  0.1795  0.3234
  461loPI   GL2 7366   5.523  13.649   9.295 -0.2886  0.2120 -0.1381
  461loPI   C1A 7367   4.968  13.200   8.819  0.2571  0.1068  0.1590
  461loPI   C2A 7368   5.095  13.084   8.418 -0.2477  0.1188 -0.1022
  461loPI   C3A 7369   5.324  12.828   8.167  0.0128 -0.2584 -0.1752
  461loPI   C4A 7370   5.359  13.048   7.882  0.0304  0.0392 -0.0533
  461loPI   C5A 7371   5.105  13.028   7.434  0.4077  0.1356  0.0551
  461loPI   C6A 7372   4.791  13.157   7.223 -0.0243  0.2055  0.3069
  461loPI   C1B 7373   5.627  13.607   8.874 -0.0223  0.0806 -0.0506
  461loPI   C2B 7374   5.612  13.217   8.604  0.1890 -0.0408 -0.2855
  461loPI   C3B 7375   5.801  13.106   8.272  0.0542 -0.0197  0.4859
  461loPI   C4B 7376   5.814  13.401   7.925 -0.0326 -0.1458 -0.0331
  462loPI    C1 7377  10.708  18.785  10.067  0.0200  0.1124 -0.0652
  462loPI    C2 7378  10.855  18.424   9.977 -0.1944  0.0661 -0.2365
  462loPI    C3 7379  10.620  18.470  10.298  0.0297  0.1021 -0.0756
  462loPI   PO4 7380  10.633  18.861   9.923 -0.1989 -0.2776 -0.1881
  462loPI   GL1 7381  10.624  18.708   9.532 -0.0754 -0.0773  0.1467
  462loPI   GL2 7382  10.472  18.826   9.300 -0.0087  0.2761  0.0871
  462loPI   C1A 7383  11.043  18.715   9.260  0.0943 -0.0247 -0.0203
  462loPI   C2A 7384  11.147  18.387   8.973 -0.1042 -0.5446 -0.1804
  462loPI   C3A 7385  11.226  18.321   8.540  0.0962 -0.1866  0.2306
  462loPI   C4A 7386  11.522  18.362   8.242  0.2210  0.1507 -0.0987
  462loPI   C5A 7387  11.716  18.612   7.925 -0.1409 -0.0082 -0.1076
  462loPI   C6A 7388  12.078  18.912   7.903  0.1318 -0.0052  0.0739
  462loPI   C1B 7389  10.795  18.872   8.870 -0.1341  0.0331 -0.0048
  462loPI   C2B 7390  11.116  18.810   8.564 -0.3948  0.1043  0.2856
  462loPI   C3B 7391  11.383  18.834   8.237  0.3095 -0.2824 -0.1648
  462loPI   C4B 7392  11.324  18.884   7.750  0.1238 -0.0067 -0.0399
  463loPI    C1 7393   7.413  12.440   9.558 -0.0336 -0.0943 -0.0107
  463loPI    C2 7394   7.504  12.119   9.337 -0.0831 -0.2629  0.2094
  463loPI    C3 7395   7.439  12.079   9.729  0.0002  0.0322  0.2558
  463loPI   PO4 7396   7.281  12.520   9.435  0.3176 -0.1281  0.2299
  463loPI   GL1 7397   7.112  12.495   9.035  0.1088 -0.0363  0.1107
  463loPI   GL2 7398   7.321  12.390   8.913 -0.2079  0.0739 -0.0028
  463loPI   C1A 7399   6.814  12.522   8.832  0.0426 -0.4215 -0.0362
  463loPI   C2A 7400   6.660  12.617   8.537 -0.1772 -0.2678  0.1883
  463loPI   C3A 7401   6.666  12.966   8.220 -0.1752 -0.1702  0.4300
  463loPI   C4A 7402   6.836  12.968   7.792 -0.0991  0.1874  0.0494
  463loPI   C5A 7403   6.799  12.825   7.557 -0.2856 -0.2585 -0.2118
  463loPI   C6A 7404   6.724  12.616   7.255 -0.1766 -0.0564  0.0184
  463loPI   C1B 7405   7.154  12.245   8.535  0.1546 -0.0053 -0.0314
  463loPI   C2B 7406   7.138  12.335   8.106  0.0559 -0.0887 -0.5101
  463loPI   C3B 7407   6.779  12.404   7.871 -0.0312 -0.2761 -0.1906
  463loPI   C4B 7408   6.372  12.582   7.772 -0.1997  0.1312 -0.0191
  464loPI    C1 7409  15.299  13.449  10.354  0.1172 -0.0070 -0.0501
  464loPI    C2 7410  15.534  13.159  10.499  0.0409 -0.0047  0.0798
  464loPI    C3 7411  15.243  13.314  10.726 -0.0231  0.0612 -0.0457
  464loPI   PO4 7412  15.237  13.359  10.144 -0.1083  0.0657  0.1392
  464loPI   GL1 7413  15.379  13.303   9.713 -0.0082 -0.4126 -0.0659
  464loPI   GL2 7414  15.526  13.665   9.728  0.0361  0.0119 -0.0652
  464loPI   C1A 7415  15.247  13.054   9.341  0.0429  0.2091 -0.1865
  464loPI   C2A 7416  15.055  12.719   9.231  0.3906  0.0085  0.0613
  464loPI   C3A 7417  15.009  12.440   8.884  0.1455 -0.1529 -0.0087
  464loPI   C4A 7418  14.994  12.229   8.583  0.1120  0.0659  0.2689
  464loPI   C5A 7419  15.252  11.949   8.151 -0.0999  0.2447 -0.0015
  464loPI   C6A 7420  15.587  11.790   7.903  0.0660 -0.0905  0.2551
  464loPI   C1B 7421  15.586  13.700   9.362  0.1443  0.2895  0.1904
  464loPI   C2B 7422  15.736  13.710   8.928 -0.0385 -0.0678  0.1312
  464loPI   C3B 7423  15.728  13.749   8.547 -0.0584  0.1604  0.1114
  464loPI   C4B 7424  15.396  13.588   8.222  0.1159 -0.0887  0.2129
  465loPI    C1 7425  19.097   8.661  10.249 -0.0051  0.0152  0.0666
  465loPI    C2 7426  19.101   8.851  10.601 -0.0268 -0.0235  0.0878
  465loPI    C3 7427  19.243   9.033  10.275 -0.1618  0.0764  0.0835
  465loPI   PO4 7428  19.312   8.408  10.281 -0.0850  0.0786 -0.0909
  465loPI   GL1 7429  19.531   8.141   9.892 -0.2347  0.2395  0.1882
  465loPI   GL2 7430  19.566   7.895   9.661  0.0452 -0.2071  0.0533
  465loPI   C1A 7431  19.882   8.315   9.750  0.2636 -0.0422 -0.2123
  465loPI   C2A 7432  20.005   8.303   9.345  0.0721  0.1254 -0.5292
  465loPI   C3A 7433  20.229   8.309   8.975 -0.1545 -0.0384  0.1080
  465loPI   C4A 7434  20.353   8.428   8.519  0.2141 -0.1135  0.2456
  465loPI   C5A 7435  20.067   8.489   8.151 -0.1819  0.0893 -0.3235
  465loPI   C6A 7436  19.933   8.772   7.837  0.2006  0.1919 -0.0572
  465loPI   C1B 7437  19.677   7.951   9.270  0.0561 -0.0212  0.2884
  465loPI   C2B 7438  19.859   7.972   8.830 -0.1473 -0.0667 -0.3695
  465loPI   C3B 7439  19.800   8.029   8.456 -0.0367  0.0644 -0.0902
  465loPI   C4B 7440  20.004   8.027   8.101 -0.3090  0.1579 -0.0338
  466loPI    C1 7441  16.000  10.312  10.156 -0.0781  0.0245  0.2560
  466loPI    C2 7442  15.647  10.173  10.282 -0.0358 -0.0865  0.2540
  466loPI    C3 7443  15.862   9.962  10.019 -0.2081  0.2287 -0.1519
  466loPI   PO4 7444  15.984  10.558   9.930  0.1418  0.0449 -0.1030
  466loPI   GL1 7445  15.989  10.796   9.600 -0.1393 -0.0664  0.0857
  466loPI   GL2 7446  16.322  10.747   9.580 -0.0234 -0.2150  0.0680
  466loPI   C1A 7447  16.064  10.702   9.130  0.2275  0.0771 -0.0250
  466loPI   C2A 7448  16.105  10.570   8.708 -0.2166  0.1548  0.2031
  466loPI   C3A 7449  15.971  10.309   8.335  0.3401 -0.0244  0.2194
  466loPI   C4A 7450  15.859  10.418   7.941 -0.1514  0.1918 -0.0587
  466loPI   C5A 7451  15.490  10.401   7.590  0.2607 -0.3379  0.4046
  466loPI   C6A 7452  15.186  10.534   7.271  0.1019 -0.0920  0.1773
  466loPI   C1B 7453  16.560  10.717   9.200  0.1061 -0.0134 -0.0502
  466loPI   C2B 7454  16.574  10.343   8.818  0.1899 -0.1964 -0.0024
  466loPI   C3B 7455  16.416  10.179   8.451  0.3243 -0.0206  0.3313
  466loPI   C4B 7456  16.290  10.057   7.977 -0.0062  0.0050  0.2503
  467loPI    C1 7457  14.068   0.274  10.186 -0.0576 -0.0354 -0.0453
  467loPI    C2 7458  14.290  -0.037  10.069  0.2058  0.0332  0.2569
  467loPI    C3 7459  14.079  -0.058  10.409 -0.3666 -0.0796 -0.0916
  467loPI   PO4 7460  14.033   0.426   9.965  0.2467  0.4234  0.1605
  467loPI   GL1 7461  13.911   0.249   9.672  0.4931 -0.0677  0.1588
  467loPI   GL2 7462  14.046   0.011   9.570 -0.4060  0.1919 -0.3801
  467loPI   C1A 7463  13.464  -0.008   9.483  0.0613 -0.2933  0.2515
  467loPI   C2A 7464  13.301   0.199   9.106  0.1210  0.1312  0.0723
  467loPI   C3A 7465  13.202   0.388   8.792 -0.1289  0.2592 -0.1073
  467loPI   C4A 7466  13.169   0.196   8.398 -0.1302 -0.0183 -0.0051
  467loPI   C5A 7467  13.148   0.018   8.025 -0.0577 -0.0656  0.4800
  467loPI   C6A 7468  13.079  -0.197   7.715 -0.1975  0.0584 -0.1884
  467loPI   C1B 7469  13.918   0.039   9.182 -0.0161 -0.3420  0.0433
  467loPI   C2B 7470  13.701   0.083   8.824 -0.2020  0.2909  0.0119
  467loPI   C3B 7471  13.638  -0.184   8.372  0.1182 -0.0187 -0.3273
  467loPI   C4B 7472  13.479  -0.409   8.045 -0.0288  0.0647 -0.3225
  468loPI    C1 7473   6.805   0.680   9.391 -0.1056  0.1660  0.1066
  468loPI    C2 7474   6.899   0.298   9.466 -0.1063  0.1752  0.1544
  468loPI    C3 7475   6.938   0.574   9.754 -0.1008  0.2121  0.1184
  468loPI   PO4 7476   6.975   0.764   9.151 -0.1610  0.1238  0.0264
  468loPI   GL1 7477   7.140   0.728   8.671 -0.0110 -0.2314  0.1761
  468loPI   GL2 7478   7.011   0.533   8.681  0.2206  0.0352 -0.3107
  468loPI   C1A 7479   7.343   0.655   8.249 -0.1300 -0.0310 -0.0168
  468loPI   C2A 7480   7.242   0.552   7.763 -0.0248 -0.2827 -0.0004
  468loPI   C3A 7481   7.280   0.533   7.310 -0.0117 -0.1045 -0.2085
  468loPI   C4A 7482   7.244   0.233   7.017 -0.2071 -0.2421 -0.0583
  468loPI   C5A 7483   7.060  -0.084   7.100  0.0114  0.2381 -0.1612
  468loPI   C6A 7484   7.080  -0.445   7.301  0.4285  0.0771 -0.5318
  468loPI   C1B 7485   7.171   0.182   8.339 -0.1320  0.0403  0.6719
  468loPI   C2B 7486   7.369   0.078   7.929  0.0454 -0.0594  0.2929
  468loPI   C3B 7487   7.589   0.187   7.589 -0.3024  0.0672 -0.0789
  468loPI   C4B 7488   7.858   0.234   7.254 -0.3292 -0.1358 -0.0549
  469loPI    C1 7489   8.393  14.718   9.598 -0.1315 -0.0591 -0.0958
  469loPI    C2 7490   8.185  14.959   9.840  0.1954  0.0961  0.0353
  469loPI    C3 7491   8.527  14.794   9.967  0.0318 -0.3551 -0.0910
  469loPI   PO4 7492   8.427  14.905   9.403 -0.2313  0.2441 -0.1415
  469loPI   GL1 7493   8.328  14.850   8.948 -0.2725  0.1455 -0.1281
  469loPI   GL2 7494   8.176  15.104   8.964 -0.2724 -0.2358 -0.0960
  469loPI   C1A 7495   7.892  14.682   8.926 -0.1538  0.0744  0.0997
  469loPI   C2A 7496   7.580  14.516   8.700  0.1331 -0.5330  0.1765
  469loPI   C3A 7497   7.554  14.622   8.365  0.0981 -0.0044  0.2957
  469loPI   C4A 7498   7.395  14.791   7.906 -0.2131  0.4258  0.0319
  469loPI   C5A 7499   7.674  15.020   7.599 -0.0825 -0.0148  0.0876
  469loPI   C6A 7500   7.632  15.411   7.510 -0.1551 -0.3075 -0.0912
  469loPI   C1B 7501   8.265  15.350   8.540 -0.3685  0.0144  0.4162
  469loPI   C2B 7502   8.290  15.445   8.127 -0.0834  0.4301  0.0771
  469loPI   C3B 7503   8.299  15.707   7.814  0.3224 -0.2956 -0.0036
  469loPI   C4B 7504   8.120  15.699   7.450 -0.0358  0.2159 -0.0393
  470loPI    C1 7505  11.407   2.460   9.731 -0.0813 -0.1663 -0.1480
  470loPI    C2 7506  11.639   2.778   9.802  0.0183 -0.2510 -0.0897
  470loPI    C3 7507  11.242   2.806   9.845  0.0057 -0.0736 -0.3002
  470loPI   PO4 7508  11.392   2.408   9.518  0.2226 -0.0972  0.1053
  470loPI   GL1 7509  11.482   2.286   9.219  0.1267  0.1517 -0.2524
  470loPI   GL2 7510  11.332   2.555   8.997  0.1579  0.1581 -0.3605
  470loPI   C1A 7511  11.683   2.399   8.753  0.0358  0.1808 -0.1628
  470loPI   C2A 7512  11.844   2.408   8.342 -0.0407 -0.0527  0.0883
  470loPI   C3A 7513  11.811   2.602   7.966 -0.0770  0.3838  0.0241
  470loPI   C4A 7514  11.803   2.561   7.413 -0.2222 -0.0067 -0.1945
  470loPI   C5A 7515  11.534   2.645   7.062 -0.0597  0.0476  0.0933
  470loPI   C6A 7516  11.279   2.919   6.786  0.1003 -0.3668 -0.1934
  470loPI   C1B 7517  11.293   2.465   8.475 -0.1455 -0.1497 -0.1238
  470loPI   C2B 7518  11.394   2.246   8.112 -0.2186 -0.0792 -0.1917
  470loPI   C3B 7519  11.425   2.477   7.726 -0.2618  0.2993  0.1792
  470loPI   C4B 7520  11.182   2.534   7.394 -0.0454 -0.2314  0.0711
  471loPI    C1 7521   4.687   9.025  10.411  0.3545 -0.0867 -0.1968
  471loPI    C2 7522   4.751   9.190  10.769 -0.0476 -0.0705 -0.1286
  471loPI    C3 7523   5.020   8.938  10.615  0.1716 -0.0077  0.1428
  471loPI   PO4 7524   4.592   9.276  10.285  0.0719  0.2506 -0.1971
  471loPI   GL1 7525   4.481   9.458   9.899  0.0902  0.1538 -0.0511
  471loPI   GL2 7526   4.229   9.736   9.869 -0.0690 -0.3071  0.2225
  471loPI   C1A 7527   4.430   9.483   9.458  0.1006  0.0059 -0.0777
  471loPI   C2A 7528   4.593   9.424   8.971 -0.0545 -0.2175  0.0594
  471loPI   C3A 7529   4.786   9.461   8.610  0.1432 -0.0125 -0.0127
  471loPI   C4A 7530   4.944   9.381   8.217 -0.1361 -0.3509  0.3316
  471loPI   C5A 7531   4.986   9.241   7.742  0.0346  0.1350  0.0547
  471loPI   C6A 7532   4.942   9.159   7.303  0.0297  0.0719 -0.0831
  471loPI   C1B 7533   4.063   9.915   9.587 -0.2831 -0.1680  0.0476
  471loPI   C2B 7534   4.273   9.896   9.179  0.0336  0.0606  0.2298
  471loPI   C3B 7535   4.373   9.807   8.723 -0.4098  0.0973  0.2378
  471loPI   C4B 7536   4.366   9.767   8.237 -0.0746 -0.1045 -0.1159
  472loPI    C1 7537   5.537  13.296  10.173 -0.1913  0.2049  0.0948
  472loPI    C2 7538   5.596  13.681  10.264  0.2820  0.0875  0.3197
  472loPI    C3 7539   5.885  13.413  10.332  0.1136 -0.2454 -0.2167
  472loPI   PO4 7540   5.535  13.250   9.906 -0.4213 -0.2158  0.2300
  472loPI   GL1 7541   5.597  13.196   9.514 -0.0357 -0.1450 -0.3105
  472loPI   GL2 7542   5.949  13.060   9.417 -0.4682  0.0004 -0.3159
  472loPI   C1A 7543   5.593  12.991   9.065 -0.3491 -0.0855  0.1766
  472loPI   C2A 7544   5.553  12.765   8.710 -0.2932  0.2594 -0.1362
  472loPI   C3A 7545   5.768  12.499   8.435  0.0760  0.0661  0.3811
  472loPI   C4A 7546   5.700  12.376   8.074  0.2835 -0.0422 -0.2466
  472loPI   C5A 7547   5.414  12.566   7.769  0.0788  0.0630 -0.0292
  472loPI   C6A 7548   5.137  12.493   7.578  0.0923  0.2049 -0.1108
  472loPI   C1B 7549   6.104  13.128   9.010  0.2154  0.1224  0.0679
  472loPI   C2B 7550   6.042  12.808   8.669  0.2398 -0.0434  0.1304
  472loPI   C3B 7551   6.168  12.755   8.215  0.0510  0.0763 -0.1184
  472loPI   C4B 7552   5.933  12.782   7.939  0.0087  0.0699  0.1324
  473loPI    C1 7553   9.159  16.667   9.514 -0.2428  0.0182 -0.1888
  473loPI    C2 7554   8.870  16.519   9.747 -0.1331 -0.0735 -0.1094
  473loPI    C3 7555   8.891  16.913   9.680 -0.1879 -0.0504  0.0053
  473loPI   PO4 7556   9.441  16.533   9.604  0.1352 -0.0301  0.1561
  473loPI   GL1 7557   9.797  16.241   9.266 -0.1369  0.3983 -0.1272
  473loPI   GL2 7558  10.023  16.066   9.479  0.1134 -0.3721 -0.0694
  473loPI   C1A 7559   9.846  16.007   8.849 -0.2353 -0.1730 -0.0399
  473loPI   C2A 7560  10.144  15.945   8.551 -0.1884  0.0284 -0.1572
  473loPI   C3A 7561  10.273  15.667   8.187 -0.0119 -0.1754 -0.1110
  473loPI   C4A 7562  10.388  15.614   7.761 -0.1090  0.0313  0.0736
  473loPI   C5A 7563  10.607  15.803   7.467 -0.0155  0.0515  0.4142
  473loPI   C6A 7564  10.474  16.017   7.150 -0.1617 -0.1605  0.2283
  473loPI   C1B 7565  10.297  16.040   9.008  0.2076 -0.0788 -0.1404
  473loPI   C2B 7566  10.640  16.110   8.753  0.2846 -0.1862  0.0643
  473loPI   C3B 7567  10.604  16.095   8.433 -0.0367 -0.0396  0.0052
  473loPI   C4B 7568  10.608  16.167   8.027  0.0330 -0.0983  0.2949
  474POPI    C1 7569  15.189   3.001  10.211  0.0734 -0.2450  0.4048
  474POPI    C2 7570  14.924   3.223  10.412  0.0793 -0.0231  0.1740
  474POPI    C3 7571  15.151   2.957  10.607 -0.1446 -0.0474  0.4082
  474POPI   PO4 7572  15.052   3.018   9.907 -0.2244 -0.3809 -0.1518
  474POPI   GL1 7573  15.116   2.930   9.376 -0.2605  0.0552  0.1066
  474POPI   GL2 7574  15.024   2.940   9.051 -0.0294  0.0367  0.1363
  474POPI   C1A 7575  15.408   2.656   9.227 -0.0522  0.0866  0.3454
  474POPI   D2A 7576  15.573   2.360   9.084 -0.1017  0.2780  0.3222
  474POPI   C3A 7577  15.489   2.354   8.586 -0.0360 -0.0770 -0.3529
  474POPI   C4A 7578  15.504   2.278   8.143  0.0507  0.2879 -0.1487
  474POPI   C1B 7579  15.186   2.716   8.716 -0.0684 -0.1147  0.0197
  474POPI   C2B 7580  15.170   2.757   8.276  0.1400 -0.1118 -0.1430
  474POPI   C3B 7581  15.101   2.618   8.006  0.1568  0.4139  0.3964
  474POPI   C4B 7582  15.081   2.199   7.905 -0.3731  0.0217  0.1085
  475POPI    C1 7583   5.847  12.022  10.091 -0.2652 -0.0448 -0.1992
  475POPI    C2 7584   5.529  12.032  10.334 -0.0180  0.0746  0.1265
  475POPI    C3 7585   5.747  12.363  10.277  0.2674 -0.0959  0.2057
  475POPI   PO4 7586   5.663  11.902   9.840 -0.2072  0.0998 -0.2131
  475POPI   GL1 7587   5.720  11.620   9.404 -0.0149 -0.3027 -0.1787
  475POPI   GL2 7588   5.887  11.998   9.384 -0.0654  0.2398 -0.2501
  475POPI   C1A 7589   5.808  11.504   8.980  0.2381  0.2327 -0.2888
  475POPI   D2A 7590   5.831  11.336   8.585  0.2223 -0.3420  0.1256
  475POPI   C3A 7591   5.914  11.272   8.202  0.0847 -0.2063  0.0688
  475POPI   C4A 7592   6.057  11.366   7.828  0.1981  0.3611 -0.3669
  475POPI   C1B 7593   6.138  11.863   9.033  0.2396 -0.0135 -0.1484
  475POPI   C2B 7594   6.253  11.724   8.654  0.4950  0.1398 -0.3120
  475POPI   C3B 7595   6.351  11.703   8.236  0.4540  0.1718 -0.3744
  475POPI   C4B 7596   6.454  11.705   7.663 -0.2435 -0.1909  0.1198
  476POPI    C1 7597  15.224   1.699   9.853  0.2183  0.0812  0.2264
  476POPI    C2 7598  15.071   1.609  10.212  0.1306 -0.2548  0.1082
  476POPI    C3 7599  15.465   1.665  10.170  0.1074  0.0897  0.3124
  476POPI   PO4 7600  15.218   1.523   9.703  0.0472 -0.0168  0.3320
  476POPI   GL1 7601  14.931   1.527   9.345 -0.0142 -0.0202 -0.0004
  476POPI   GL2 7602  14.987   1.850   9.406  0.0647 -0.0129  0.1916
  476POPI   C1A 7603  14.812   1.406   8.927 -0.0661 -0.4058  0.3718
  476POPI   D2A 7604  14.724   1.234   8.566 -0.3942  0.0893 -0.2927
  476POPI   C3A 7605  14.572   1.167   8.036 -0.1785  0.0711  0.0558
  476POPI   C4A 7606  14.320   1.507   7.895 -0.1326  0.0944 -0.2776
  476POPI   C1B 7607  15.120   1.828   8.923 -0.0448 -0.1540  0.3238
  476POPI   C2B 7608  15.339   1.866   8.528  0.2588  0.1179  0.0672
  476POPI   C3B 7609  15.287   1.820   8.078 -0.0265  0.1939 -0.0479
  476POPI   C4B 7610  15.053   1.787   7.696  0.3658 -0.0926  0.2480
  477POPI    C1 7611  12.607   0.575  10.006 -0.0630 -0.0411  0.0068
  477POPI    C2 7612  12.513   0.935  10.153  0.0009  0.0182 -0.0965
  477POPI    C3 7613  12.627   0.898   9.772 -0.2266 -0.1437 -0.1516
  477POPI   PO4 7614  12.459   0.457  10.005  0.3435  0.4194  0.5152
  477POPI   GL1 7615  12.218   0.394   9.719 -0.0336  0.2001  0.1921
  477POPI   GL2 7616  11.978   0.125   9.713 -0.2655  0.1898 -0.1194
  477POPI   C1A 7617  12.336   0.277   9.300  0.1530 -0.0408  0.4455
  477POPI   D2A 7618  12.292   0.152   8.842  0.0017 -0.0220 -0.0240
  477POPI   C3A 7619  12.410  -0.161   9.080 -0.0062 -0.0202  0.0752
  477POPI   C4A 7620  12.507  -0.128   9.527 -0.1293 -0.0670  0.0642
  477POPI   C1B 7621  11.952  -0.132   9.250 -0.0805  0.3374 -0.0017
  477POPI   C2B 7622  11.906  -0.210   8.865  0.0559  0.0848  0.1841
  477POPI   C3B 7623  11.602   0.036   8.622 -0.2412 -0.3266  0.1098
  477POPI   C4B 7624  11.648   0.093   8.160  0.1060  0.2801  0.0908
  478POPI    C1 7625  14.266   1.284  10.019 -0.0844 -0.1948 -0.0627
  478POPI    C2 7626  14.544   1.481  10.229 -0.0154 -0.3319 -0.0244
  478POPI    C3 7627  14.374   1.152  10.381 -0.1724 -0.2694 -0.0634
  478POPI   PO4 7628  14.381   1.297   9.727  0.3488  0.0635 -0.2640
  478POPI   GL1 7629  14.113   1.390   9.515  0.1853  0.0039 -0.1744
  478POPI   GL2 7630  13.966   1.645   9.498  0.0005  0.1708  0.2012
  478POPI   C1A 7631  14.289   1.357   9.141  0.1916  0.0426 -0.2245
  478POPI   D2A 7632  14.199   1.363   8.737 -0.2290 -0.0160 -0.1137
  478POPI   C3A 7633  14.217   1.274   8.358  0.0264 -0.0282  0.2000
  478POPI   C4A 7634  14.044   1.055   7.915 -0.0055  0.1671  0.0960
  478POPI   C1B 7635  13.916   1.617   9.076  0.0490  0.0646  0.0388
  478POPI   C2B 7636  13.985   1.849   8.657 -0.1372 -0.1916  0.2790
  478POPI   C3B 7637  14.007   1.735   8.265  0.2239  0.4141  0.0635
  478POPI   C4B 7638  13.830   1.671   8.011  0.1344 -0.1212 -0.5211
  479POPI    C1 7639  12.277  10.752  10.092 -0.0077 -0.0906 -0.0912
  479POPI    C2 7640  12.166  10.469  10.353 -0.0673 -0.0837 -0.1088
  479POPI    C3 7641  12.305  10.820  10.485 -0.2185 -0.0317 -0.0849
  479POPI   PO4 7642  12.053  10.758   9.961 -0.2470 -0.0089 -0.1415
  479POPI   GL1 7643  11.993  10.807   9.491  0.1114 -0.0980  0.0435
  479POPI   GL2 7644  12.233  11.081   9.218 -0.2846  0.1933  0.2480
  479POPI   C1A 7645  11.986  10.692   9.034  0.1680 -0.0900  0.2752
  479POPI   D2A 7646  11.774  10.369   8.836 -0.0848 -0.2792  0.0238
  479POPI   C3A 7647  11.930  10.070   8.469  0.0715 -0.1491  0.1949
  479POPI   C4A 7648  12.407  10.069   8.309  0.0853  0.1075  0.1151
  479POPI   C1B 7649  12.469  11.362   8.946  0.1306  0.0238 -0.0770
  479POPI   C2B 7650  12.449  11.511   8.551  0.0042  0.0872 -0.1861
  479POPI   C3B 7651  12.486  11.618   8.061  0.1668  0.0886 -0.4159
  479POPI   C4B 7652  12.615  11.770   7.672  0.2731  0.0666  0.1804
  480POPI    C1 7653  10.567  10.095   9.865 -0.0152 -0.1051 -0.2173
  480POPI    C2 7654  10.393  10.268  10.181 -0.0526  0.0585 -0.3261
  480POPI    C3 7655  10.786  10.194  10.185 -0.1423 -0.4462 -0.0201
  480POPI   PO4 7656  10.399  10.245   9.648 -0.1166  0.3431  0.2339
  480POPI   GL1 7657  10.361  10.131   9.294  0.0062  0.0888 -0.0508
  480POPI   GL2 7658  10.680  10.221   9.098 -0.2050  0.0652 -0.1703
  480POPI   C1A 7659  10.228  10.092   8.823  0.1268  0.0188 -0.1592
  480POPI   D2A 7660  10.381  10.199   8.474 -0.3069 -0.0119 -0.0436
  480POPI   C3A 7661  10.563  10.193   8.070 -0.0007  0.2205 -0.2641
  480POPI   C4A 7662  10.625  10.071   7.598 -0.1217 -0.1173  0.0153
  480POPI   C1B 7663  10.688   9.939   8.769  0.1096 -0.0412 -0.1777
  480POPI   C2B 7664  10.838   9.937   8.370  0.3258  0.3295 -0.1695
  480POPI   C3B 7665  10.907   9.651   7.977 -0.3771  0.0039  0.0084
  480POPI   C4B 7666  11.279   9.429   7.850  0.1817 -0.2421 -0.0690
  481POPI    C1 7667  17.213  18.357   9.715  0.0585  0.0217  0.0197
  481POPI    C2 7668  17.396  18.274  10.061  0.0654 -0.1442 -0.0227
  481POPI    C3 7669  17.256  18.643   9.992 -0.2788 -0.2037  0.3156
  481POPI   PO4 7670  17.382  18.224   9.548  0.0136 -0.0273 -0.0596
  481POPI   GL1 7671  17.654  18.322   9.241  0.2887  0.0859 -0.0161
  481POPI   GL2 7672  17.910  18.145   9.321  0.0633 -0.1926  0.2497
  481POPI   C1A 7673  17.742  18.105   8.850  0.1806  0.0553 -0.0599
  481POPI   D2A 7674  17.596  18.163   8.427  0.0511 -0.2200 -0.0031
  481POPI   C3A 7675  17.782  18.514   8.200  0.0117 -0.0311 -0.1352
  481POPI   C4A 7676  17.596  18.869   8.072 -0.2253  0.1137  0.2355
  481POPI   C1B 7677  18.108  18.508   9.022 -0.1054 -0.1719 -0.1737
  481POPI   C2B 7678  18.063  18.565   8.604 -0.1133 -0.1525  0.0672
  481POPI   C3B 7679  18.214  18.244   8.296 -0.0126 -0.0095 -0.0808
  481POPI   C4B 7680  18.239  18.117   7.803  0.2976  0.4406 -0.4286
  482POPI    C1 7681   1.208   1.375   9.933  0.3826 -0.1008 -0.1677
  482POPI    C2 7682   1.002   1.673  10.102  0.1211 -0.1320 -0.4236
  482POPI    C3 7683   1.370   1.584  10.233 -0.0322 -0.0896  0.0546
  482POPI   PO4 7684   1.141   1.411   9.647  0.3041  0.2100  0.1052
  482POPI   GL1 7685   1.128   1.547   9.276  0.1070  0.0825  0.3698
  482POPI   GL2 7686   0.977   1.960   9.193 -0.3069  0.0852 -0.1330
  482POPI   C1A 7687   0.882   1.421   8.937  0.1468 -0.2604 -0.0637
  482POPI   D2A 7688   0.946   1.283   8.584  0.1247  0.1515 -0.0450
  482POPI   C3A 7689   1.052   1.367   8.248  0.3144  0.2724  0.0656
  482POPI   C4A 7690   1.085   1.267   7.768  0.2759  0.2050 -0.2852
  482POPI   C1B 7691   1.242   1.719   8.809 -0.2338 -0.0278  0.0936
  482POPI   C2B 7692   1.322   1.705   8.445 -0.0974  0.0085 -0.3788
  482POPI   C3B 7693   1.191   1.767   7.905  0.0949 -0.2666 -0.1742
  482POPI   C4B 7694   1.260   1.976   7.538 -0.4603  0.1363 -0.1509
  483POPI    C1 7695  15.955   8.687   9.628  0.0969  0.0797 -0.1371
  483POPI    C2 7696  16.145   8.897   9.910 -0.1643  0.3180 -0.1339
  483POPI    C3 7697  15.764   8.981   9.821 -0.3223 -0.2526 -0.0318
  483POPI   PO4 7698  16.035   8.754   9.449  0.0712  0.1497  0.0444
  483POPI   GL1 7699  16.078   8.768   9.048 -0.0157 -0.0819 -0.2015
  483POPI   GL2 7700  15.849   9.130   9.042  0.0151 -0.2806 -0.1454
  483POPI   C1A 7701  15.895   8.531   8.687  0.1255 -0.0430 -0.0242
  483POPI   D2A 7702  15.863   8.585   8.257 -0.0808 -0.0586  0.0397
  483POPI   C3A 7703  16.035   8.467   7.964 -0.3460  0.0187 -0.0913
  483POPI   C4A 7704  15.973   8.344   7.562 -0.0703 -0.3107 -0.0118
  483POPI   C1B 7705  15.877   9.008   8.655 -0.2334 -0.3072 -0.0447
  483POPI   C2B 7706  15.843   9.134   8.250 -0.4554  0.0727  0.0354
  483POPI   C3B 7707  16.046   9.137   7.888  0.1538  0.2107  0.1998
  483POPI   C4B 7708  16.185   8.921   7.526 -0.1712  0.2367 -0.0093
  484POPI    C1 7709   4.998  14.895   9.808  0.1081  0.2509  0.1050
  484POPI    C2 7710   5.275  15.136   9.965 -0.0060  0.1706  0.4391
  484POPI    C3 7711   4.990  14.981  10.198 -0.3034  0.2098  0.1107
  484POPI   PO4 7712   5.078  14.866   9.527 -0.0909 -0.1099  0.0589
  484POPI   GL1 7713   5.390  14.978   9.161 -0.0951 -0.0729  0.4671
  484POPI   GL2 7714   5.193  15.152   8.954 -0.1293  0.3344 -0.0567
  484POPI   C1A 7715   5.439  14.892   8.675  0.0497 -0.1764 -0.0256
  484POPI   D2A 7716   5.440  14.541   8.399  0.2783  0.5236  0.0056
  484POPI   C3A 7717   5.573  14.389   7.996 -0.0147  0.1546  0.2085
  484POPI   C4A 7718   5.567  14.260   7.574  0.3407 -0.4374 -0.0873
  484POPI   C1B 7719   5.163  15.269   8.597 -0.0628  0.0867 -0.1813
  484POPI   C2B 7720   5.259  15.120   8.147 -0.0014 -0.3501  0.0755
  484POPI   C3B 7721   5.589  14.935   8.122 -0.0003  0.1401  0.2447
  484POPI   C4B 7722   5.752  14.725   7.729 -0.2260 -0.3697  0.0437
  485POPI    C1 7723  18.176   8.595  10.098 -0.0870  0.1701 -0.0961
  485POPI    C2 7724  17.854   8.415  10.251 -0.1279  0.1739 -0.1769
  485POPI    C3 7725  18.219   8.317  10.383 -0.1517  0.0564 -0.1965
  485POPI   PO4 7726  18.102   8.635   9.813 -0.2032 -0.0808 -0.0652
  485POPI   GL1 7727  18.166   8.506   9.469 -0.2306 -0.0324  0.0642
  485POPI   GL2 7728  18.450   8.328   9.520  0.3167 -0.0730 -0.2880
  485POPI   C1A 7729  18.004   8.786   9.134  0.5085 -0.0368  0.0610
  485POPI   D2A 7730  17.974   8.855   8.696 -0.0170  0.3592  0.0362
  485POPI   C3A 7731  18.230   8.710   8.270  0.1338 -0.0986  0.0101
  485POPI   C4A 7732  18.193   8.580   7.897  0.1927  0.1307  0.2453
  485POPI   C1B 7733  18.454   8.444   9.069 -0.1064 -0.0406  0.0277
  485POPI   C2B 7734  18.376   8.459   8.691  0.3752  0.1544  0.3606
  485POPI   C3B 7735  18.437   8.238   8.329 -0.1022 -0.2535 -0.1479
  485POPI   C4B 7736  18.449   8.133   8.021 -0.1992  0.1631 -0.0102
  486POPI    C1 7737   5.927   9.232  10.478  0.0551  0.0662 -0.0372
  486POPI    C2 7738   5.587   9.420  10.575 -0.0372 -0.1465  0.0614
  486POPI    C3 7739   5.941   9.587  10.661 -0.1158  0.0557 -0.0021
  486POPI   PO4 7740   5.906   9.185  10.214  0.4125  0.2847 -0.1032
  486POPI   GL1 7741   5.805   9.280   9.781  0.1140  0.0300 -0.2210
  486POPI   GL2 7742   6.048   9.190   9.776  0.2088 -0.1796 -0.2876
  486POPI   C1A 7743   5.433   9.188   9.674  0.2209 -0.3255  0.1704
  486POPI   D2A 7744   5.271   8.819   9.539 -0.0350  0.3836  0.4038
  486POPI   C3A 7745   5.376   8.869   9.069 -0.0960  0.0297 -0.1539
  486POPI   C4A 7746   5.700   8.994   8.704 -0.1283 -0.0038  0.2844
  486POPI   C1B 7747   6.154   9.148   9.381 -0.0049 -0.3612 -0.3284
  486POPI   C2B 7748   6.077   8.917   9.061 -0.0693  0.1029 -0.0954
  486POPI   C3B 7749   6.232   8.728   8.706  0.1145  0.0964  0.2747
  486POPI   C4B 7750   6.381   8.515   8.388 -0.0203  0.0403  0.0555
  487POPI    C1 7751  12.316   3.315   9.691 -0.2520  0.1577  0.1643
  487POPI    C2 7752  12.529   3.320  10.030  0.2184  0.1322 -0.1216
  487POPI    C3 7753  12.372   3.659   9.887 -0.5020  0.0530  0.4259
  487POPI   PO4 7754  12.470   3.229   9.470 -0.0912  0.1542 -0.0424
  487POPI   GL1 7755  12.424   3.171   8.962  0.2228 -0.3097  0.2905
  487POPI   GL2 7756  12.204   3.452   9.070 -0.0250 -0.2013 -0.1194
  487POPI   C1A 7757  12.501   3.156   8.548 -0.1099  0.1528 -0.1695
  487POPI   D2A 7758  12.384   3.071   8.108 -0.2553  0.2060 -0.0592
  487POPI   C3A 7759  12.623   3.026   7.758 -0.3581  0.0860 -0.0789
  487POPI   C4A 7760  12.750   2.858   7.307  0.0213  0.0148 -0.2398
  487POPI   C1B 7761  12.231   3.696   8.779  0.2053 -0.2902  0.1281
  487POPI   C2B 7762  12.144   3.988   8.396  0.1761  0.6162 -0.1732
  487POPI   C3B 7763  12.116   4.287   8.042  0.2177  0.0226  0.1454
  487POPI   C4B 7764  12.269   4.476   7.635  0.0797  0.1564 -0.1629
  488POPI    C1 7765  11.072   3.766   9.614  0.1174 -0.1295 -0.0521
  488POPI    C2 7766  11.330   3.633   9.339  0.1089 -0.0670 -0.0904
  488POPI    C3 7767  11.446   3.673   9.719  0.2207  0.1672 -0.1470
  488POPI   PO4 7768  10.929   3.923   9.505  0.2026 -0.0189  0.0291
  488POPI   GL1 7769  10.838   3.779   9.089 -0.0912 -0.4024 -0.1384
  488POPI   GL2 7770  10.733   3.529   8.970 -0.0109 -0.1273  0.2482
  488POPI   C1A 7771  10.915   3.883   8.597 -0.0206 -0.1872 -0.0982
  488POPI   D2A 7772  11.203   3.793   8.239  0.0224  0.0581 -0.2479
  488POPI   C3A 7773  11.480   3.477   8.148  0.0004 -0.0535 -0.0484
  488POPI   C4A 7774  11.658   3.419   7.683 -0.2865 -0.1557  0.0486
  488POPI   C1B 7775  10.857   3.386   8.601  0.0373 -0.1362  0.0804
  488POPI   C2B 7776  10.874   3.454   8.153  0.2425  0.0858 -0.1055
  488POPI   C3B 7777  10.946   3.380   7.682  0.1542 -0.1606  0.0403
  488POPI   C4B 7778  10.723   3.217   7.381  0.0648  0.1477 -0.1158
  489POPI    C1 7779  16.066   3.736   9.705  0.0350  0.1301  0.0925
  489POPI    C2 7780  15.899   3.396   9.578 -0.3974  0.3299  0.1080
  489POPI    C3 7781  16.150   3.392   9.890 -0.0255 -0.0364 -0.1847
  489POPI   PO4 7782  16.156   3.871   9.547  0.1178  0.0533 -0.0681
  489POPI   GL1 7783  16.311   3.870   9.161 -0.0011 -0.0544  0.0482
  489POPI   GL2 7784  16.146   3.531   9.192 -0.0039  0.0541 -0.0378
  489POPI   C1A 7785  16.481   4.114   8.819  0.1611  0.0806  0.1045
  489POPI   D2A 7786  16.375   4.049   8.430  0.2809 -0.0400  0.1245
  489POPI   C3A 7787  16.290   4.245   8.017 -0.0595  0.0644 -0.1239
  489POPI   C4A 7788  16.380   4.604   7.876  0.3702  0.0570  0.1210
  489POPI   C1B 7789  15.864   3.405   8.828 -0.3537 -0.0952  0.0073
  489POPI   C2B 7790  15.923   3.505   8.409 -0.0958  0.1714 -0.1667
  489POPI   C3B 7791  15.966   3.805   8.032  0.0977 -0.2561  0.6535
  489POPI   C4B 7792  15.922   3.890   7.536 -0.2753  0.3080  0.2540
  490POPI    C1 7793  16.752  17.080  10.303  0.1010  0.1699  0.0151
  490POPI    C2 7794  16.822  16.688  10.267 -0.0294  0.1391  0.0883
  490POPI    C3 7795  17.107  16.931  10.409  0.1352  0.1081 -0.1819
  490POPI   PO4 7796  16.677  17.175  10.022 -0.4753  0.3021  0.0141
  490POPI   GL1 7797  16.696  17.299   9.663 -0.2048  0.0265  0.2907
  490POPI   GL2 7798  17.033  17.324   9.662 -0.0918  0.0415 -0.0022
  490POPI   C1A 7799  16.309  17.341   9.457 -0.3033  0.2119  0.3174
  490POPI   D2A 7800  15.911  17.554   9.362  0.0318 -0.1954 -0.0844
  490POPI   C3A 7801  15.753  17.814   9.006  0.0967 -0.1100 -0.2168
  490POPI   C4A 7802  15.579  17.812   8.588 -0.0365  0.2590 -0.0017
  490POPI   C1B 7803  16.968  17.407   9.253 -0.1383 -0.1974  0.0067
  490POPI   C2B 7804  16.749  17.405   9.017  0.1373  0.4551 -0.2280
  490POPI   C3B 7805  16.343  17.302   8.917  0.0751  0.2422 -0.0215
  490POPI   C4B 7806  16.111  17.387   8.573 -0.1805 -0.0219  0.0378
  491POPI    C1 7807  17.386   3.304   9.467 -0.0815 -0.2385  0.0361
  491POPI    C2 7808  17.343   3.010   9.734  0.2700 -0.1454  0.2015
  491POPI    C3 7809  17.656   3.010   9.486  0.0881 -0.0889 -0.0322
  491POPI   PO4 7810  17.183   3.432   9.316  0.1174 -0.2247  0.2347
  491POPI   GL1 7811  16.870   3.828   9.153 -0.2250  0.0123  0.0623
  491POPI   GL2 7812  17.243   3.791   8.918 -0.0272 -0.0538 -0.0558
  491POPI   C1A 7813  16.856   3.709   8.709  0.1401  0.2982  0.1728
  491POPI   D2A 7814  16.867   3.640   8.282 -0.1513 -0.1776  0.3547
  491POPI   C3A 7815  16.664   3.937   7.985 -0.0198  0.4336 -0.3042
  491POPI   C4A 7816  16.510   4.149   7.596  0.0389  0.2597 -0.1368
  491POPI   C1B 7817  17.448   3.866   8.585 -0.0376 -0.3752  0.2093
  491POPI   C2B 7818  17.553   3.814   8.193 -0.0638  0.0934 -0.0886
  491POPI   C3B 7819  17.721   3.927   7.884  0.0086  0.1090 -0.1540
  491POPI   C4B 7820  17.862   4.333   7.630 -0.2622  0.0797 -0.1140
  492POPI    C1 7821  12.158  13.562   9.851 -0.1813 -0.2214  0.3656
  492POPI    C2 7822  12.217  13.220   9.653  0.1447  0.0209  0.0302
  492POPI    C3 7823  12.303  13.243  10.043  0.2202 -0.2491  0.0314
  492POPI   PO4 7824  12.257  13.693   9.729  0.1783  0.4302 -0.2833
  492POPI   GL1 7825  12.367  13.524   9.275  0.2625  0.1027  0.3661
  492POPI   GL2 7826  12.555  13.820   9.340  0.0699  0.2698 -0.0101
  492POPI   C1A 7827  12.178  13.635   8.899 -0.1077  0.1389  0.1089
  492POPI   D2A 7828  11.803  13.701   8.635 -0.1683  0.0910 -0.1736
  492POPI   C3A 7829  11.737  13.781   8.259  0.1477 -0.0744  0.3262
  492POPI   C4A 7830  11.611  13.908   7.828  0.1998  0.2821 -0.1254
  492POPI   C1B 7831  12.623  13.758   8.941 -0.5541 -0.0251  0.0896
  492POPI   C2B 7832  12.614  13.606   8.552  0.1390 -0.0282 -0.1279
  492POPI   C3B 7833  12.236  13.595   8.376  0.1947  0.0469 -0.2287
  492POPI   C4B 7834  12.062  13.638   7.952 -0.2756 -0.2220  0.0624
  493POPI    C1 7835  16.545   8.641   9.706  0.0889 -0.2997 -0.0999
  493POPI    C2 7836  16.662   8.264   9.768 -0.1881 -0.3554  0.1027
  493POPI    C3 7837  16.333   8.403   9.947  0.0832  0.0786  0.2794
  493POPI   PO4 7838  16.520   8.680   9.539  0.1699 -0.2789  0.0179
  493POPI   GL1 7839  16.614   8.538   9.174  0.3257  0.0705  0.1735
  493POPI   GL2 7840  16.596   8.250   9.205  0.0311  0.0700  0.1624
  493POPI   C1A 7841  16.387   8.476   8.722 -0.1525 -0.3943  0.1692
  493POPI   D2A 7842  16.409   8.365   8.299  0.0865 -0.0694 -0.1388
  493POPI   C3A 7843  16.663   8.067   8.145 -0.3326 -0.2483 -0.0897
  493POPI   C4A 7844  16.671   7.915   7.736 -0.0523  0.1063  0.5095
  493POPI   C1B 7845  16.613   7.878   9.006 -0.0921  0.3653  0.0479
  493POPI   C2B 7846  16.590   7.956   8.620 -0.1187  0.0573  0.0720
  493POPI   C3B 7847  16.469   7.605   8.465  0.1453  0.2795 -0.0001
  493POPI   C4B 7848  16.379   7.492   8.010 -0.0947  0.0580 -0.1857
  494POPI    C1 7849  17.754  12.100  10.205  0.1150  0.0407  0.0487
  494POPI    C2 7850  17.801  11.759  10.409  0.0406  0.1376  0.2303
  494POPI    C3 7851  17.509  12.013  10.509 -0.0409  0.1543 -0.0434
  494POPI   PO4 7852  17.795  12.080  10.003  0.0228 -0.2469  0.1336
  494POPI   GL1 7853  17.825  12.257   9.622  0.2809  0.2340  0.1211
  494POPI   GL2 7854  17.572  12.423   9.457  0.2251  0.1897  0.0149
  494POPI   C1A 7855  17.869  11.926   9.330 -0.0614  0.0767  0.1444
  494POPI   D2A 7856  17.667  11.799   9.043 -0.2351 -0.1392  0.6036
  494POPI   C3A 7857  17.899  11.564   8.701 -0.0098 -0.0573  0.0513
  494POPI   C4A 7858  17.930  11.452   8.270  0.0823  0.2031 -0.0933
  494POPI   C1B 7859  17.464  12.202   9.158  0.2341  0.1744  0.2401
  494POPI   C2B 7860  17.246  12.024   8.860 -0.3154  0.0297 -0.0398
  494POPI   C3B 7861  17.121  12.111   8.501 -0.1334  0.0702 -0.0329
  494POPI   C4B 7862  17.278  12.313   8.313 -0.0308  0.1353 -0.0008
  495POPI    C1 7863   8.678  10.726   9.452  0.1989 -0.0790 -0.0006
  495POPI    C2 7864   8.926  10.412   9.431  0.0101 -0.2472  0.2309
  495POPI    C3 7865   8.954  10.669   9.736  0.3487  0.1261 -0.1017
  495POPI   PO4 7866   8.546  10.761   9.222 -0.0056 -0.1771  0.2290
  495POPI   GL1 7867   8.448  10.612   8.916 -0.2549  0.0293  0.1347
  495POPI   GL2 7868   8.678  10.352   8.990  0.0448  0.0493 -0.1050
  495POPI   C1A 7869   8.370  10.722   8.484 -0.0087 -0.1316  0.0292
  495POPI   D2A 7870   8.098  10.963   8.217 -0.0039 -0.4557  0.1105
  495POPI   C3A 7871   7.731  10.647   7.966  0.1867 -0.3702 -0.1264
  495POPI   C4A 7872   7.331  10.602   7.855  0.0010 -0.2949 -0.1152
  495POPI   C1B 7873   8.792  10.271   8.655 -0.2701 -0.1979 -0.0490
  495POPI   C2B 7874   9.029  10.118   8.256 -0.0259  0.1465 -0.0636
  495POPI   C3B 7875   8.920  10.061   7.903 -0.3479 -0.1093 -0.0914
  495POPI   C4B 7876   8.431  10.135   7.717  0.4360  0.0455  0.1160
  496POPI    C1 7877  18.128   0.084   9.703 -0.1327 -0.2480 -0.0859
  496POPI    C2 7878  18.454  -0.148   9.722  0.0670  0.0394  0.0758
  496POPI    C3 7879  18.168  -0.182   9.999  0.0161 -0.1278  0.0037
  496POPI   PO4 7880  18.240   0.293   9.586  0.1196  0.1192 -0.2343
  496POPI   GL1 7881  18.231   0.129   9.072 -0.1155 -0.0063  0.0389
  496POPI   GL2 7882  18.234  -0.104   9.179  0.0475  0.0522 -0.0816
  496POPI   C1A 7883  18.023  -0.038   8.666  0.1208  0.2112  0.0207
  496POPI   D2A 7884  18.048  -0.154   8.258  0.1257 -0.0907  0.1747
  496POPI   C3A 7885  17.998   0.004   7.868 -0.1468  0.0362 -0.3022
  496POPI   C4A 7886  18.078   0.274   7.503  0.1339 -0.0855  0.0938
  496POPI   C1B 7887  18.491  -0.295   8.806 -0.2420 -0.1101  0.0087
  496POPI   C2B 7888  18.579  -0.404   8.497 -0.2635 -0.2132 -0.1004
  496POPI   C3B 7889  18.599  -0.313   8.075  0.0156 -0.0459  0.2439
  496POPI   C4B 7890  18.242  -0.523   7.864  0.1847 -0.2326 -0.0925
  497POPI    C1 7891  14.139   9.591  10.101  0.0976 -0.0061  0.0485
  497POPI    C2 7892  14.383   9.645  10.413  0.0051  0.0205  0.1167
  497POPI    C3 7893  14.121   9.342  10.414  0.2228 -0.1724 -0.0746
  497POPI   PO4 7894  14.114   9.768   9.809 -0.1796 -0.2730  0.1690
  497POPI   GL1 7895  14.028   9.779   9.460 -0.1645 -0.0842 -0.0330
  497POPI   GL2 7896  14.025   9.475   9.333 -0.0386 -0.1143 -0.2751
  497POPI   C1A 7897  13.807   9.965   9.228  0.2199  0.4112  0.2094
  497POPI   D2A 7898  13.753  10.008   8.773  0.1197  0.2303  0.0111
  497POPI   C3A 7899  13.414   9.792   8.546  0.2847  0.0133  0.0662
  497POPI   C4A 7900  13.289   9.734   8.022  0.1039 -0.0526  0.0039
  497POPI   C1B 7901  14.035   9.644   8.947 -0.2142  0.1793  0.2709
  497POPI   C2B 7902  14.001   9.710   8.465 -0.1883  0.0428  0.1876
  497POPI   C3B 7903  13.716   9.974   8.215 -0.1839 -0.0875  0.3679
  497POPI   C4B 7904  13.764  10.411   7.911  0.4568  0.3927  0.1017
  498POPI    C1 7905   6.605  15.158   9.913 -0.2368 -0.5088 -0.3695
  498POPI    C2 7906   6.265  15.368   9.929 -0.1261 -0.3535  0.1705
  498POPI    C3 7907   6.501  15.345  10.251  0.4538 -0.3330 -0.2369
  498POPI   PO4 7908   6.690  15.255   9.735 -0.2492 -0.1550  0.1810
  498POPI   GL1 7909   6.879  15.175   9.357 -0.2132 -0.2312  0.1194
  498POPI   GL2 7910   6.745  15.469   9.155  0.0248 -0.0591  0.1597
  498POPI   C1A 7911   6.978  14.981   8.881  0.1781 -0.0804  0.1820
  498POPI   D2A 7912   7.141  14.968   8.436  0.0299 -0.0070 -0.2317
  498POPI   C3A 7913   7.495  15.181   8.298 -0.0435  0.2141  0.0163
  498POPI   C4A 7914   7.758  15.340   7.981 -0.1787 -0.1659 -0.0629
  498POPI   C1B 7915   6.917  15.753   8.957  0.3413 -0.4546 -0.1245
  498POPI   C2B 7916   7.126  15.960   8.600  0.1419  0.1406  0.1066
  498POPI   C3B 7917   7.318  15.931   8.240  0.6493 -0.3275  0.1365
  498POPI   C4B 7918   7.415  16.154   7.883  0.1473  0.0115  0.1749
  499POPI    C1 7919  18.546  10.464  10.362 -0.0946  0.2518  0.0365
  499POPI    C2 7920  18.350  10.279  10.658 -0.1773 -0.0077 -0.1765
  499POPI    C3 7921  18.400  10.676  10.669 -0.0386 -0.0316  0.2629
  499POPI   PO4 7922  18.576  10.339  10.219  0.2977 -0.2996  0.0762
  499POPI   GL1 7923  18.482  10.130   9.874  0.1418  0.2046 -0.0736
  499POPI   GL2 7924  18.741  10.086   9.720  0.1116 -0.1036  0.1191
  499POPI   C1A 7925  18.353  10.059   9.408  0.0363 -0.1522 -0.3362
  499POPI   D2A 7926  18.403   9.971   9.023 -0.0157 -0.1517  0.0369
  499POPI   C3A 7927  18.484  10.007   8.692  0.0339 -0.2294 -0.0245
  499POPI   C4A 7928  18.443   9.915   8.231 -0.0343 -0.2481 -0.3518
  499POPI   C1B 7929  18.863  10.075   9.269 -0.4312 -0.0100  0.1114
  499POPI   C2B 7930  19.038  10.138   8.953  0.0536 -0.2663 -0.1433
  499POPI   C3B 7931  18.983  10.115   8.490  0.3836  0.3049 -0.0169
  499POPI   C4B 7932  19.219  10.272   8.079 -0.1483  0.0536 -0.3356
  500POPI    C1 7933  18.967   0.418   9.964 -0.1906 -0.1397  0.0076
  500POPI    C2 7934  18.672   0.657  10.091 -0.0894 -0.0235  0.0268
  500POPI    C3 7935  18.798   0.354  10.321 -0.1050  0.0068  0.0754
  500POPI   PO4 7936  18.935   0.304   9.814 -0.3614  0.1048  0.0240
  500POPI   GL1 7937  18.908   0.352   9.460 -0.2175 -0.2263 -0.0960
  500POPI   GL2 7938  18.698   0.144   9.351 -0.1760  0.0519 -0.1484
  500POPI   C1A 7939  18.963   0.397   8.951 -0.1201  0.0592  0.1528
  500POPI   D2A 7940  19.030   0.365   8.590  0.3334 -0.0484  0.0860
  500POPI   C3A 7941  18.962   0.224   8.268 -0.1128  0.1256 -0.2107
  500POPI   C4A 7942  19.205   0.215   7.789 -0.0410 -0.2884  0.2105
  500POPI   C1B 7943  18.909  -0.075   8.935 -0.0333 -0.4676 -0.0220
  500POPI   C2B 7944  19.091  -0.233   8.633  0.3254 -0.1644 -0.0017
  500POPI   C3B 7945  19.044  -0.293   8.282  0.3325  0.0391 -0.0069
  500POPI   C4B 7946  19.173  -0.238   7.911  0.3819  0.1778 -0.1173
  501POPI    C1 7947   3.996  17.355   9.660 -0.0601 -0.0988 -0.1358
  501POPI    C2 7948   3.758  17.261   9.967 -0.0787  0.0522 -0.1029
  501POPI    C3 7949   3.955  17.609   9.967  0.3046 -0.1588 -0.0320
  501POPI   PO4 7950   4.223  17.128   9.510 -0.0514  0.4443  0.0294
  501POPI   GL1 7951   4.349  17.127   9.120  0.2436  0.2257 -0.2620
  501POPI   GL2 7952   4.161  17.124   8.718  0.0890 -0.1676 -0.1076
  501POPI   C1A 7953   4.596  16.981   8.718 -0.0149  0.1171  0.0957
  501POPI   D2A 7954   4.530  16.899   8.370 -0.3410  0.0561 -0.3630
  501POPI   C3A 7955   4.503  17.189   8.055  0.1896  0.0535 -0.0540
  501POPI   C4A 7956   4.562  17.069   7.679  0.0685  0.1660  0.0006
  501POPI   C1B 7957   3.953  17.176   8.320 -0.0456  0.2824  0.1045
  501POPI   C2B 7958   4.027  17.014   7.947  0.0362 -0.1546 -0.0940
  501POPI   C3B 7959   3.812  16.943   7.581 -0.0011  0.0208 -0.0115
  501POPI   C4B 7960   3.863  16.737   7.099 -0.1998 -0.1583  0.1493
  502POPI    C1 7961  13.376   3.413   9.618 -0.0161 -0.0371  0.0773
  502POPI    C2 7962  13.004   3.273   9.572 -0.0989  0.2183 -0.0563
  502POPI    C3 7963  13.203   3.204   9.912 -0.1308 -0.2258 -0.1205
  502POPI   PO4 7964  13.377   3.661   9.512 -0.0285 -0.0986  0.2328
  502POPI   GL1 7965  13.440   3.507   9.095  0.1690 -0.2564 -0.0611
  502POPI   GL2 7966  13.650   3.215   9.073  0.1014 -0.2884  0.4176
  502POPI   C1A 7967  13.282   3.692   8.675 -0.3473 -0.3276 -0.1924
  502POPI   D2A 7968  13.169   3.818   8.349 -0.1503  0.1343 -0.1981
  502POPI   C3A 7969  13.511   3.910   8.008  0.0283 -0.1419 -0.0890
  502POPI   C4A 7970  13.771   3.810   7.617  0.0125  0.2063  0.3568
  502POPI   C1B 7971  13.535   3.199   8.622 -0.0608 -0.1216 -0.0633
  502POPI   C2B 7972  13.267   3.017   8.168 -0.1025  0.1336  0.3086
  502POPI   C3B 7973  13.137   2.966   7.751 -0.0473  0.0545  0.2019
  502POPI   C4B 7974  13.273   3.079   7.376 -0.0247  0.1151  0.0401
  503POPI    C1 7975  13.327  17.209  10.366  0.0368  0.0578 -0.1912
  503POPI    C2 7976  12.972  17.024  10.381 -0.0473  0.2282 -0.0452
  503POPI    C3 7977  13.032  17.360  10.591  0.1531  0.2830 -0.1870
  503POPI   PO4 7978  13.450  17.129  10.049  0.3361  0.0476  0.5228
  503POPI   GL1 7979  13.638  17.294   9.773  0.0318 -0.0087  0.2083
  503POPI   GL2 7980  13.385  17.437   9.704 -0.4342 -0.2613  0.0984
  503POPI   C1A 7981  13.799  17.198   9.299  0.3442 -0.0217  0.1161
  503POPI   D2A 7982  13.851  17.180   8.865  0.1593  0.0777  0.1935
  503POPI   C3A 7983  14.248  17.265   8.773 -0.0138 -0.1190 -0.2847
  503POPI   C4A 7984  14.657  17.184   8.810 -0.0081  0.0503 -0.0174
  503POPI   C1B 7985  13.504  17.598   9.298 -0.0692  0.2322 -0.1282
  503POPI   C2B 7986  13.405  17.527   8.849 -0.0451  0.1094 -0.4378
  503POPI   C3B 7987  13.533  17.396   8.428 -0.3903  0.0457  0.0110
  503POPI   C4B 7988  13.616  17.651   8.090  0.1106  0.0225  0.0379
  504POPI    C1 7989  12.681  16.631  10.267 -0.0749  0.0948  0.0257
  504POPI    C2 7990  12.453  16.955  10.324 -0.0804  0.0697  0.1507
  504POPI    C3 7991  12.454  16.661  10.595 -0.1196 -0.0617  0.0097
  504POPI   PO4 7992  12.521  16.597  10.019  0.2554  0.0375  0.0133
  504POPI   GL1 7993  12.691  16.355   9.650 -0.0239 -0.1234  0.0250
  504POPI   GL2 7994  12.629  16.142   9.415 -0.0241 -0.5235  0.1312
  504POPI   C1A 7995  12.610  16.628   9.281  0.2202  0.2775  0.0953
  504POPI   D2A 7996  12.380  16.730   8.941 -0.3239 -0.2145  0.0146
  504POPI   C3A 7997  12.158  16.704   8.655 -0.1499  0.0478  0.0310
  504POPI   C4A 7998  12.122  16.653   8.267  0.0476  0.0566  0.1634
  504POPI   C1B 7999  12.583  16.089   8.926 -0.0245 -0.1137  0.0856
  504POPI   C2B 8000  12.643  15.949   8.490 -0.0519 -0.1694  0.1566
  504POPI   C3B 8001  12.527  15.868   8.119  0.0816 -0.3205 -0.1187
  504POPI   C4B 8002  12.682  15.552   7.804  0.0436 -0.0462 -0.3560
  505POPI    C1 8003  16.818  15.021  10.096 -0.3554  0.0854  0.0300
  505POPI    C2 8004  17.126  14.892  10.316 -0.2080  0.1087 -0.1592
  505POPI    C3 8005  16.810  15.062  10.494 -0.1374  0.0344  0.0408
  505POPI   PO4 8006  16.943  14.840   9.814  0.1671 -0.0422 -0.1609
  505POPI   GL1 8007  16.875  14.772   9.432 -0.2144  0.2667 -0.0614
  505POPI   GL2 8008  17.003  14.443   9.400 -0.1515  0.0161  0.1349
  505POPI   C1A 8009  16.515  15.041   9.260 -0.1855  0.0357  0.0116
  505POPI   D2A 8010  16.271  15.023   8.857  0.1201 -0.3253  0.0448
  505POPI   C3A 8011  16.545  15.016   8.464 -0.3222 -0.0467 -0.5140
  505POPI   C4A 8012  16.735  14.907   8.117 -0.1178 -0.0010  0.1403
  505POPI   C1B 8013  16.733  14.424   9.055  0.2618 -0.3121  0.0674
  505POPI   C2B 8014  16.727  14.507   8.539 -0.1177 -0.0046 -0.1172
  505POPI   C3B 8015  16.957  14.190   8.225 -0.1501  0.0282 -0.3219
  505POPI   C4B 8016  16.981  13.906   7.857  0.1964 -0.2005 -0.1227
  506POPI    C1 8017   5.306  18.749   9.168  0.2928  0.2321  0.2163
  506POPI    C2 8018   5.081  18.993   9.392  0.0908  0.1973  0.0541
  506POPI    C3 8019   5.267  18.682   9.560 -0.4897 -0.1439  0.0942
  506POPI   PO4 8020   5.431  18.993   9.013  0.0441 -0.0258 -0.2881
  506POPI   GL1 8021   5.411  19.169   8.637 -0.3426  0.1377  0.0770
  506POPI   GL2 8022   5.419  19.399   8.407  0.0629  0.3939 -0.2268
  506POPI   C1A 8023   5.529  18.898   8.298  0.2753  0.1714  0.0813
  506POPI   D2A 8024   5.352  18.703   7.948 -0.1280 -0.2196  0.0315
  506POPI   C3A 8025   5.372  18.835   7.525  0.0057 -0.0473  0.0620
  506POPI   C4A 8026   5.437  18.996   7.062  0.2355  0.2568  0.0416
  506POPI   C1B 8027   5.562  19.208   7.883  0.5436 -0.3917  0.3148
  506POPI   C2B 8028   5.735  19.246   7.410 -0.1915  0.0441 -0.4005
  506POPI   C3B 8029   5.928  19.112   7.048 -0.1412  0.0611  0.0392
  506POPI   C4B 8030   6.302  18.961   6.820  0.0214  0.1132 -0.0797
  507POPI    C1 8031   0.245   0.050   9.858  0.2007  0.1530  0.0424
  507POPI    C2 8032   0.312   0.313  10.152 -0.1726  0.2825  0.0175
  507POPI    C3 8033   0.134  -0.036  10.233  0.1270  0.1258  0.0146
  507POPI   PO4 8034   0.462   0.068   9.687 -0.2831  0.1306  0.3376
  507POPI   GL1 8035   0.557  -0.117   9.352 -0.3010  0.3420  0.1723
  507POPI   GL2 8036   0.828  -0.037   9.393  0.2320  0.4388 -0.1511
  507POPI   C1A 8037   0.378  -0.205   8.924  0.1116 -0.1253  0.0526
  507POPI   D2A 8038   0.408  -0.363   8.625  0.1507  0.0931 -0.0776
  507POPI   C3A 8039   0.429  -0.418   8.314 -0.2488  0.0135  0.0765
  507POPI   C4A 8040   0.542  -0.494   8.018  0.1216  0.2857  0.0976
  507POPI   C1B 8041   0.962  -0.205   8.997  0.2522 -0.0595 -0.1640
  507POPI   C2B 8042   0.879  -0.338   8.588  0.1569 -0.1558  0.0059
  507POPI   C3B 8043   0.917  -0.141   8.149  0.0224 -0.1262 -0.3948
  507POPI   C4B 8044   1.112   0.000   7.829  0.2705 -0.2289 -0.2604
  508POPI    C1 8045   7.457   0.704   9.174 -0.1360  0.0269 -0.1298
  508POPI    C2 8046   7.395   0.434   9.462 -0.0599  0.0191 -0.1205
  508POPI    C3 8047   7.301   0.817   9.525 -0.0056  0.0244 -0.0704
  508POPI   PO4 8048   7.711   0.641   9.103 -0.1226  0.0519  0.1616
  508POPI   GL1 8049   7.993   0.714   8.866 -0.0349 -0.0062 -0.1273
  508POPI   GL2 8050   8.125   0.427   8.897 -0.3917  0.0261  0.0372
  508POPI   C1A 8051   8.114   0.941   8.522 -0.1948  0.5113  0.0611
  508POPI   D2A 8052   8.200   1.212   8.288 -0.2695 -0.0285  0.1968
  508POPI   C3A 8053   8.055   1.446   7.834  0.2798  0.1152 -0.2198
  508POPI   C4A 8054   7.883   1.413   7.415 -0.0662  0.0072 -0.0088
  508POPI   C1B 8055   8.270   0.319   8.446 -0.0533 -0.1031  0.0521
  508POPI   C2B 8056   8.293   0.265   8.048  0.0255  0.1515  0.2314
  508POPI   C3B 8057   8.584   0.444   7.762 -0.3365 -0.2226 -0.2606
  508POPI   C4B 8058   8.698   0.855   7.605  0.1289  0.0269  0.3468
  509POPI    C1 8059   4.976   8.361  10.442 -0.1727  0.0173 -0.1631
  509POPI    C2 8060   4.789   8.516  10.760 -0.1188  0.0236 -0.1343
  509POPI    C3 8061   5.053   8.220  10.808 -0.1234  0.0127 -0.1751
  509POPI   PO4 8062   5.050   8.529  10.299 -0.1056 -0.0183  0.0639
  509POPI   GL1 8063   4.979   8.726   9.958  0.0112  0.1686 -0.0323
  509POPI   GL2 8064   4.901   9.060   9.976 -0.1036  0.0314  0.1015
  509POPI   C1A 8065   4.953   8.448   9.499  0.1045  0.0922  0.0696
  509POPI   D2A 8066   5.396   8.389   9.290  0.2456  0.0569 -0.2255
  509POPI   C3A 8067   5.269   8.479   8.783  0.1205 -0.0323  0.1015
  509POPI   C4A 8068   5.267   8.542   8.335  0.1048  0.2106 -0.0557
  509POPI   C1B 8069   4.984   9.383   9.567 -0.0684 -0.0909  0.1132
  509POPI   C2B 8070   5.066   9.302   9.141  0.0588  0.0571 -0.0233
  509POPI   C3B 8071   5.265   9.354   8.726 -0.0365 -0.0214  0.0119
  509POPI   C4B 8072   5.274   9.047   8.472  0.0991  0.0067  0.0414
  510POPI    C1 8073  10.415  11.267  10.071 -0.1837 -0.1804  0.0638
  510POPI    C2 8074  10.794  11.206  10.182 -0.1143  0.0183 -0.0584
  510POPI    C3 8075  10.564  11.459  10.389 -0.1214  0.0451 -0.0991
  510POPI   PO4 8076  10.449  11.304   9.712 -0.0696  0.0030 -0.3033
  510POPI   GL1 8077  10.444  11.105   9.325  0.0748 -0.3269  0.0647
  510POPI   GL2 8078  10.393  11.404   9.140 -0.1550  0.0563 -0.4643
  510POPI   C1A 8079  10.528  11.044   8.837  0.1597 -0.2139 -0.1873
  510POPI   D2A 8080  10.550  11.144   8.480 -0.1986  0.1019  0.0619
  510POPI   C3A 8081  10.507  11.167   8.043  0.3596  0.1774  0.0972
  510POPI   C4A 8082  10.633  11.244   7.630 -0.0309  0.2136  0.0182
  510POPI   C1B 8083  10.131  11.340   8.780  0.2160  0.1481 -0.0471
  510POPI   C2B 8084  10.086  11.255   8.302  0.1723  0.0008 -0.0635
  510POPI   C3B 8085  10.013  11.201   7.807  0.2240  0.1228 -0.1365
  510POPI   C4B 8086  10.191  10.944   7.465 -0.0524 -0.4114 -0.1908
  511POPI    C1 8087  13.833  16.918  10.577  0.0825 -0.0537 -0.1141
  511POPI    C2 8088  13.762  16.583  10.783  0.1222 -0.0413 -0.0801
  511POPI    C3 8089  13.996  16.867  10.939  0.1453 -0.0281 -0.1386
  511POPI   PO4 8090  13.811  16.815  10.272 -0.0785  0.0214  0.2494
  511POPI   GL1 8091  13.985  16.903   9.843 -0.1129 -0.1397 -0.0375
  511POPI   GL2 8092  13.581  16.772   9.729 -0.4466 -0.3464 -0.0217
  511POPI   C1A 8093  14.314  17.115   9.653 -0.0479 -0.1135 -0.3474
  511POPI   D2A 8094  14.281  17.256   9.290  0.2320 -0.4187  0.0641
  511POPI   C3A 8095  14.318  16.943   9.095  0.1424 -0.1258 -0.3741
  511POPI   C4A 8096  14.092  16.565   8.967  0.1126 -0.0984  0.0641
  511POPI   C1B 8097  13.315  16.971   9.460 -0.0774  0.6366 -0.2446
  511POPI   C2B 8098  13.261  17.190   9.188 -0.1695  0.1322 -0.5173
  511POPI   C3B 8099  13.020  17.485   9.196 -0.0837 -0.0031  0.2198
  511POPI   C4B 8100  12.694  17.607   9.508  0.0032  0.0489  0.0987
  512POPI    C1 8101  17.698   0.027  10.135  0.3711 -0.1567 -0.1558
  512POPI    C2 8102  17.339  -0.084  10.271  0.3641 -0.0117 -0.0542
  512POPI    C3 8103  17.647  -0.054  10.523  0.4100  0.0189 -0.1134
  512POPI   PO4 8104  17.683  -0.124   9.821  0.1696  0.0874  0.2642
  512POPI   GL1 8105  17.470  -0.332   9.411  0.1224  0.2432 -0.0007
  512POPI   GL2 8106  17.267  -0.546   9.172  0.1255  0.0292 -0.0970
  512POPI   C1A 8107  17.239  -0.007   9.232  0.1217  0.2483  0.1379
  512POPI   D2A 8108  16.987   0.088   8.907  0.0748  0.0933 -0.1949
  512POPI   C3A 8109  17.066   0.018   8.651  0.1995  0.1398  0.2531
  512POPI   C4A 8110  17.141  -0.058   8.252 -0.1136 -0.1011  0.2140
  512POPI   C1B 8111  17.229  -0.804   8.887 -0.0551 -0.0830 -0.2491
  512POPI   C2B 8112  17.119  -1.009   8.555  0.2458 -0.0513  0.1408
  512POPI   C3B 8113  16.976  -1.199   8.189 -0.2652 -0.1722  0.0742
  512POPI   C4B 8114  17.038  -1.360   7.724 -0.0101  0.0844  0.0616
  513POPI    C1 8115  14.474  12.800  10.241  0.0299  0.0566  0.1352
  513POPI    C2 8116  14.175  12.669  10.010 -0.0595  0.1062  0.2218
  513POPI    C3 8117  14.269  12.473  10.346  0.1399 -0.0272  0.0900
  513POPI   PO4 8118  14.608  12.921  10.064 -0.0201  0.2224  0.1662
  513POPI   GL1 8119  14.466  12.953   9.670 -0.0843  0.4821  0.0877
  513POPI   GL2 8120  14.328  12.592   9.534  0.0219 -0.0559 -0.3583
  513POPI   C1A 8121  14.676  13.104   9.308 -0.0093  0.4317 -0.2652
  513POPI   D2A 8122  14.822  13.129   8.878 -0.2531  0.1471 -0.3180
  513POPI   C3A 8123  14.828  12.986   8.403 -0.1474 -0.2617  0.0629
  513POPI   C4A 8124  14.927  12.780   7.979  0.0465  0.0397 -0.0219
  513POPI   C1B 8125  14.497  12.617   9.170 -0.1781 -0.0980 -0.1336
  513POPI   C2B 8126  14.588  12.659   8.829 -0.2466 -0.1943  0.3030
  513POPI   C3B 8127  14.563  12.521   8.447  0.3879  0.2135 -0.0303
  513POPI   C4B 8128  14.778  12.275   8.070 -0.0632  0.1021 -0.1334
  514POPI    C1 8129  11.190  14.265  10.032 -0.1801  0.0730  0.2715
  514POPI    C2 8130  11.270  14.482  10.359  0.0003 -0.0520  0.3119
  514POPI    C3 8131  11.244  14.083  10.384 -0.0204 -0.0597  0.1798
  514POPI   PO4 8132  11.324  14.238   9.863  0.1215  0.1315 -0.1162
  514POPI   GL1 8133  11.395  14.083   9.493  0.1242  0.0515 -0.0931
  514POPI   GL2 8134  11.388  13.883   9.298 -0.1706 -0.0113 -0.2874
  514POPI   C1A 8135  11.137  14.319   9.276 -0.3399 -0.0593 -0.2836
  514POPI   D2A 8136  11.185  14.645   9.002  0.1178  0.0133 -0.1133
  514POPI   C3A 8137  11.273  14.584   8.618  0.0957 -0.1510 -0.2050
  514POPI   C4A 8138  11.252  14.553   8.231  0.2223 -0.1701  0.1922
  514POPI   C1B 8139  11.392  13.916   8.826 -0.1127 -0.0930 -0.2375
  514POPI   C2B 8140  11.558  14.172   8.586  0.0839 -0.0769 -0.3107
  514POPI   C3B 8141  11.710  14.308   8.151  0.1334 -0.0972 -0.2367
  514POPI   C4B 8142  11.501  14.402   7.717 -0.2238  0.0834  0.0876
  515POPI    C1 8143   0.789   8.269  10.663  0.1166 -0.0703 -0.1524
  515POPI    C2 8144   0.395   8.310  10.724  0.1300 -0.1945  0.0234
  515POPI    C3 8145   0.606   8.614  10.572  0.0283 -0.0031  0.2567
  515POPI   PO4 8146   0.872   8.039  10.428 -0.0224  0.0616 -0.0913
  515POPI   GL1 8147   1.038   7.970  10.019  0.1081 -0.3456  0.0844
  515POPI   GL2 8148   0.714   7.715  10.077 -0.2956 -0.2038  0.1419
  515POPI   C1A 8149   1.211   8.067   9.631 -0.1766 -0.2141  0.2798
  515POPI   D2A 8150   1.508   8.028   9.263  0.1836  0.0832  0.1701
  515POPI   C3A 8151   1.628   7.661   9.091  0.1393  0.2712 -0.4514
  515POPI   C4A 8152   1.907   7.510   8.771 -0.0004  0.0425 -0.2971
  515POPI   C1B 8153   0.895   7.657   9.634  0.1162 -0.1102  0.1770
  515POPI   C2B 8154   1.003   7.794   9.229 -0.2237 -0.1400 -0.0710
  515POPI   C3B 8155   1.187   7.858   8.809  0.1294  0.3161  0.5118
  515POPI   C4B 8156   1.576   8.007   8.683 -0.1059 -0.0741 -0.3976
  516POPI    C1 8157  12.763   8.209   9.755 -0.0000 -0.1622  0.0117
  516POPI    C2 8158  12.770   8.302   9.366 -0.2300  0.2028  0.0891
  516POPI    C3 8159  12.930   8.552   9.634  0.0710 -0.1217  0.2199
  516POPI   PO4 8160  12.833   7.820   9.744 -0.0577  0.0997 -0.1576
  516POPI   GL1 8161  13.108   7.742   9.419  0.1205 -0.0163  0.1415
  516POPI   GL2 8162  13.213   7.564   9.171  0.0780 -0.0674  0.0483
  516POPI   C1A 8163  12.884   7.908   9.049  0.1421 -0.0450  0.2829
  516POPI   D2A 8164  12.725   8.191   8.775  0.1259 -0.2664 -0.0425
  516POPI   C3A 8165  12.807   8.079   8.382 -0.2959  0.1160  0.2187
  516POPI   C4A 8166  12.801   8.006   7.985 -0.0632  0.1078  0.4010
  516POPI   C1B 8167  13.184   7.600   8.705  0.2484  0.5006  0.2594
  516POPI   C2B 8168  13.064   7.655   8.299 -0.0897  0.4539  0.0461
  516POPI   C3B 8169  13.050   7.612   7.841 -0.0176  0.2019  0.0386
  516POPI   C4B 8170  13.012   7.321   7.427 -0.2649  0.1288  0.1898
  517POPI    C1 8171  14.496   7.596   9.612 -0.0820  0.1038 -0.0101
  517POPI    C2 8172  14.343   7.847   9.883 -0.2018  0.3394 -0.2903
  517POPI    C3 8173  14.597   7.983   9.605  0.1475  0.0438 -0.1246
  517POPI   PO4 8174  14.250   7.425   9.558 -0.5315  0.1659 -0.1190
  517POPI   GL1 8175  13.910   7.482   9.126  0.1031  0.0526  0.1256
  517POPI   GL2 8176  14.153   7.535   9.098  0.3242  0.1009 -0.0158
  517POPI   C1A 8177  13.654   7.485   8.836 -0.1986  0.3336  0.1709
  517POPI   D2A 8178  13.567   7.638   8.441 -0.0992 -0.0726  0.0285
  517POPI   C3A 8179  13.580   7.559   7.993  0.1284 -0.3828  0.2480
  517POPI   C4A 8180  13.557   7.634   7.524 -0.0661 -0.0610 -0.0300
  517POPI   C1B 8181  14.135   7.352   8.667  0.0290 -0.3147  0.0671
  517POPI   C2B 8182  13.980   7.439   8.237  0.1180 -0.0200  0.1340
  517POPI   C3B 8183  14.015   7.539   7.663  0.4511  0.1630 -0.1232
  517POPI   C4B 8184  14.095   7.955   7.485 -0.0882 -0.2262 -0.0155
  518POPI    C1 8185  14.635   3.577   9.998 -0.0131  0.1943  0.1382
  518POPI    C2 8186  14.243   3.499  10.025 -0.0117  0.0690 -0.1619
  518POPI    C3 8187  14.414   3.757  10.278 -0.2392 -0.0587  0.1272
  518POPI   PO4 8188  14.736   3.461   9.796  0.2067 -0.0645  0.0312
  518POPI   GL1 8189  14.811   3.467   9.357 -0.0552  0.2156  0.1102
  518POPI   GL2 8190  15.105   3.498   9.150  0.0476 -0.1559  0.0920
  518POPI   C1A 8191  14.630   3.255   9.093 -0.1056  0.3428  0.3016
  518POPI   D2A 8192  14.646   2.837   8.743  0.1812 -0.0059  0.1259
  518POPI   C3A 8193  14.748   3.011   8.467 -0.0078  0.2470  0.1286
  518POPI   C4A 8194  14.754   3.029   8.000 -0.4134 -0.1526 -0.0160
  518POPI   C1B 8195  15.013   3.400   8.751  0.0886  0.1452 -0.1077
  518POPI   C2B 8196  14.918   3.483   8.268  0.3090  0.3707  0.1190
  518POPI   C3B 8197  15.066   3.377   7.832  0.1406  0.0107  0.0563
  518POPI   C4B 8198  15.250   3.320   7.382  0.0669  0.2035 -0.2581
  519POPI    C1 8199  17.853   9.695  10.204 -0.1289 -0.1157  0.2178
  519POPI    C2 8200  17.753  10.079  10.254  0.1444 -0.0732  0.4691
  519POPI    C3 8201  18.135   9.966  10.286  0.1654 -0.2645 -0.2595
  519POPI   PO4 8202  17.875   9.634  10.003 -0.0364  0.2001  0.1419
  519POPI   GL1 8203  18.296   9.679   9.786  0.1057  0.0599  0.0876
  519POPI   GL2 8204  18.558   9.536   9.734 -0.2466 -0.0011 -0.1971
  519POPI   C1A 8205  18.090   9.574   9.346 -0.0942  0.0700  0.0320
  519POPI   D2A 8206  18.181   9.341   8.973 -0.5008  0.0414 -0.2456
  519POPI   C3A 8207  18.047   9.382   8.513 -0.1091 -0.0455  0.1366
  519POPI   C4A 8208  17.693   9.559   8.272 -0.1548  0.1876 -0.1053
  519POPI   C1B 8209  18.556   9.410   9.352 -0.1079 -0.2132 -0.0688
  519POPI   C2B 8210  18.718   9.511   8.954 -0.0570  0.1927  0.2491
  519POPI   C3B 8211  18.609   9.575   8.496 -0.2601 -0.1289 -0.3352
  519POPI   C4B 8212  18.822   9.677   8.163 -0.1131  0.1417  0.0254
  520POPI    C1 8213  13.329  13.751  10.226  0.3501 -0.0364  0.1140
  520POPI    C2 8214  13.164  13.547  10.528 -0.0048  0.0747 -0.0001
  520POPI    C3 8215  13.295  13.920  10.587  0.0032  0.0660  0.0369
  520POPI   PO4 8216  13.170  13.641  10.002 -0.1317  0.1299 -0.1031
  520POPI   GL1 8217  13.305  13.796   9.513  0.0509 -0.1428  0.1145
  520POPI   GL2 8218  13.510  14.058   9.691 -0.0809  0.0192  0.2838
  520POPI   C1A 8219  13.075  13.899   9.178  0.0826 -0.0761 -0.3888
  520POPI   D2A 8220  13.058  13.864   8.702  0.3094 -0.2466 -0.3478
  520POPI   C3A 8221  13.356  13.884   8.366 -0.3155 -0.0862  0.4460
  520POPI   C4A 8222  13.383  13.850   7.870 -0.0946 -0.0049 -0.1595
  520POPI   C1B 8223  13.703  13.982   9.257  0.0420 -0.0595 -0.1712
  520POPI   C2B 8224  13.662  14.016   8.811 -0.2230  0.1464 -0.2029
  520POPI   C3B 8225  13.873  13.846   8.404  0.0155 -0.3040  0.0108
  520POPI   C4B 8226  13.866  13.863   7.927  0.5001  0.0946 -0.0496
  521POPI    C1 8227   2.537   1.093   9.727 -0.2825 -0.0808 -0.1009
  521POPI    C2 8228   2.742   1.218   9.408 -0.1849 -0.1766 -0.0764
  521POPI    C3 8229   2.531   1.479   9.624 -0.0985 -0.0791 -0.1089
  521POPI   PO4 8230   2.689   0.834   9.694  0.1077  0.2017 -0.0778
  521POPI   GL1 8231   2.911   0.736   9.182 -0.1255  0.1732 -0.1653
  521POPI   GL2 8232   3.112   0.923   9.160 -0.0050 -0.1646 -0.5211
  521POPI   C1A 8233   2.808   0.557   8.724  0.0495  0.2903 -0.1012
  521POPI   D2A 8234   2.757   0.674   8.316 -0.1337 -0.0550  0.1603
  521POPI   C3A 8235   3.011   0.644   7.961  0.0291 -0.1607 -0.3738
  521POPI   C4A 8236   3.249   0.804   7.519  0.1050  0.1094  0.1274
  521POPI   C1B 8237   3.380   0.821   8.841  0.1164  0.1080  0.4006
  521POPI   C2B 8238   3.303   0.791   8.401  0.3644 -0.2028 -0.0639
  521POPI   C3B 8239   3.489   0.764   7.995  0.3374  0.0879  0.0587
  521POPI   C4B 8240   3.795   0.685   7.765 -0.0003  0.0299  0.0487
  522POPI    C1 8241   4.772  12.850   9.800 -0.0416  0.2718 -0.2617
  522POPI    C2 8242   5.154  12.808   9.688 -0.0143  0.0462 -0.0921
  522POPI    C3 8243   5.057  13.069   9.975  0.0658 -0.1605  0.1267
  522POPI   PO4 8244   4.635  12.854   9.569  0.3556 -0.0541  0.0440
  522POPI   GL1 8245   4.551  12.962   9.158  0.0750 -0.1533 -0.0049
  522POPI   GL2 8246   4.535  13.274   9.214  0.0502 -0.1525  0.0763
  522POPI   C1A 8247   4.540  12.555   8.961 -0.2156  0.1852 -0.3927
  522POPI   D2A 8248   4.444  12.417   8.595 -0.0761  0.0988  0.2486
  522POPI   C3A 8249   4.655  12.398   8.195 -0.2159 -0.0397  0.0644
  522POPI   C4A 8250   5.101  12.396   8.144 -0.1980 -0.2986  0.2668
  522POPI   C1B 8251   4.617  13.583   8.908 -0.0372  0.1986  0.6100
  522POPI   C2B 8252   4.494  13.549   8.469 -0.0679 -0.0867 -0.3460
  522POPI   C3B 8253   4.463  13.244   8.123  0.1068 -0.1753  0.1379
  522POPI   C4B 8254   4.390  12.795   8.152  0.1462  0.2493  0.0458
  523POPI    C1 8255   6.719  18.352   9.385  0.1386 -0.0558  0.1250
  523POPI    C2 8256   6.869  18.643   9.615 -0.1383  0.1132  0.0971
  523POPI    C3 8257   6.613  18.378   9.770 -0.0781  0.0337  0.0610
  523POPI   PO4 8258   6.665  18.528   9.160  0.1656 -0.0188  0.0776
  523POPI   GL1 8259   6.715  18.718   8.824  0.1730 -0.0953  0.1790
  523POPI   GL2 8260   6.411  18.997   8.947  0.1125  0.1153  0.2018
  523POPI   C1A 8261   6.619  18.721   8.415  0.1179 -0.0902 -0.0548
  523POPI   D2A 8262   6.535  18.940   8.062 -0.1059  0.0651 -0.0802
  523POPI   C3A 8263   6.402  18.832   7.812  0.1900 -0.0847  0.0455
  523POPI   C4A 8264   6.400  18.587   7.364 -0.2420  0.1406 -0.1969
  523POPI   C1B 8265   6.254  19.069   8.579 -0.1883 -0.1552 -0.0315
  523POPI   C2B 8266   6.113  18.833   8.285  0.0457 -0.1027  0.1147
  523POPI   C3B 8267   5.861  18.861   7.842 -0.6444  0.4988  0.0133
  523POPI   C4B 8268   5.913  18.795   7.518 -0.0461  0.1196  0.0131
  524DPPI    C1 8269   3.045  18.457   9.541 -0.1866  0.0191 -0.0062
  524DPPI    C2 8270   3.187  18.445   9.915 -0.0723 -0.3019 -0.0568
  524DPPI    C3 8271   3.395  18.279   9.617 -0.2614 -0.2300 -0.2310
  524DPPI   PO4 8272   2.951  18.696   9.524 -0.0032  0.2525 -0.1413
  524DPPI   GL1 8273   2.982  18.999   9.326 -0.0240  0.4029 -0.0997
  524DPPI   GL2 8274   3.079  18.801   9.075 -0.0489 -0.0392 -0.2845
  524DPPI   C1A 8275   2.621  18.971   9.015  0.1368 -0.2388  0.1015
  524DPPI   C2A 8276   2.366  18.967   8.671 -0.2938 -0.2043  0.3490
  524DPPI   C3A 8277   2.385  18.881   8.307 -0.3260  0.1920  0.3691
  524DPPI   C4A 8278   2.430  18.844   7.870 -0.1328  0.1160 -0.0347
  524DPPI   C1B 8279   2.934  18.733   8.585 -0.0457 -0.0428  0.0612
  524DPPI   C2B 8280   2.888  18.586   8.207  0.1940 -0.1193 -0.3737
  524DPPI   C3B 8281   2.758  18.381   7.915  0.0773 -0.3007 -0.1002
  524DPPI   C4B 8282   2.463  18.104   7.686  0.0503  0.0337 -0.0943
  525DPPI    C1 8283   3.842   4.077   9.802 -0.0579  0.1370 -0.3006
  525DPPI    C2 8284   4.058   4.366   9.630  0.3583 -0.0386 -0.0860
  525DPPI    C3 8285   4.125   4.266  10.012  0.0417 -0.2456 -0.0807
  525DPPI   PO4 8286   3.735   3.991   9.451  0.4039  0.0716 -0.0183
  525DPPI   GL1 8287   3.921   3.739   9.172 -0.1287  0.1593 -0.1319
  525DPPI   GL2 8288   4.084   3.538   9.097 -0.2792 -0.1623  0.2519
  525DPPI   C1A 8289   3.765   3.586   8.692  0.3057  0.2766  0.0139
  525DPPI   C2A 8290   3.754   3.613   8.281 -0.0151 -0.0711  0.2623
  525DPPI   C3A 8291   3.791   3.599   7.797  0.2112  0.0994 -0.0179
  525DPPI   C4A 8292   4.012   3.702   7.455  0.0523 -0.1531 -0.0750
  525DPPI   C1B 8293   4.327   3.538   8.649  0.0344  0.3248  0.3518
  525DPPI   C2B 8294   4.368   3.535   8.201 -0.0839 -0.0691  0.3025
  525DPPI   C3B 8295   4.432   3.558   7.759 -0.0838  0.0032  0.0109
  525DPPI   C4B 8296   4.343   3.388   7.412  0.0916  0.0344  0.0486
  526DPPI    C1 8297  16.069  18.720  10.328  0.0533 -0.4038  0.1962
  526DPPI    C2 8298  16.452  18.605  10.311  0.1226 -0.1379 -0.1607
  526DPPI    C3 8299  16.340  18.891  10.567  0.1694 -0.1868 -0.0853
  526DPPI   PO4 8300  16.001  18.399  10.285  0.3583  0.1840  0.5796
  526DPPI   GL1 8301  15.836  18.402   9.898 -0.0222 -0.0906 -0.0050
  526DPPI   GL2 8302  15.939  18.220   9.650 -0.0791  0.0194  0.1972
  526DPPI   C1A 8303  15.671  18.649   9.539 -0.3122  0.1430  0.1036
  526DPPI   C2A 8304  15.956  18.731   9.087  0.3793 -0.1161 -0.0042
  526DPPI   C3A 8305  15.858  18.785   8.692 -0.0098  0.2162 -0.1844
  526DPPI   C4A 8306  15.746  19.231   8.437  0.2143 -0.1805 -0.1270
  526DPPI   C1B 8307  16.064  18.148   9.178  0.2355 -0.1052 -0.1130
  526DPPI   C2B 8308  15.833  18.224   8.759 -0.0347  0.0319 -0.2547
  526DPPI   C3B 8309  15.761  18.203   8.330  0.2498 -0.0950 -0.1346
  526DPPI   C4B 8310  16.231  18.093   8.080  0.0889  0.0312 -0.2415
  527DPPI    C1 8311   5.182  11.268  10.218 -0.0776 -0.2237 -0.2316
  527DPPI    C2 8312   4.881  11.529  10.255  0.0321 -0.1384  0.0893
  527DPPI    C3 8313   5.208  11.567  10.482  0.2011 -0.3486 -0.1138
  527DPPI   PO4 8314   5.196  11.241   9.967 -0.1334  0.0574  0.3596
  527DPPI   GL1 8315   5.278  11.462   9.529 -0.1867  0.2485 -0.1264
  527DPPI   GL2 8316   5.022  11.186   9.495  0.0115 -0.0425 -0.1440
  527DPPI   C1A 8317   5.378  11.318   9.167 -0.2321 -0.0873  0.3805
  527DPPI   C2A 8318   5.364  11.205   8.797 -0.0126 -0.0415 -0.0230
  527DPPI   C3A 8319   5.509  10.989   8.393 -0.0821  0.0606  0.1148
  527DPPI   C4A 8320   5.443  10.842   8.107  0.0107 -0.0579  0.4465
  527DPPI   C1B 8321   4.911  11.150   8.993 -0.1852  0.1984  0.0013
  527DPPI   C2B 8322   5.019  11.045   8.520 -0.1594  0.2757 -0.2082
  527DPPI   C3B 8323   5.047  11.127   8.045 -0.0900 -0.0090 -0.1413
  527DPPI   C4B 8324   5.134  11.306   7.645  0.2115 -0.1769 -0.0816
  528DPPI    C1 8325   6.794   3.725   9.769  0.1112  0.1268  0.2491
  528DPPI    C2 8326   7.106   3.486   9.840  0.1024  0.0340 -0.0113
  528DPPI    C3 8327   6.733   3.349   9.890  0.0997  0.0727  0.0779
  528DPPI   PO4 8328   6.820   3.931   9.454 -0.1302 -0.1592 -0.3805
  528DPPI   GL1 8329   6.449   4.030   9.256  0.0048 -0.0358  0.0208
  528DPPI   GL2 8330   6.398   4.348   9.251  0.2689 -0.0399  0.0188
  528DPPI   C1A 8331   6.098   3.995   8.899  0.1229 -0.4558  0.1357
  528DPPI   C2A 8332   6.164   3.824   8.552 -0.0562 -0.0297  0.0658
  528DPPI   C3A 8333   6.143   4.045   8.139  0.1405  0.0275  0.0445
  528DPPI   C4A 8334   6.103   4.510   7.978  0.0577 -0.0268 -0.3564
  528DPPI   C1B 8335   6.403   4.638   8.878 -0.1134  0.1316  0.1754
  528DPPI   C2B 8336   6.126   4.509   8.671  0.1743 -0.1408 -0.1567
  528DPPI   C3B 8337   5.862   4.263   8.388  0.5494 -0.0035  0.2239
  528DPPI   C4B 8338   5.580   4.126   8.132 -0.3312 -0.2948  0.1496
  529DPPI    C1 8339   4.410  15.598   9.857 -0.5320 -0.2742  0.0737
  529DPPI    C2 8340   4.593  15.244   9.896  0.0911  0.0397  0.1140
  529DPPI    C3 8341   4.366  15.386  10.193 -0.3333 -0.4080  0.0172
  529DPPI   PO4 8342   4.513  15.625   9.551 -0.2620 -0.0488  0.0540
  529DPPI   GL1 8343   4.471  15.766   9.130  0.1369  0.1866 -0.0635
  529DPPI   GL2 8344   4.355  15.507   9.028  0.0762  0.3467 -0.0259
  529DPPI   C1A 8345   4.554  15.966   8.795  0.1813 -0.2338  0.2069
  529DPPI   C2A 8346   4.551  15.932   8.397  0.1395 -0.1480  0.1988
  529DPPI   C3A 8347   4.295  16.112   7.954  0.1611 -0.0692 -0.2147
  529DPPI   C4A 8348   3.845  15.903   7.869 -0.0679 -0.1425 -0.0601
  529DPPI   C1B 8349   4.179  15.600   8.545  0.2121  0.0123  0.1445
  529DPPI   C2B 8350   4.157  15.667   8.137 -0.0972 -0.0638 -0.2510
  529DPPI   C3B 8351   4.503  15.672   7.706  0.2356  0.1133  0.0487
  529DPPI   C4B 8352   4.507  15.841   7.318 -0.0397  0.1540 -0.2875
  530DPPI    C1 8353   0.108   4.924   9.646 -0.4049  0.0421  0.1950
  530DPPI    C2 8354   0.208   4.561   9.781 -0.3754  0.0605  0.2230
  530DPPI    C3 8355   0.367   4.887   9.949 -0.1021  0.0748 -0.0555
  530DPPI   PO4 8356  -0.179   4.886   9.602  0.1371  0.4028  0.0848
  530DPPI   GL1 8357  -0.479   5.091   9.299  0.2097  0.1163 -0.0107
  530DPPI   GL2 8358  -0.455   4.887   9.038  0.0818 -0.1199 -0.2496
  530DPPI   C1A 8359  -0.372   5.363   8.857  0.0171 -0.0088  0.1810
  530DPPI   C2A 8360  -0.224   5.462   8.445 -0.1598 -0.0293 -0.0159
  530DPPI   C3A 8361  -0.383   5.411   7.991  0.3797 -0.0925  0.0357
  530DPPI   C4A 8362  -0.314   5.282   7.623  0.5340 -0.0680 -0.1253
  530DPPI   C1B 8363  -0.668   4.871   8.725 -0.2054  0.0928  0.0761
  530DPPI   C2B 8364  -0.625   5.158   8.352  0.3058 -0.0405 -0.1629
  530DPPI   C3B 8365  -0.775   5.098   7.960 -0.1200  0.0226  0.1789
  530DPPI   C4B 8366  -1.159   5.261   7.773 -0.1637  0.3145  0.1853
  531DPPI    C1 8367   9.909   0.069   9.997  0.1459 -0.0193 -0.0409
  531DPPI    C2 8368   9.701  -0.086  10.302 -0.0163  0.0307 -0.1251
  531DPPI    C3 8369   9.747   0.310  10.272  0.2216  0.0123 -0.0238
  531DPPI   PO4 8370   9.794   0.001   9.752  0.0530  0.3792  0.0268
  531DPPI   GL1 8371   9.737  -0.117   9.361 -0.0629 -0.3174 -0.4902
  531DPPI   GL2 8372   9.986  -0.188   9.372 -0.0060 -0.0253  0.1425
  531DPPI   C1A 8373   9.793   0.081   8.972 -0.3061  0.0848  0.1116
  531DPPI   C2A 8374   9.917   0.252   8.503 -0.0368  0.0015 -0.0694
  531DPPI   C3A 8375  10.048   0.311   8.087  0.0556  0.1975  0.2101
  531DPPI   C4A 8376   9.998   0.134   7.632 -0.1703 -0.0183 -0.3091
  531DPPI   C1B 8377  10.256  -0.116   8.919  0.1011 -0.2511  0.0232
  531DPPI   C2B 8378  10.381  -0.216   8.534 -0.1213 -0.2717 -0.1222
  531DPPI   C3B 8379  10.704  -0.160   8.303  0.4413  0.2407  0.1022
  531DPPI   C4B 8380  10.945  -0.159   8.068  0.2106 -0.1400  0.4153
  532DPPI    C1 8381  13.339  18.569  10.699 -0.2721  0.0209 -0.1345
  532DPPI    C2 8382  13.120  18.272  10.855 -0.1800  0.1664  0.2852
  532DPPI    C3 8383  13.519  18.247  10.854 -0.1837  0.0388 -0.1997
  532DPPI   PO4 8384  13.143  18.678  10.459  0.1414 -0.0045  0.0662
  532DPPI   GL1 8385  13.223  18.740  10.025  0.1492 -0.2780 -0.2079
  532DPPI   GL2 8386  13.236  18.376   9.975 -0.1748  0.1056 -0.0394
  532DPPI   C1A 8387  13.171  18.717   9.525 -0.2295 -0.1374  0.2292
  532DPPI   C2A 8388  13.161  18.490   9.097  0.2172 -0.2541  0.0562
  532DPPI   C3A 8389  12.901  18.561   8.852  0.3388  0.4876 -0.1435
  532DPPI   C4A 8390  12.655  18.420   8.437 -0.0823 -0.1821 -0.0440
  532DPPI   C1B 8391  13.116  18.223   9.531  0.3369  0.0550  0.0371
  532DPPI   C2B 8392  13.045  17.954   9.185 -0.0606 -0.2118 -0.3259
  532DPPI   C3B 8393  12.934  18.054   8.783  0.1090  0.2675  0.0775
  532DPPI   C4B 8394  12.534  17.992   8.628 -0.2268  0.0595 -0.0465
  533DPPI    C1 8395  15.086  10.841  10.191 -0.1619  0.1279  0.1775
  533DPPI    C2 8396  14.790  11.079  10.062 -0.0370  0.3664  0.3237
  533DPPI    C3 8397  15.019  11.193  10.370  0.2909  0.2438  0.1305
  533DPPI   PO4 8398  15.181  10.770   9.902 -0.0944  0.1880 -0.0112
  533DPPI   GL1 8399  15.468  10.757   9.472 -0.1288  0.2057 -0.3951
  533DPPI   GL2 8400  15.377  11.035   9.448  0.1057  0.1010 -0.0208
  533DPPI   C1A 8401  15.628  10.942   9.022  0.0968  0.3514 -0.1876
  533DPPI   C2A 8402  15.984  11.079   8.769 -0.3181  0.0739 -0.2426
  533DPPI   C3A 8403  16.114  10.847   8.267  0.0888 -0.1122  0.0203
  533DPPI   C4A 8404  16.014  10.925   7.742 -0.2389  0.1468  0.0433
  533DPPI   C1B 8405  15.132  10.739   9.141  0.2172 -0.3644  0.0594
  533DPPI   C2B 8406  14.954  10.661   8.691 -0.0017 -0.0314 -0.0304
  533DPPI   C3B 8407  14.938  10.656   8.354  0.2755 -0.1526  0.1108
  533DPPI   C4B 8408  14.969  10.451   7.900  0.1313 -0.0815 -0.1858
  534DPPI    C1 8409  15.546   3.312   9.940 -0.1474 -0.0384 -0.2603
  534DPPI    C2 8410  15.271   3.382   9.659 -0.1144  0.3803 -0.1940
  534DPPI    C3 8411  15.205   3.497  10.036 -0.0084  0.1383 -0.1000
  534DPPI   PO4 8412  15.572   3.023   9.826 -0.0010  0.4697  0.3063
  534DPPI   GL1 8413  15.704   2.950   9.408 -0.0308  0.0574 -0.0815
  534DPPI   GL2 8414  15.894   3.025   9.154 -0.1470 -0.1242  0.0526
  534DPPI   C1A 8415  15.462   3.177   9.056  0.0466 -0.0873 -0.1033
  534DPPI   C2A 8416  15.415   3.156   8.632 -0.1682 -0.0044 -0.1374
  534DPPI   C3A 8417  15.534   3.165   8.219  0.4418  0.0034  0.3647
  534DPPI   C4A 8418  15.557   3.493   7.895  0.2370 -0.0707 -0.1716
  534DPPI   C1B 8419  15.769   2.788   8.837 -0.0074 -0.0466 -0.0168
  534DPPI   C2B 8420  15.722   2.739   8.362 -0.1151 -0.6064  0.0672
  534DPPI   C3B 8421  15.677   2.724   7.919 -0.1851 -0.2771 -0.1276
  534DPPI   C4B 8422  15.519   2.998   7.767 -0.0744 -0.0087  0.2344
  535DPPI    C1 8423   8.814   0.851   9.463  0.0408 -0.0210 -0.1690
  535DPPI    C2 8424   9.072   0.710   9.735 -0.0554  0.0941 -0.0165
  535DPPI    C3 8425   9.203   0.818   9.373  0.1274  0.2408  0.0913
  535DPPI   PO4 8426   8.594   0.652   9.474  0.2868 -0.3119 -0.0275
  535DPPI   GL1 8427   8.833   0.567   9.024 -0.3429 -0.2346 -0.1747
  535DPPI   GL2 8428   8.509   0.756   8.999  0.0260  0.1127 -0.1311
  535DPPI   C1A 8429   9.052   0.560   8.638  0.3866 -0.2095 -0.5089
  535DPPI   C2A 8430   9.221   0.768   8.318  0.2604 -0.0508  0.2416
  535DPPI   C3A 8431   9.084   0.816   7.902  0.3360  0.1192 -0.1510
  535DPPI   C4A 8432   9.151   0.517   7.514  0.2530 -0.1024  0.1633
  535DPPI   C1B 8433   8.611   0.641   8.603  0.3472 -0.1243 -0.0283
  535DPPI   C2B 8434   8.589   0.712   8.166 -0.2944 -0.7458 -0.0430
  535DPPI   C3B 8435   8.265   0.914   7.867  0.1560  0.0969 -0.1690
  535DPPI   C4B 8436   8.187   1.062   7.445  0.0484  0.1186 -0.1140
  536DPPI    C1 8437  13.312   9.772  10.182  0.2176  0.0539  0.0572
  536DPPI    C2 8438  13.565   9.533  10.380 -0.0245 -0.0962  0.1901
  536DPPI    C3 8439  13.484   9.899  10.520  0.4297  0.1127 -0.0707
  536DPPI   PO4 8440  13.071   9.653   9.999 -0.2300 -0.1039 -0.1829
  536DPPI   GL1 8441  13.014   9.578   9.668 -0.2532  0.0538  0.1519
  536DPPI   GL2 8442  13.246   9.555   9.471 -0.2281 -0.1326 -0.0596
  536DPPI   C1A 8443  12.929   9.749   9.202 -0.1584 -0.2196  0.2150
  536DPPI   C2A 8444  13.042   9.529   8.833 -0.2491  0.0979  0.2366
  536DPPI   C3A 8445  13.150   9.333   8.453  0.1803  0.1601  0.1605
  536DPPI   C4A 8446  13.137   9.210   8.064 -0.1026  0.1908 -0.0517
  536DPPI   C1B 8447  13.526   9.447   9.243  0.2201 -0.1957  0.1750
  536DPPI   C2B 8448  13.603   9.437   8.829 -0.1845 -0.1192  0.0698
  536DPPI   C3B 8449  13.641   9.349   8.414  0.4385  0.2460  0.0790
  536DPPI   C4B 8450  13.779   9.462   8.020 -0.0936 -0.4433  0.2322
  537DPPI    C1 8451   9.002   7.151   9.935 -0.0821  0.1807 -0.0757
  537DPPI    C2 8452   8.796   7.268  10.257 -0.1007  0.0891 -0.0541
  537DPPI    C3 8453   9.097   7.007  10.296 -0.2251 -0.0681 -0.1352
  537DPPI   PO4 8454   8.892   7.170   9.774 -0.2185  0.1047 -0.0694
  537DPPI   GL1 8455   8.929   7.259   9.339  0.1646  0.0251 -0.0475
  537DPPI   GL2 8456   9.000   7.565   9.233 -0.2232 -0.2171 -0.0804
  537DPPI   C1A 8457   9.090   7.031   9.044  0.2358  0.1470 -0.0427
  537DPPI   C2A 8458   9.141   6.834   8.596  0.2169 -0.2025 -0.1582
  537DPPI   C3A 8459   8.851   6.737   8.347 -0.1322  0.3950  0.1944
  537DPPI   C4A 8460   8.690   6.701   8.047  0.0059  0.0275  0.3521
  537DPPI   C1B 8461   9.002   7.497   8.784 -0.1334  0.4993 -0.0009
  537DPPI   C2B 8462   8.947   7.240   8.380  0.1181 -0.0019  0.2170
  537DPPI   C3B 8463   8.921   7.133   7.868 -0.2378  0.0419 -0.0829
  537DPPI   C4B 8464   8.691   6.928   7.623 -0.0334 -0.1089  0.0920
  538DPPI    C1 8465  18.898   4.394   9.365 -0.1738 -0.1150  0.1275
  538DPPI    C2 8466  19.214   4.158   9.435 -0.0986 -0.0877 -0.1101
  538DPPI    C3 8467  18.942   4.219   9.722  0.1606 -0.0363  0.1291
  538DPPI   PO4 8468  18.770   4.291   9.186 -0.1481  0.1445  0.0838
  538DPPI   GL1 8469  18.817   4.477   8.797 -0.0733 -0.0311 -0.3192
  538DPPI   GL2 8470  19.090   4.652   8.779 -0.2022 -0.0904 -0.1212
  538DPPI   C1A 8471  18.821   4.775   8.391  0.0004  0.3210  0.1001
  538DPPI   C2A 8472  18.682   4.670   7.973 -0.0909 -0.0574 -0.2369
  538DPPI   C3A 8473  18.669   4.778   7.440  0.3950 -0.0562  0.2705
  538DPPI   C4A 8474  18.492   4.702   6.996 -0.0172 -0.0302 -0.1051
  538DPPI   C1B 8475  19.258   4.602   8.267  0.0015 -0.1262 -0.2406
  538DPPI   C2B 8476  19.578   4.477   8.006 -0.0924  0.2382 -0.1343
  538DPPI   C3B 8477  19.516   4.653   7.573 -0.1978  0.1860 -0.2828
  538DPPI   C4B 8478  19.176   4.660   7.647 -0.0292  0.2556  0.0754
  539DPPI    C1 8479   3.549  14.436  10.073  0.0387 -0.1023 -0.0628
  539DPPI    C2 8480   3.946  14.485  10.069 -0.0058  0.3194  0.1642
  539DPPI    C3 8481   3.773  14.278  10.365  0.0653 -0.1201 -0.0928
  539DPPI   PO4 8482   3.532  14.613   9.806 -0.3633  0.1267  0.1683
  539DPPI   GL1 8483   3.507  14.547   9.421  0.3122 -0.0385  0.1475
  539DPPI   GL2 8484   3.663  14.541   9.133  0.1366 -0.3580  0.0384
  539DPPI   C1A 8485   3.239  14.714   9.024  0.2366 -0.2370 -0.2374
  539DPPI   C2A 8486   3.176  14.749   8.665  0.1268 -0.2209  0.2223
  539DPPI   C3A 8487   3.100  14.635   8.177 -0.1275  0.0622 -0.0508
  539DPPI   C4A 8488   3.050  14.468   7.799 -0.4454 -0.2289  0.3159
  539DPPI   C1B 8489   3.679  14.848   8.783  0.1688  0.1321 -0.3631
  539DPPI   C2B 8490   3.772  14.869   8.306 -0.1137 -0.3097 -0.0847
  539DPPI   C3B 8491   3.468  14.763   7.940  0.0821  0.0343  0.0315
  539DPPI   C4B 8492   3.486  14.713   7.413 -0.0475  0.1098 -0.1803
  540DPPI    C1 8493  12.299  18.521  10.252  0.1919 -0.0146  0.0358
  540DPPI    C2 8494  12.105  18.343  10.553 -0.0357 -0.1055 -0.1610
  540DPPI    C3 8495  12.079  18.739  10.505 -0.1064 -0.1074 -0.1384
  540DPPI   PO4 8496  12.294  18.359  10.043  0.2543  0.0245  0.0844
  540DPPI   GL1 8497  12.338  18.328   9.616  0.0768 -0.2007  0.0094
  540DPPI   GL2 8498  12.006  18.410   9.544  0.2582 -0.0214 -0.2911
  540DPPI   C1A 8499  12.743  18.554   9.356  0.0232  0.1365 -0.2041
  540DPPI   C2A 8500  12.869  18.940   9.200 -0.3924 -0.0085  0.1571
  540DPPI   C3A 8501  12.815  19.172   8.891  0.0640  0.1426 -0.0783
  540DPPI   C4A 8502  12.659  19.336   8.568  0.0575 -0.0698  0.0249
  540DPPI   C1B 8503  11.996  18.416   9.125  0.0977 -0.3687  0.1621
  540DPPI   C2B 8504  11.985  18.314   8.636 -0.2494  0.2155 -0.0566
  540DPPI   C3B 8505  12.004  18.356   8.181 -0.5140  0.0447 -0.0186
  540DPPI   C4B 8506  12.366  18.294   7.912 -0.0536 -0.0838 -0.0615
  541DPPI    C1 8507  14.962  15.551  10.242 -0.0575  0.0420 -0.1028
  541DPPI    C2 8508  15.008  15.769  10.574  0.0370 -0.0143 -0.0784
  541DPPI    C3 8509  14.869  15.395  10.599  0.0547 -0.0223 -0.1011
  541DPPI   PO4 8510  15.214  15.579  10.077 -0.0415 -0.1973 -0.1371
  541DPPI   GL1 8511  15.205  15.825   9.738  0.0011  0.1306 -0.2630
  541DPPI   GL2 8512  15.341  16.182   9.865  0.1056 -0.0731 -0.1990
  541DPPI   C1A 8513  15.164  15.790   9.430  0.0548 -0.3171 -0.0372
  541DPPI   C2A 8514  15.023  15.870   8.991 -0.2005 -0.1702 -0.0244
  541DPPI   C3A 8515  14.924  16.194   8.763  0.1832  0.0046  0.2621
  541DPPI   C4A 8516  14.738  16.267   8.350 -0.1306  0.1828 -0.0018
  541DPPI   C1B 8517  15.193  16.427   9.527 -0.0387 -0.1019 -0.1323
  541DPPI   C2B 8518  15.165  16.475   9.052 -0.3870 -0.3171 -0.2447
  541DPPI   C3B 8519  15.424  16.761   8.737  0.0569  0.1038 -0.1808
  541DPPI   C4B 8520  15.535  16.863   8.368  0.0192  0.2990 -0.0591
  542DPPI    C1 8521   2.762   5.137   9.267  0.0332 -0.1289  0.1337
  542DPPI    C2 8522   3.071   5.298   9.462 -0.1469  0.3541  0.0339
  542DPPI    C3 8523   2.715   5.267   9.642 -0.0993  0.0006  0.0734
  542DPPI   PO4 8524   2.660   5.255   9.025  0.3134  0.1656  0.0215
  542DPPI   GL1 8525   2.526   5.348   8.625 -0.0739  0.0942 -0.0677
  542DPPI   GL2 8526   2.554   5.675   8.751  0.0296  0.1087  0.1559
  542DPPI   C1A 8527   2.707   5.510   8.337  0.1457  0.2202 -0.0399
  542DPPI   C2A 8528   2.535   5.586   8.095 -0.0946  0.1939  0.1558
  542DPPI   C3A 8529   2.277   5.750   7.822 -0.0827  0.0122  0.0825
  542DPPI   C4A 8530   1.959   5.804   7.538  0.3181  0.4909 -0.1412
  542DPPI   C1B 8531   2.152   5.812   8.407 -0.3628 -0.0036  0.4251
  542DPPI   C2B 8532   1.869   5.810   8.124 -0.0087  0.0222  0.2026
  542DPPI   C3B 8533   1.515   5.852   7.819  0.0465 -0.0921 -0.1346
  542DPPI   C4B 8534   1.145   5.865   7.661 -0.1420  0.0085  0.3171
  543DPPI    C1 8535  11.721  14.358  10.134  0.0227 -0.1937 -0.0205
  543DPPI    C2 8536  12.040  14.534  10.298 -0.2831  0.1562  0.2169
  543DPPI    C3 8537  12.004  14.136  10.309 -0.0323  0.1376  0.5127
  543DPPI   PO4 8538  11.700  14.548   9.943  0.1671 -0.2695  0.1888
  543DPPI   GL1 8539  11.799  14.473   9.552  0.0555 -0.3458 -0.0855
  543DPPI   GL2 8540  12.061  14.578   9.307  0.0826  0.1012 -0.0802
  543DPPI   C1A 8541  11.651  14.463   9.023 -0.1684  0.2142 -0.2599
  543DPPI   C2A 8542  11.922  14.597   8.561  0.3847 -0.1467  0.2986
  543DPPI   C3A 8543  12.216  14.564   8.308 -0.4006  0.0045 -0.0434
  543DPPI   C4A 8544  12.438  14.698   7.928 -0.3188 -0.0663 -0.0748
  543DPPI   C1B 8545  12.290  14.417   9.026  0.1573  0.2583 -0.0077
  543DPPI   C2B 8546  12.489  14.280   8.657  0.0940  0.1417 -0.2904
  543DPPI   C3B 8547  12.717  14.424   8.310 -0.2170  0.1575  0.0679
  543DPPI   C4B 8548  12.863  14.133   8.216 -0.0249  0.1428 -0.3288
  544DPPI    C1 8549   8.103  11.697   9.525 -0.1171 -0.2277 -0.2212
  544DPPI    C2 8550   7.848  11.760   9.827 -0.0424  0.3703 -0.2705
  544DPPI    C3 8551   8.018  11.401   9.781 -0.4834  0.1081  0.0590
  544DPPI   PO4 8552   7.926  11.853   9.274  0.0907  0.1339  0.0164
  544DPPI   GL1 8553   7.844  12.189   8.911  0.0305 -0.2167  0.3436
  544DPPI   GL2 8554   8.178  11.875   8.787 -0.0314 -0.1251  0.0046
  544DPPI   C1A 8555   7.632  12.467   8.553 -0.0570  0.3524  0.0235
  544DPPI   C2A 8556   7.649  12.538   8.140 -0.1624  0.0305 -0.0088
  544DPPI   C3A 8557   7.558  12.296   7.763  0.4069 -0.0093 -0.2308
  544DPPI   C4A 8558   7.375  11.971   7.755  0.2870 -0.3337  0.1219
  544DPPI   C1B 8559   8.339  11.960   8.335  0.4546 -0.2133  0.4825
  544DPPI   C2B 8560   8.460  11.811   7.883  0.2101  0.4120  0.0456
  544DPPI   C3B 8561   8.339  11.984   7.559 -0.3905 -0.2992 -0.2393
  544DPPI   C4B 8562   8.406  12.317   7.455 -0.4484  0.1673  0.1089
  545DPPI    C1 8563   1.504  15.280  10.325 -0.1217  0.1617  0.1401
  545DPPI    C2 8564   1.815  15.207  10.566 -0.1452 -0.0334  0.1134
  545DPPI    C3 8565   1.450  15.078  10.666 -0.1403 -0.1899 -0.0663
  545DPPI   PO4 8566   1.665  15.288  10.102  0.0657 -0.1160 -0.3663
  545DPPI   GL1 8567   1.419  15.280   9.578  0.0354 -0.0349 -0.2640
  545DPPI   GL2 8568   1.659  15.151   9.382 -0.2352  0.2025  0.0765
  545DPPI   C1A 8569   1.437  15.378   9.057 -0.0740  0.1203 -0.1620
  545DPPI   C2A 8570   1.349  15.400   8.609  0.2999  0.3646 -0.0496
  545DPPI   C3A 8571   1.201  15.546   8.166 -0.3182 -0.0121  0.0995
  545DPPI   C4A 8572   1.035  15.404   7.785  0.0289 -0.0929  0.2928
  545DPPI   C1B 8573   1.772  15.009   8.956 -0.0568  0.0190  0.1239
  545DPPI   C2B 8574   1.784  14.952   8.524  0.3515 -0.0948 -0.1185
  545DPPI   C3B 8575   1.929  14.885   8.077  0.1899  0.0711 -0.2262
  545DPPI   C4B 8576   1.885  14.928   7.614  0.1226 -0.0240 -0.0802
  546DPPI    C1 8577  18.692   6.042   9.989 -0.1477  0.0618 -0.1144
  546DPPI    C2 8578  18.510   6.255   9.703 -0.0342  0.1116 -0.1503
  546DPPI    C3 8579  18.310   5.967   9.897 -0.2210  0.3196 -0.0294
  546DPPI   PO4 8580  18.982   6.344   9.979  0.0792  0.0723  0.1496
  546DPPI   GL1 8581  19.012   6.163   9.584 -0.0742  0.4129 -0.2884
  546DPPI   GL2 8582  18.813   5.851   9.460 -0.1515 -0.0843 -0.0417
  546DPPI   C1A 8583  19.154   6.102   9.175  0.4364  0.2915  0.1144
  546DPPI   C2A 8584  19.123   6.026   8.768 -0.4223 -0.3157 -0.2461
  546DPPI   C3A 8585  19.166   5.745   8.783  0.1298 -0.1477 -0.1571
  546DPPI   C4A 8586  19.128   5.523   9.123 -0.0734 -0.3308  0.0172
  546DPPI   C1B 8587  18.704   5.934   9.034 -0.0297  0.3443  0.0199
  546DPPI   C2B 8588  18.656   6.034   8.577  0.0107  0.0048  0.0548
  546DPPI   C3B 8589  18.918   5.936   8.150  0.0510 -0.2143 -0.2990
  546DPPI   C4B 8590  18.902   5.924   7.686 -0.1501 -0.2218 -0.0023
  547DPPI    C1 8591  12.728   4.007   9.900  0.0273 -0.1169 -0.1405
  547DPPI    C2 8592  12.414   4.176   9.719  0.1223  0.3185  0.0864
  547DPPI    C3 8593  12.401   4.100  10.112  0.1136 -0.1371  0.0035
  547DPPI   PO4 8594  12.858   3.723   9.713 -0.1655 -0.0043 -0.1259
  547DPPI   GL1 8595  12.966   3.610   9.197 -0.2542 -0.0243  0.1618
  547DPPI   GL2 8596  13.005   3.948   9.240  0.2868 -0.2416 -0.2773
  547DPPI   C1A 8597  12.744   3.549   8.824 -0.2961  0.0415 -0.0649
  547DPPI   C2A 8598  12.590   3.659   8.454 -0.0020 -0.3920 -0.1949
  547DPPI   C3A 8599  12.445   3.791   8.057 -0.2349  0.0027 -0.0847
  547DPPI   C4A 8600  12.474   4.007   7.657 -0.1364 -0.0700 -0.2392
  547DPPI   C1B 8601  12.940   4.069   8.834  0.1595 -0.2153  0.2053
  547DPPI   C2B 8602  13.078   4.385   8.536  0.0660 -0.4316 -0.1092
  547DPPI   C3B 8603  13.261   4.404   8.068 -0.0990 -0.1795  0.4332
  547DPPI   C4B 8604  13.362   4.337   7.776  0.4891  0.1755  0.0299
  548DPPI    C1 8605  14.135   5.534  10.157  0.1956 -0.0351  0.2596
  548DPPI    C2 8606  14.078   5.574  10.551 -0.0825  0.3280  0.1885
  548DPPI    C3 8607  14.148   5.897  10.326  0.1620  0.1136 -0.0504
  548DPPI   PO4 8608  13.882   5.445   9.995  0.0197  0.0654  0.3077
  548DPPI   GL1 8609  13.783   5.478   9.592 -0.3656  0.1370 -0.1548
  548DPPI   GL2 8610  13.515   5.629   9.653 -0.3540  0.3510  0.3544
  548DPPI   C1A 8611  13.954   5.284   9.250 -0.1482  0.0374 -0.0492
  548DPPI   C2A 8612  14.100   5.025   8.971  0.2309 -0.4057 -0.1600
  548DPPI   C3A 8613  14.046   5.116   8.539  0.0139  0.0117 -0.4467
  548DPPI   C4A 8614  13.911   5.138   8.180  0.0114  0.5651  0.2364
  548DPPI   C1B 8615  13.513   5.581   9.143  0.0552  0.0481 -0.0158
  548DPPI   C2B 8616  13.760   5.450   8.780  0.3890  0.0649  0.0090
  548DPPI   C3B 8617  13.828   5.581   8.474  0.0103 -0.3285 -0.0544
  548DPPI   C4B 8618  13.861   5.593   7.994  0.1210 -0.0604  0.1200
  549DPPI    C1 8619   0.975   5.432   9.614  0.1952 -0.1209  0.0703
  549DPPI    C2 8620   0.964   5.088   9.410  0.0646  0.0411 -0.2019
  549DPPI    C3 8621   0.879   5.092   9.801 -0.0514 -0.2168 -0.2223
  549DPPI   PO4 8622   0.840   5.604   9.320  0.0069 -0.0488  0.1630
  549DPPI   GL1 8623   0.492   5.734   9.086  0.1413 -0.0539  0.1365
  549DPPI   GL2 8624   0.763   5.659   8.726  0.2270 -0.1001  0.0612
  549DPPI   C1A 8625   0.453   6.019   8.729  0.1881 -0.1084 -0.1088
  549DPPI   C2A 8626   0.419   6.461   8.424  0.3919  0.0969  0.1622
  549DPPI   C3A 8627   0.576   6.754   8.663 -0.0092 -0.0089 -0.0740
  549DPPI   C4A 8628   0.573   6.990   9.057  0.0110  0.1765 -0.1086
  549DPPI   C1B 8629   0.784   5.899   8.409 -0.1188 -0.1437 -0.0937
  549DPPI   C2B 8630   0.746   6.055   7.981 -0.2089  0.1471  0.2678
  549DPPI   C3B 8631   0.708   6.099   7.611  0.1503 -0.2113  0.3388
  549DPPI   C4B 8632   0.898   5.889   7.236 -0.1164  0.1434  0.0324
  550DPPI    C1 8633  15.345   7.988   9.710 -0.2668 -0.1357 -0.1156
  550DPPI    C2 8634  15.230   8.075  10.084  0.0958 -0.1911  0.0134
  550DPPI    C3 8635  15.471   7.762  10.016 -0.1490 -0.3182 -0.2963
  550DPPI   PO4 8636  15.163   8.081   9.582 -0.1079 -0.3108 -0.2387
  550DPPI   GL1 8637  14.926   8.148   9.250  0.1431 -0.0801  0.0591
  550DPPI   GL2 8638  15.085   8.326   9.162  0.1865 -0.1757 -0.1552
  550DPPI   C1A 8639  14.516   7.994   9.096 -0.1305  0.0839  0.2268
  550DPPI   C2A 8640  14.384   7.756   8.750  0.1389 -0.2242 -0.1325
  550DPPI   C3A 8641  14.351   7.705   8.341 -0.3309  0.2528  0.1661
  550DPPI   C4A 8642  14.409   7.659   7.917  0.0744  0.3477 -0.1600
  550DPPI   C1B 8643  14.975   8.260   8.718 -0.1435  0.0798 -0.3195
  550DPPI   C2B 8644  14.878   8.375   8.276  0.0718  0.3334 -0.0386
  550DPPI   C3B 8645  14.947   8.496   7.842  0.3289  0.0568  0.1966
  550DPPI   C4B 8646  15.194   8.647   7.542  0.2041 -0.0320 -0.0576
  551DPPI    C1 8647  18.559   2.887   9.356  0.1388 -0.1729 -0.0398
  551DPPI    C2 8648  18.341   2.555   9.305 -0.0517 -0.1076  0.3156
  551DPPI    C3 8649  18.534   2.616   9.649  0.3074 -0.0331  0.1058
  551DPPI   PO4 8650  18.663   3.016   9.169 -0.2605 -0.0305  0.1070
  551DPPI   GL1 8651  18.807   2.756   8.836 -0.2052 -0.3880 -0.1563
  551DPPI   GL2 8652  18.568   2.516   8.756 -0.0210  0.0414  0.1906
  551DPPI   C1A 8653  18.656   2.896   8.374  0.0778 -0.0950 -0.0604
  551DPPI   C2A 8654  18.478   2.960   8.030 -0.1252 -0.1844  0.1106
  551DPPI   C3A 8655  18.353   2.895   7.641 -0.3661  0.0533 -0.1258
  551DPPI   C4A 8656  18.764   2.901   7.324  0.2333 -0.2910  0.0481
  551DPPI   C1B 8657  18.911   2.243   8.564  0.3377  0.4427 -0.4039
  551DPPI   C2B 8658  19.053   2.025   8.149 -0.1196  0.1243 -0.4179
  551DPPI   C3B 8659  19.099   2.189   7.702  0.1939 -0.1193  0.0985
  551DPPI   C4B 8660  19.080   2.407   7.356 -0.0778 -0.2317 -0.0429
  552DPPI    C1 8661  13.880  11.327  10.231  0.1930  0.1984  0.0934
  552DPPI    C2 8662  13.582  11.225  10.479  0.2077 -0.1730 -0.0357
  552DPPI    C3 8663  13.900  11.424  10.618  0.0528 -0.0665  0.1695
  552DPPI   PO4 8664  13.801  11.357  10.017  0.0456 -0.3124  0.3700
  552DPPI   GL1 8665  14.096  11.537   9.778  0.3877  0.1649 -0.0182
  552DPPI   GL2 8666  14.238  11.676   9.399  0.0493 -0.0877  0.1621
  552DPPI   C1A 8667  14.371  11.299   9.632 -0.1590  0.2145  0.0539
  552DPPI   C2A 8668  14.460  11.231   9.290 -0.2632 -0.1257  0.0846
  552DPPI   C3A 8669  14.511  11.095   8.935  0.0770  0.2293  0.2200
  552DPPI   C4A 8670  14.472  10.910   8.469 -0.0838  0.2475 -0.2275
  552DPPI   C1B 8671  14.148  11.528   8.977  0.1460  0.0313  0.2467
  552DPPI   C2B 8672  14.247  11.394   8.571  0.0006 -0.2062 -0.0468
  552DPPI   C3B 8673  14.366  11.430   8.212 -0.0768  0.0490 -0.2697
  552DPPI   C4B 8674  14.367  11.523   7.812 -0.2176  0.1432 -0.0175
  553DPPI    C1 8675   7.792   7.824  10.232  0.1488  0.4465 -0.1075
  553DPPI    C2 8676   8.056   7.523  10.243  0.0033  0.3239  0.1027
  553DPPI    C3 8677   8.103   7.839  10.483 -0.0097  0.3280  0.0999
  553DPPI   PO4 8678   7.864   8.032   9.927 -0.3389  0.0496  0.1500
  553DPPI   GL1 8679   7.855   7.994   9.380  0.3835  0.0591 -0.2098
  553DPPI   GL2 8680   7.940   8.375   9.317 -0.0152  0.1768  0.1341
  553DPPI   C1A 8681   8.129   7.985   8.990  0.0460  0.0733  0.2051
  553DPPI   C2A 8682   8.220   7.844   8.613 -0.1049  0.2406 -0.0052
  553DPPI   C3A 8683   8.352   7.924   8.201 -0.3755 -0.2340  0.0925
  553DPPI   C4A 8684   8.354   7.788   7.731  0.3473  0.0468  0.1568
  553DPPI   C1B 8685   8.009   8.422   8.785  0.2226  0.2220 -0.0520
  553DPPI   C2B 8686   8.268   8.341   8.409  0.2844  0.0464  0.0880
  553DPPI   C3B 8687   8.237   8.271   7.888  0.0786  0.3568  0.0312
  553DPPI   C4B 8688   8.024   8.168   7.468 -0.0572  0.1305 -0.0406
  554PYPI    C1 8689  10.814   4.406   9.751 -0.0226  0.1692 -0.0621
  554PYPI    C2 8690  10.918   4.446  10.135  0.0702  0.0770 -0.0772
  554PYPI    C3 8691  10.681   4.144  10.022  0.0285  0.1145 -0.0896
  554PYPI   PO4 8692  10.990   4.552   9.515 -0.0307  0.2796 -0.0617
  554PYPI   GL1 8693  11.153   4.322   9.181  0.0567 -0.2250 -0.3109
  554PYPI   GL2 8694  11.247   4.530   9.008 -0.1197 -0.1772 -0.0312
  554PYPI   C1A 8695  11.318   4.005   8.997 -0.2861  0.3855 -0.0755
  554PYPI   C2A 8696  11.284   3.583   8.760 -0.0114  0.3622  0.0082
  554PYPI   D3A 8697  11.382   3.212   8.523  0.0643  0.2291  0.4391
  554PYPI   C4A 8698  11.578   2.871   8.617 -0.1934 -0.5971 -0.1787
  554PYPI   C1B 8699  11.213   4.299   8.637 -0.0966  0.1603 -0.2077
  554PYPI   C2B 8700  11.052   4.315   8.204  0.4768  0.0397  0.0428
  554PYPI   C3B 8701  10.991   4.321   7.868  0.1225  0.3383 -0.0100
  554PYPI   C4B 8702  11.215   4.290   7.421  0.0658  0.3353  0.3886
  555PYPI    C1 8703  14.414  13.752  10.127 -0.0577 -0.0008 -0.1850
  555PYPI    C2 8704  14.530  14.135  10.127  0.0514 -0.0324  0.0355
  555PYPI    C3 8705  14.197  14.027  10.321 -0.0340 -0.0345 -0.1105
  555PYPI   PO4 8706  14.384  13.687   9.908 -0.0074 -0.2062  0.0136
  555PYPI   GL1 8707  14.465  13.496   9.573 -0.0277  0.0947 -0.2863
  555PYPI   GL2 8708  14.068  13.437   9.498 -0.0774 -0.0057 -0.0413
  555PYPI   C1A 8709  14.506  13.510   9.070  0.1824  0.2900 -0.0765
  555PYPI   C2A 8710  14.594  13.478   8.649  0.2550  0.0997 -0.3426
  555PYPI   D3A 8711  14.638  13.483   8.300  0.2317  0.2330 -0.1371
  555PYPI   C4A 8712  14.937  13.338   8.010 -0.1947 -0.1108  0.0013
  555PYPI   C1B 8713  13.977  13.621   9.069 -0.2269 -0.0514  0.3595
  555PYPI   C2B 8714  14.057  13.437   8.683  0.1350 -0.0483  0.2936
  555PYPI   C3B 8715  14.074  13.431   8.215 -0.2048  0.1813 -0.2695
  555PYPI   C4B 8716  14.088  13.413   7.718 -0.3965 -0.0253  0.1275
  556PYPI    C1 8717  17.799   5.928   9.768  0.1913  0.2174 -0.2552
  556PYPI    C2 8718  17.973   6.270   9.657  0.2542  0.2554 -0.0434
  556PYPI    C3 8719  17.656   6.277   9.901 -0.1993  0.2008 -0.6118
  556PYPI   PO4 8720  17.910   5.682   9.655  0.0373  0.2817  0.1631
  556PYPI   GL1 8721  18.151   5.384   9.316  0.0907  0.3088 -0.0195
  556PYPI   GL2 8722  18.278   5.529   9.092  0.0107 -0.0674  0.1837
  556PYPI   C1A 8723  17.769   5.614   9.028 -0.1790  0.5477 -0.1007
  556PYPI   C2A 8724  17.796   5.687   8.584 -0.0196  0.0390 -0.3395
  556PYPI   D3A 8725  17.714   6.152   8.655 -0.1902  0.1668  0.0200
  556PYPI   C4A 8726  17.920   6.423   8.442 -0.1724  0.0333 -0.3004
  556PYPI   C1B 8727  18.374   5.597   8.638 -0.2585  0.1956 -0.2624
  556PYPI   C2B 8728  18.454   5.711   8.189  0.0815  0.0700 -0.1894
  556PYPI   C3B 8729  18.332   5.604   7.751 -0.1317  0.0804 -0.2128
  556PYPI   C4B 8730  18.517   5.642   7.330  0.3182  0.1140  0.2151
  557PYPI    C1 8731  13.097  13.227   9.707 -0.1145 -0.2418  0.0202
  557PYPI    C2 8732  13.395  13.002   9.849 -0.0322  0.0298  0.2879
  557PYPI    C3 8733  13.098  13.116  10.091 -0.1413  0.1008  0.1226
  557PYPI   PO4 8734  13.200  13.313   9.498 -0.0905  0.1163  0.2135
  557PYPI   GL1 8735  13.141  13.391   9.097  0.2403  0.2531  0.1108
  557PYPI   GL2 8736  13.475  13.537   9.124  0.0022 -0.4955  0.2783
  557PYPI   C1A 8737  13.108  13.365   8.674 -0.0376 -0.1325  0.3706
  557PYPI   C2A 8738  12.991  13.471   8.213 -0.1530  0.4203 -0.0015
  557PYPI   D3A 8739  12.755  13.759   7.870 -0.1376  0.3111 -0.1793
  557PYPI   C4A 8740  12.888  13.883   7.522 -0.1739 -0.1653 -0.0906
  557PYPI   C1B 8741  13.524  13.501   8.763 -0.3391  0.2582  0.0623
  557PYPI   C2B 8742  13.521  13.416   8.350  0.4022 -0.3276 -0.2195
  557PYPI   C3B 8743  13.574  13.411   7.984 -0.1963  0.1458 -0.3075
  557PYPI   C4B 8744  13.162  13.336   7.734  0.1977  0.1280 -0.0428
  558PYPI    C1 8745  13.628  17.782   9.933  0.0286 -0.2998  0.1381
  558PYPI    C2 8746  13.245  17.882   9.870  0.1089 -0.0118  0.0894
  558PYPI    C3 8747  13.341  17.631  10.167 -0.1097 -0.0261  0.1497
  558PYPI   PO4 8748  13.821  17.936  10.124  0.1234  0.2997  0.6807
  558PYPI   GL1 8749  14.071  18.223   9.763 -0.2541 -0.0479 -0.4382
  558PYPI   GL2 8750  14.246  18.123   9.691  0.3566  0.0295  0.1287
  558PYPI   C1A 8751  13.968  18.278   9.286  0.0375  0.2136 -0.0151
  558PYPI   C2A 8752  13.979  18.294   8.872  0.1688  0.1781  0.0174
  558PYPI   D3A 8753  13.603  18.594   8.741  0.0558  0.2798 -0.0567
  558PYPI   C4A 8754  13.223  18.450   8.416 -0.0612 -0.1689 -0.3083
  558PYPI   C1B 8755  14.486  18.127   9.362  0.2977  0.1708 -0.2095
  558PYPI   C2B 8756  14.402  17.988   9.018 -0.0434 -0.0428  0.4235
  558PYPI   C3B 8757  14.281  18.085   8.558  0.0471  0.0933 -0.1170
  558PYPI   C4B 8758  14.215  18.063   8.084 -0.1897  0.3346 -0.1140
  559PYPI    C1 8759  17.692   2.184   9.553 -0.0576  0.0209  0.0786
  559PYPI    C2 8760  17.913   2.350   9.843 -0.0920 -0.0484  0.1447
  559PYPI    C3 8761  17.613   2.101   9.936  0.0096 -0.2106  0.0439
  559PYPI   PO4 8762  17.859   2.451   9.353  0.1631 -0.0415  0.0815
  559PYPI   GL1 8763  17.911   2.628   9.024  0.0303 -0.1703 -0.1422
  559PYPI   GL2 8764  18.005   2.958   9.089 -0.2224  0.2107  0.1119
  559PYPI   C1A 8765  18.124   2.706   8.669 -0.3805 -0.2200 -0.0646
  559PYPI   C2A 8766  17.990   2.620   8.321  0.1846  0.4374  0.1395
  559PYPI   D3A 8767  18.207   2.430   8.092 -0.0101  0.2364  0.0577
  559PYPI   C4A 8768  18.555   2.315   8.191 -0.2396 -0.3424 -0.1301
  559PYPI   C1B 8769  18.144   3.218   8.778  0.1238  0.2387 -0.1180
  559PYPI   C2B 8770  18.076   3.114   8.276  0.4632 -0.0068  0.0914
  559PYPI   C3B 8771  17.979   3.000   7.909 -0.2554 -0.0325  0.0432
  559PYPI   C4B 8772  18.047   3.283   7.483 -0.0158 -0.4021  0.0381
  560PYPI    C1 8773   2.700  17.388  10.043 -0.1963  0.0373  0.1082
  560PYPI    C2 8774   2.373  17.311   9.825 -0.1715  0.0792  0.0558
  560PYPI    C3 8775   2.339  17.398  10.214 -0.2132 -0.0277  0.0765
  560PYPI   PO4 8776   2.836  17.642   9.875  0.0616  0.0785 -0.2285
  560PYPI   GL1 8777   2.993  17.588   9.477  0.0675 -0.0555 -0.1328
  560PYPI   GL2 8778   2.980  17.998   9.433  0.0159 -0.0344 -0.0082
  560PYPI   C1A 8779   2.841  17.385   9.182  0.2054  0.0933 -0.0552
  560PYPI   C2A 8780   2.485  17.304   9.027  0.1180 -0.3482  0.1449
  560PYPI   D3A 8781   2.299  16.980   8.706 -0.2095  0.0519 -0.3766
  560PYPI   C4A 8782   2.599  16.970   8.401  0.0082 -0.0317 -0.3636
  560PYPI   C1B 8783   3.063  17.780   9.001  0.4762  0.1621  0.1802
  560PYPI   C2B 8784   3.056  17.689   8.548 -0.1015 -0.0893 -0.1531
  560PYPI   C3B 8785   2.972  17.378   8.236  0.0747 -0.2255  0.2013
  560PYPI   C4B 8786   2.796  17.209   7.925  0.0075  0.1046  0.1248
  561PYPI    C1 8787  16.451   9.615   9.861  0.1513  0.1091  0.0389
  561PYPI    C2 8788  16.102   9.706   9.689  0.1960 -0.0686 -0.1506
  561PYPI    C3 8789  16.117   9.429   9.978  0.1542  0.0701 -0.0140
  561PYPI   PO4 8790  16.589   9.572   9.659 -0.0732  0.1160 -0.3140
  561PYPI   GL1 8791  16.524   9.808   9.328  0.2141  0.0060 -0.0082
  561PYPI   GL2 8792  16.235   9.657   9.088  0.0513  0.0547 -0.1142
  561PYPI   C1A 8793  16.690   9.625   8.927  0.0789  0.0739  0.1100
  561PYPI   C2A 8794  16.857   9.463   8.620  0.3030 -0.1657  0.3637
  561PYPI   D3A 8795  16.742   9.502   8.263 -0.1886  0.1911  0.0130
  561PYPI   C4A 8796  16.943   9.136   8.044  0.3378 -0.3689 -0.2276
  561PYPI   C1B 8797  16.334   9.671   8.564  0.3510 -0.0124  0.0442
  561PYPI   C2B 8798  16.289   9.488   8.083 -0.1197 -0.0429  0.0663
  561PYPI   C3B 8799  16.495   9.318   7.745  0.0064 -0.2535 -0.1305
  561PYPI   C4B 8800  16.696   8.906   7.595  0.2532  0.0727  0.0478
  562PYPI    C1 8801   5.200   6.932  10.202  0.1284  0.1811 -0.0203
  562PYPI    C2 8802   4.899   6.884  10.462  0.0857  0.0840 -0.0872
  562PYPI    C3 8803   5.276   6.817  10.578  0.0681  0.0563 -0.0456
  562PYPI   PO4 8804   5.070   6.965   9.968  0.0092  0.1295 -0.1176
  562PYPI   GL1 8805   5.150   7.131   9.608 -0.1870 -0.1187 -0.2673
  562PYPI   GL2 8806   5.019   6.920   9.363 -0.0861 -0.0785  0.0140
  562PYPI   C1A 8807   5.522   7.137   9.375 -0.1043  0.1725 -0.4079
  562PYPI   C2A 8808   5.586   7.210   9.015 -0.2373  0.0263  0.0805
  562PYPI   D3A 8809   5.747   7.301   8.626 -0.1457  0.3804  0.3483
  562PYPI   C4A 8810   5.636   7.707   8.388  0.0762  0.0429  0.2567
  562PYPI   C1B 8811   4.986   6.952   8.847 -0.2132  0.0098 -0.1864
  562PYPI   C2B 8812   4.989   6.904   8.483  0.0501  0.1207 -0.5505
  562PYPI   C3B 8813   5.001   6.845   8.138 -0.0903  0.0355  0.1606
  562PYPI   C4B 8814   5.115   6.515   7.871 -0.3085 -0.1120 -0.1719
  563PYPI    C1 8815   7.363   8.267   9.802 -0.1661 -0.0641  0.0421
  563PYPI    C2 8816   7.377   7.868   9.827  0.0113 -0.0462  0.2533
  563PYPI    C3 8817   7.314   8.088  10.156  0.0470  0.1052  0.1598
  563PYPI   PO4 8818   7.495   8.279   9.578  0.2410 -0.2547 -0.0919
  563PYPI   GL1 8819   7.352   8.181   9.218 -0.0253 -0.0349  0.1910
  563PYPI   GL2 8820   7.150   8.471   9.264  0.0392 -0.0243  0.0934
  563PYPI   C1A 8821   7.662   8.168   8.957  0.3244  0.5714  0.0305
  563PYPI   C2A 8822   7.622   7.995   8.576  0.5394 -0.1696  0.2403
  563PYPI   D3A 8823   7.827   8.149   8.225 -0.0451  0.1821 -0.2497
  563PYPI   C4A 8824   7.791   8.074   7.838 -0.0811 -0.0748 -0.2358
  563PYPI   C1B 8825   7.228   8.416   8.761 -0.1304 -0.0575  0.2050
  563PYPI   C2B 8826   7.248   8.203   8.310 -0.1453  0.2879  0.0869
  563PYPI   C3B 8827   7.065   8.072   8.002  0.1490  0.2023 -0.1721
  563PYPI   C4B 8828   6.912   8.322   7.688 -0.2332 -0.3208  0.0227
  564PYPI    C1 8829  13.891   3.343   9.656 -0.0512 -0.1034 -0.0045
  564PYPI    C2 8830  13.995   3.038   9.892 -0.0092 -0.0797  0.0076
  564PYPI    C3 8831  13.761   3.329  10.033  0.0006 -0.0752  0.0145
  564PYPI   PO4 8832  13.976   3.303   9.423  0.1871  0.0889  0.0335
  564PYPI   GL1 8833  13.907   3.606   9.142 -0.1271 -0.0560 -0.0240
  564PYPI   GL2 8834  14.227   3.575   9.088 -0.3108  0.2387 -0.0651
  564PYPI   C1A 8835  13.790   3.721   8.727 -0.1974  0.1679 -0.0643
  564PYPI   C2A 8836  13.685   3.572   8.339  0.6003  0.2670  0.0521
  564PYPI   D3A 8837  13.426   3.447   8.078  0.0646 -0.0141  0.0052
  564PYPI   C4A 8838  13.241   3.477   7.789 -0.0496 -0.0239  0.0543
  564PYPI   C1B 8839  14.034   3.332   8.679 -0.0662  0.2011  0.1994
  564PYPI   C2B 8840  13.831   3.115   8.245 -0.1051 -0.2074  0.3156
  564PYPI   C3B 8841  13.774   2.983   7.846  0.3493 -0.0428 -0.2297
  564PYPI   C4B 8842  13.737   3.197   7.502 -0.0583  0.1765 -0.0026
  565PYPI    C1 8843   8.506  11.449   9.654  0.1049 -0.0833 -0.4535
  565PYPI    C2 8844   8.722  11.123   9.737 -0.0641 -0.1111 -0.1027
  565PYPI    C3 8845   8.357  11.086   9.579 -0.0775 -0.0911 -0.0764
  565PYPI   PO4 8846   8.643  11.682   9.525 -0.0757 -0.1669 -0.1769
  565PYPI   GL1 8847   8.863  11.786   9.242 -0.2192 -0.1005 -0.2110
  565PYPI   GL2 8848   8.836  11.964   9.067  0.1959 -0.0172 -0.0648
  565PYPI   C1A 8849   9.147  11.596   8.775  0.0193  0.0887 -0.0319
  565PYPI   C2A 8850   9.186  11.626   8.311 -0.1147 -0.0811  0.0110
  565PYPI   D3A 8851   9.239  11.597   7.934 -0.3037  0.2336  0.1575
  565PYPI   C4A 8852   9.062  11.532   7.681 -0.3701 -0.0031  0.0952
  565PYPI   C1B 8853   8.690  11.764   8.706 -0.0196  0.0968  0.2769
  565PYPI   C2B 8854   8.758  11.857   8.246 -0.0976 -0.0039 -0.3187
  565PYPI   C3B 8855   8.942  11.978   7.859 -0.0393 -0.0240 -0.0947
  565PYPI   C4B 8856   9.293  11.948   7.617 -0.1609 -0.3932  0.1001
  566PYPI    C1 8857   3.810   1.722   9.965 -0.2586  0.1715  0.0491
  566PYPI    C2 8858   3.853   1.326  10.006  0.1995  0.1931 -0.1645
  566PYPI    C3 8859   3.636   1.532  10.272  0.0414 -0.1840  0.0062
  566PYPI   PO4 8860   4.083   1.810   9.918 -0.2538  0.3224 -0.1760
  566PYPI   GL1 8861   4.280   1.804   9.501 -0.3677  0.0656 -0.4754
  566PYPI   GL2 8862   4.083   1.867   9.179  0.3470  0.0265  0.1078
  566PYPI   C1A 8863   4.548   2.021   9.255  0.2911 -0.0620 -0.0087
  566PYPI   C2A 8864   4.513   2.213   8.733 -0.3574  0.0675  0.2143
  566PYPI   D3A 8865   4.331   2.287   8.403 -0.3231  0.0075 -0.0290
  566PYPI   C4A 8866   4.648   2.409   8.224  0.3566 -0.5120  0.1530
  566PYPI   C1B 8867   4.153   1.870   8.724 -0.0996  0.1001 -0.1276
  566PYPI   C2B 8868   4.352   1.810   8.241 -0.0568 -0.0815 -0.1070
  566PYPI   C3B 8869   4.376   2.097   7.776 -0.2062 -0.1370  0.0534
  566PYPI   C4B 8870   4.704   2.307   7.683  0.0428  0.6218 -0.2548
  567PYPI    C1 8871   2.398   5.800   9.224  0.0140 -0.1157 -0.0106
  567PYPI    C2 8872   2.299   5.420   9.299 -0.2619 -0.0643 -0.1025
  567PYPI    C3 8873   2.057   5.717   9.415 -0.0581  0.0839 -0.0498
  567PYPI   PO4 8874   2.708   5.783   9.269  0.0204 -0.2589  0.2121
  567PYPI   GL1 8875   3.090   5.733   9.003  0.0270  0.1717 -0.1497
  567PYPI   GL2 8876   3.041   5.486   8.867  0.1881 -0.1229  0.2097
  567PYPI   C1A 8877   2.992   5.956   8.600 -0.1795  0.0413  0.0010
  567PYPI   C2A 8878   2.910   5.883   8.091 -0.5773  0.2651  0.1786
  567PYPI   D3A 8879   3.066   5.865   7.707  0.0420  0.2572  0.1195
  567PYPI   C4A 8880   3.052   6.151   7.263  0.0257  0.2519 -0.0320
  567PYPI   C1B 8881   3.065   5.166   8.473 -0.0079 -0.2827  0.0688
  567PYPI   C2B 8882   3.073   5.404   8.044 -0.0252 -0.1680  0.0957
  567PYPI   C3B 8883   3.076   5.370   7.602 -0.1876  0.0116 -0.3865
  567PYPI   C4B 8884   3.222   5.092   7.273 -0.0600  0.0000  0.1605
  568PYPI    C1 8885   8.444   3.425   9.248 -0.1587 -0.1779 -0.0308
  568PYPI    C2 8886   8.354   3.292   9.615  0.1073 -0.1491  0.0467
  568PYPI    C3 8887   8.536   3.645   9.569  0.1321 -0.1810 -0.1091
  568PYPI   PO4 8888   8.204   3.403   9.140  0.1510 -0.1110 -0.0622
  568PYPI   GL1 8889   8.073   3.544   8.848  0.0802 -0.2194 -0.1494
  568PYPI   GL2 8890   8.180   3.903   8.915  0.3717  0.1070 -0.2321
  568PYPI   C1A 8891   7.868   3.603   8.516 -0.0099 -0.1518  0.1556
  568PYPI   C2A 8892   7.914   3.826   8.100 -0.4975 -0.0387  0.0303
  568PYPI   D3A 8893   7.970   3.932   7.595 -0.0788 -0.2025  0.1711
  568PYPI   C4A 8894   7.879   4.261   7.450 -0.2384 -0.1749  0.1387
  568PYPI   C1B 8895   8.159   3.993   8.462 -0.1308  0.3350 -0.1582
  568PYPI   C2B 8896   8.059   4.417   8.144 -0.1635  0.0280 -0.2777
  568PYPI   C3B 8897   7.914   4.621   7.828  0.1396  0.0920  0.1991
  568PYPI   C4B 8898   8.195   4.711   7.444 -0.0659 -0.2299  0.1005
  569PYPI    C1 8899  10.010  13.368   9.878  0.1178  0.2138  0.0507
  569PYPI    C2 8900   9.769  13.476  10.177  0.1203  0.1546  0.0743
  569PYPI    C3 8901   9.935  13.755   9.944  0.0407  0.1962  0.0669
  569PYPI   PO4 8902   9.836  13.208   9.785 -0.1106  0.0693  0.1346
  569PYPI   GL1 8903   9.590  13.369   9.512 -0.1211 -0.1356  0.2079
  569PYPI   GL2 8904   9.841  13.627   9.467  0.0545 -0.0862  0.1855
  569PYPI   C1A 8905   9.642  13.342   9.069 -0.0908 -0.0956 -0.1676
  569PYPI   C2A 8906   9.699  13.111   8.685 -0.2380 -0.0616 -0.2174
  569PYPI   D3A 8907   9.719  12.998   8.238 -0.0097  0.0372 -0.4007
  569PYPI   C4A 8908   9.470  12.684   8.116  0.2178 -0.0766  0.1500
  569PYPI   C1B 8909   9.992  13.934   9.079  0.1799  0.1689  0.0150
  569PYPI   C2B 8910  10.360  14.039   8.758 -0.0999 -0.0359  0.1519
  569PYPI   C3B 8911  10.420  14.118   8.383  0.0470 -0.1660 -0.0940
  569PYPI   C4B 8912  10.727  13.923   8.030  0.1591  0.0684  0.2378
  570PYPI    C1 8913  17.614   7.950  10.047 -0.2462 -0.1942 -0.0277
  570PYPI    C2 8914  17.302   7.795  10.243 -0.0959 -0.1753  0.2305
  570PYPI    C3 8915  17.589   7.987  10.444 -0.2599  0.4164 -0.0770
  570PYPI   PO4 8916  17.715   7.798   9.797  0.0124 -0.1432  0.0810
  570PYPI   GL1 8917  17.514   8.038   9.471  0.0902  0.2485  0.0414
  570PYPI   GL2 8918  17.652   8.379   9.330  0.2897  0.2236  0.1315
  570PYPI   C1A 8919  17.648   7.776   9.063 -0.0400 -0.2562  0.1954
  570PYPI   C2A 8920  17.624   7.555   8.691 -0.0023 -0.1159  0.1412
  570PYPI   D3A 8921  17.686   7.552   8.264  0.0462 -0.2628 -0.2047
  570PYPI   C4A 8922  17.934   7.361   7.805 -0.0737 -0.2755  0.2314
  570PYPI   C1B 8923  17.930   8.381   8.851 -0.1214  0.0776 -0.2722
  570PYPI   C2B 8924  17.920   8.376   8.432  0.0140 -0.0734 -0.1779
  570PYPI   C3B 8925  17.986   8.164   8.092  0.0994  0.1621 -0.2697
  570PYPI   C4B 8926  17.905   7.837   7.837  0.0252  0.2644  0.0293
  571PYPI    C1 8927   3.771  14.094   9.821  0.1962  0.1798 -0.1849
  571PYPI    C2 8928   4.019  13.787   9.753 -0.1611 -0.1637  0.0211
  571PYPI    C3 8929   4.005  13.957  10.115 -0.0128  0.0562 -0.0740
  571PYPI   PO4 8930   3.739  14.176   9.620 -0.4790  0.2571 -0.0168
  571PYPI   GL1 8931   3.933  14.161   9.341  0.1728 -0.1360  0.1930
  571PYPI   GL2 8932   4.091  14.415   9.166 -0.0012 -0.1115  0.3597
  571PYPI   C1A 8933   3.803  14.023   8.837 -0.2776  0.1285  0.0698
  571PYPI   C2A 8934   3.862  13.826   8.414  0.1834 -0.3738 -0.0290
  571PYPI   D3A 8935   3.634  13.660   8.006 -0.2107 -0.0950 -0.0421
  571PYPI   C4A 8936   3.747  13.864   7.642  0.1298 -0.0084  0.1057
  571PYPI   C1B 8937   3.928  14.463   8.734  0.2360  0.3710  0.2545
  571PYPI   C2B 8938   3.943  14.346   8.406 -0.0827 -0.1846 -0.0900
  571PYPI   C3B 8939   4.060  14.249   8.019 -0.1130 -0.0382  0.3355
  571PYPI   C4B 8940   4.136  13.936   7.863  0.2220 -0.3223 -0.0041
  572PYPI    C1 8941  14.837   9.830  10.319  0.0528  0.0288 -0.0413
  572PYPI    C2 8942  15.232   9.827  10.381  0.0730  0.0397 -0.1672
  572PYPI    C3 8943  14.980   9.814  10.692  0.1722  0.0081 -0.0876
  572PYPI   PO4 8944  14.859  10.005  10.041 -0.3752 -0.2996 -0.0660
  572PYPI   GL1 8945  14.942   9.780   9.559  0.3909 -0.1487 -0.4395
  572PYPI   GL2 8946  14.664   9.980   9.559 -0.2689 -0.1721 -0.2354
  572PYPI   C1A 8947  15.047   9.620   9.154  0.2073  0.3361 -0.1739
  572PYPI   C2A 8948  15.286   9.791   8.708  0.1408 -0.0752  0.3971
  572PYPI   D3A 8949  15.665  10.010   8.627  0.1732 -0.2074  0.2824
  572PYPI   C4A 8950  16.082  10.076   8.852 -0.2541  0.1643  0.0310
  572PYPI   C1B 8951  14.764  10.114   9.162 -0.3304  0.0505 -0.0951
  572PYPI   C2B 8952  14.890  10.054   8.664 -0.2653 -0.0784 -0.0138
  572PYPI   C3B 8953  15.165  10.211   8.503 -0.0075  0.2302  0.0107
  572PYPI   C4B 8954  15.408  10.368   8.230  0.0025 -0.2466 -0.0506
  573PYPI    C1 8955  17.353   5.892   9.993  0.1695 -0.1181  0.1789
  573PYPI    C2 8956  17.215   6.147  10.269 -0.2720 -0.1627  0.0086
  573PYPI    C3 8957  17.180   5.753  10.326 -0.1233 -0.1770  0.0055
  573PYPI   PO4 8958  17.254   5.979   9.776  0.2581  0.0967  0.4187
  573PYPI   GL1 8959  17.276   6.150   9.387  0.0949  0.2147  0.4381
  573PYPI   GL2 8960  17.548   6.155   9.398 -0.4902 -0.0008  0.0773
  573PYPI   C1A 8961  17.353   6.011   8.968  0.0507 -0.0057  0.0608
  573PYPI   C2A 8962  17.363   5.798   8.621  0.0529 -0.1215 -0.0046
  573PYPI   D3A 8963  17.403   5.776   8.115 -0.2998  0.0239  0.0791
  573PYPI   C4A 8964  17.164   5.589   7.843 -0.0831  0.3704  0.1092
  573PYPI   C1B 8965  17.938   6.123   9.128 -0.1310 -0.1116 -0.2891
  573PYPI   C2B 8966  18.180   6.006   8.870 -0.0583 -0.0176  0.1372
  573PYPI   C3B 8967  18.183   6.004   8.448  0.0680  0.0552  0.3666
  573PYPI   C4B 8968  18.151   6.093   7.990 -0.3536 -0.1314  0.0288
  574ERGO   ROH 8969   6.891  11.025   9.223 -0.1728  0.0474 -0.0064
  574ERGO    R1 8970   6.736  11.039   8.987 -0.0943 -0.0348 -0.0630
  574ERGO    R2 8971   6.836  10.971   8.738 -0.0072 -0.1077 -0.0065
  574ERGO    R3 8972   6.620  10.806   8.733  0.0021 -0.1205 -0.0293
  574ERGO    R4 8973   6.724  10.799   8.460  0.1072 -0.2131  0.0109
  574ERGO    R5 8974   6.520  10.845   8.519  0.0809 -0.2010 -0.0826
  574ERGO    C1 8975   6.456  10.544   8.293  0.1825 -0.2864 -0.0004
  574ERGO    C2 8976   6.400  10.344   7.974  0.0304  0.3230  0.4381
  575ERGO   ROH 8977   6.119  17.586   8.928 -0.2163 -0.0550  0.0533
  575ERGO    R1 8978   6.051  17.460   8.683  0.0155 -0.1666  0.0423
  575ERGO    R2 8979   5.872  17.572   8.504 -0.1048 -0.4240 -0.0060
  575ERGO    R3 8980   6.077  17.540   8.329 -0.0127 -0.1431  0.0462
  575ERGO    R4 8981   5.836  17.520   8.164  0.0684 -0.2590 -0.0509
  575ERGO    R5 8982   5.998  17.376   8.174  0.1898 -0.1219 -0.0794
  575ERGO    C1 8983   6.008  17.461   7.802  0.2557  0.1008 -0.0280
  575ERGO    C2 8984   6.122  17.423   7.508  0.1121 -0.1444  0.1068
  576ERGO   ROH 8985   1.112   2.406   9.019 -0.0807 -0.1652  0.1410
  576ERGO    R1 8986   1.255   2.277   8.811 -0.0906 -0.1015  0.0952
  576ERGO    R2 8987   1.132   2.177   8.585 -0.0822  0.0996  0.0026
  576ERGO    R3 8988   1.314   2.333   8.456  0.0238  0.0951  0.1431
  576ERGO    R4 8989   1.221   2.144   8.253  0.0003  0.2470  0.0083
  576ERGO    R5 8990   1.428   2.182   8.310  0.0023  0.1265  0.0920
  576ERGO    C1 8991   1.444   2.270   7.939  0.1479  0.3284  0.1435
  576ERGO    C2 8992   1.388   2.481   7.675  0.1957  0.0060 -0.3474
  577ERGO   ROH 8993  17.566   5.176   9.157  0.1692 -0.0189 -0.1954
  577ERGO    R1 8994  17.483   5.098   8.898  0.0521 -0.0525 -0.1479
  577ERGO    R2 8995  17.359   5.272   8.722  0.1207 -0.0333 -0.1723
  577ERGO    R3 8996  17.559   5.194   8.555  0.0253 -0.2183 -0.2029
  577ERGO    R4 8997  17.357   5.312   8.379  0.0968 -0.0183 -0.1703
  577ERGO    R5 8998  17.446   5.114   8.361 -0.0885 -0.1085 -0.1883
  577ERGO    C1 8999  17.543   5.261   8.022 -0.0068 -0.1833 -0.1978
  577ERGO    C2 9000  17.519   5.192   7.696 -0.1770 -0.2037  0.2474
  578ERGO   ROH 9001  15.783  10.434   5.948 -0.2131  0.3018 -0.1932
  578ERGO    R1 9002  15.836  10.457   6.225 -0.2077 -0.0031 -0.1652
  578ERGO    R2 9003  15.902  10.696   6.345  0.1889 -0.1976  0.0323
  578ERGO    R3 9004  15.694  10.636   6.508  0.0574  0.0270 -0.0489
  578ERGO    R4 9005  15.890  10.766   6.683  0.2720 -0.4734  0.0939
  578ERGO    R5 9006  15.797  10.571   6.715 -0.0799 -0.3406 -0.0900
  578ERGO    C1 9007  15.687  10.750   7.034  0.1970 -0.4230  0.0535
  578ERGO    C2 9008  15.608  10.839   7.393 -0.1168 -0.2257  0.4512
  579ERGO   ROH 9009  14.382  14.068   9.567  0.1555  0.4219  0.0645
  579ERGO    R1 9010  14.317  13.943   9.322  0.1153  0.3995  0.0870
  579ERGO    R2 9011  14.189  14.076   9.116  0.2008  0.4175  0.0476
  579ERGO    R3 9012  14.402  13.990   8.971  0.1700  0.2782  0.0830
  579ERGO    R4 9013  14.199  14.058   8.771  0.2160  0.3342  0.0519
  579ERGO    R5 9014  14.305  13.868   8.789  0.1216  0.2838  0.1034
  579ERGO    C1 9015  14.404  13.966   8.434  0.1959  0.1548  0.0875
  579ERGO    C2 9016  14.483  13.926   8.031 -0.0403  0.0418 -0.1665
  580ERGO   ROH 9017   8.474   0.273   5.528 -0.3326 -0.0841  0.0483
  580ERGO    R1 9018   8.350   0.246   5.781 -0.3757  0.1043  0.0474
  580ERGO    R2 9019   8.494   0.234   6.016 -0.4037  0.0315  0.0529
  580ERGO    R3 9020   8.331   0.439   6.089 -0.2140  0.2073 -0.0039
  580ERGO    R4 9021   8.445   0.341   6.341 -0.2034  0.2437  0.0166
  580ERGO    R5 9022   8.234   0.367   6.295 -0.2053  0.3922  0.0723
  580ERGO    C1 9023   8.264   0.597   6.598  0.0911  0.5323 -0.0578
  580ERGO    C2 9024   8.244   0.663   6.969 -0.1586 -0.0157  0.1234
  581ERGO   ROH 9025  16.181   7.678   9.099  0.0559 -0.0991 -0.1527
  581ERGO    R1 9026  16.143   7.510   8.874 -0.0692 -0.0774 -0.1483
  581ERGO    R2 9027  15.893   7.427   8.791 -0.1159 -0.0662 -0.0197
  581ERGO    R3 9028  15.972   7.533   8.554 -0.2444 -0.0451 -0.0541
  581ERGO    R4 9029  15.816   7.295   8.481 -0.0840 -0.1756  0.0186
  581ERGO    R5 9030  16.019   7.342   8.417 -0.1308 -0.0341 -0.0318
  581ERGO    C1 9031  15.846   7.317   8.077 -0.1859 -0.2195  0.0086
  581ERGO    C2 9032  15.925   7.478   7.757  0.1904  0.3105  0.1633
  582ERGO   ROH 9033  10.713  10.643   9.380 -0.0767  0.2682 -0.0802
  582ERGO    R1 9034  10.768  10.785   9.142 -0.0440  0.0792 -0.1876
  582ERGO    R2 9035  11.011  10.909   9.095 -0.1250  0.2589 -0.1391
  582ERGO    R3 9036  11.007  10.760   8.867  0.1742  0.0209  0.0038
  582ERGO    R4 9037  11.138  11.010   8.790 -0.2021  0.1638 -0.2032
  582ERGO    R5 9038  10.965  10.918   8.693 -0.0350 -0.2113 -0.1660
  582ERGO    C1 9039  11.208  10.929   8.399  0.0339 -0.1149 -0.1064
  582ERGO    C2 9040  11.471  10.842   8.205  0.2454 -0.1223 -0.0749
  583ERGO   ROH 9041  17.401   7.149   5.823 -0.1225  0.1391  0.0397
  583ERGO    R1 9042  17.408   7.223   6.096 -0.0255  0.0392  0.0658
  583ERGO    R2 9043  17.247   7.105   6.286 -0.0379  0.0445  0.0612
  583ERGO    R3 9044  17.484   7.061   6.412 -0.0275 -0.1102 -0.0103
  583ERGO    R4 9045  17.282   7.037   6.624  0.0266  0.0410  0.0538
  583ERGO    R5 9046  17.458   7.166   6.626  0.1145 -0.0802 -0.0088
  583ERGO    C1 9047  17.525   6.957   6.938  0.0740 -0.1061 -0.0175
  583ERGO    C2 9048  17.529   6.955   7.200  0.0839 -0.0287  0.0289
  584ERGO   ROH 9049  17.114   1.377   9.321  0.1166 -0.0836  0.0049
  584ERGO    R1 9050  17.168   1.438   9.050 -0.0398  0.0082 -0.0067
  584ERGO    R2 9051  17.400   1.359   8.923 -0.0083  0.2458 -0.1033
  584ERGO    R3 9052  17.227   1.252   8.743  0.0258  0.1070 -0.0548
  584ERGO    R4 9053  17.421   1.398   8.580 -0.0790  0.1810 -0.1153
  584ERGO    R5 9054  17.205   1.420   8.574 -0.0931  0.0575 -0.0899
  584ERGO    C1 9055  17.270   1.321   8.212 -0.0880  0.0129 -0.0768
  584ERGO    C2 9056  17.455   1.276   8.060  0.3111  0.0514 -0.0263
  585ERGO   ROH 9057  18.063   7.970   9.433  0.5262 -0.2320  0.1642
  585ERGO    R1 9058  18.103   8.047   9.164  0.3875 -0.1418  0.1687
  585ERGO    R2 9059  18.304   7.941   9.007  0.2284 -0.1837 -0.0097
  585ERGO    R3 9060  18.099   7.884   8.839  0.0854 -0.0055  0.1006
  585ERGO    R4 9061  18.340   7.849   8.676 -0.0314 -0.1827 -0.0402
  585ERGO    R5 9062  18.168   7.974   8.628  0.0380 -0.0406  0.0692
  585ERGO    C1 9063  18.168   7.741   8.325 -0.3169 -0.0149  0.0454
  585ERGO    C2 9064  18.355   7.648   8.032 -0.1791  0.2152  0.0521
  586ERGO   ROH 9065  17.086   7.500   9.297  0.0465  0.0806 -0.0080
  586ERGO    R1 9066  17.062   7.678   9.079  0.1480  0.0881 -0.0134
  586ERGO    R2 9067  17.221   7.659   8.854  0.0443 -0.0983 -0.0739
  586ERGO    R3 9068  16.982   7.653   8.725 -0.0162  0.1396  0.0196
  586ERGO    R4 9069  17.183   7.652   8.510 -0.0860 -0.4359 -0.0563
  586ERGO    R5 9070  17.015   7.790   8.531  0.1435 -0.1350 -0.1539
  586ERGO    C1 9071  16.936   7.641   8.189 -0.2186 -0.4091  0.0417
  586ERGO    C2 9072  16.964   7.412   7.771  0.1353 -0.2075 -0.3342
  587ERGO   ROH 9073   0.050  15.433   6.193  0.1385 -0.0443  0.0412
  587ERGO    R1 9074   0.032  15.649   6.375  0.0210 -0.0876  0.0837
  587ERGO    R2 9075  -0.170  15.669   6.563  0.0010 -0.2283  0.0867
  587ERGO    R3 9076   0.038  15.691   6.736 -0.0111 -0.1594  0.0911
  587ERGO    R4 9077  -0.186  15.823   6.872  0.0420  0.0670 -0.0556
  587ERGO    R5 9078   0.011  15.907   6.835  0.0798 -0.0586 -0.1116
  587ERGO    C1 9079   0.000  15.933   7.215  0.0543  0.3034 -0.1342
  587ERGO    C2 9080  -0.085  16.148   7.566  0.1175  0.0841  0.0862
  588ERGO   ROH 9081   4.222   4.120   9.216 -0.0442  0.0918  0.0122
  588ERGO    R1 9082   4.301   4.019   8.964  0.0134  0.1078  0.0243
  588ERGO    R2 9083   4.121   3.967   8.761  0.0401 -0.0447  0.0413
  588ERGO    R3 9084   4.286   4.130   8.618 -0.0765  0.0445  0.0069
  588ERGO    R4 9085   4.137   3.975   8.416  0.1780 -0.2645  0.0403
  588ERGO    R5 9086   4.354   3.995   8.432  0.1560 -0.0111  0.1265
  588ERGO    C1 9087   4.301   4.133   8.080  0.1489 -0.3089  0.0073
  588ERGO    C2 9088   4.039   4.054   7.878  0.1018 -0.2872  0.0905
  589ERGO   ROH 9089   9.336   4.620   9.372 -0.0799 -0.2408 -0.0275
  589ERGO    R1 9090   9.322   4.519   9.108 -0.0688 -0.1266 -0.0723
  589ERGO    R2 9091   9.366   4.677   8.886 -0.1472 -0.0103 -0.0054
  589ERGO    R3 9092   9.549   4.486   8.825 -0.0838  0.0829 -0.1104
  589ERGO    R4 9093   9.414   4.544   8.571 -0.4645 -0.1941  0.0199
  589ERGO    R5 9094   9.439   4.347   8.663 -0.1985 -0.1132  0.1293
  589ERGO    C1 9095   9.614   4.286   8.330 -0.5898 -0.2138 -0.0639
  589ERGO    C2 9096   9.650   4.148   7.974  0.0726 -0.0668  0.1156
  590ERGO   ROH 9097  16.619   8.184   5.791 -0.2307 -0.1397 -0.0726
  590ERGO    R1 9098  16.575   8.333   6.028 -0.2884 -0.0156 -0.1609
  590ERGO    R2 9099  16.322   8.404   6.114 -0.3202 -0.1344 -0.1618
  590ERGO    R3 9100  16.402   8.282   6.344 -0.1932  0.0703 -0.0938
  590ERGO    R4 9101  16.177   8.453   6.424 -0.4221 -0.1703 -0.2030
  590ERGO    R5 9102  16.376   8.451   6.512 -0.4258  0.1214 -0.1751
  590ERGO    C1 9103  16.166   8.367   6.820 -0.3624  0.0010 -0.1632
  590ERGO    C2 9104  15.901   8.415   7.053 -0.1641 -0.0804 -0.1230
  591ERGO   ROH 9105   6.964   9.036   9.401 -0.2977  0.0913 -0.0432
  591ERGO    R1 9106   7.170   9.038   9.208 -0.1834  0.0411  0.0765
  591ERGO    R2 9107   7.174   8.864   8.993 -0.0300 -0.0485  0.1492
  591ERGO    R3 9108   7.196   9.093   8.849  0.0187 -0.1053  0.0672
  591ERGO    R4 9109   7.144   8.884   8.650 -0.0043 -0.1654  0.1399
  591ERGO    R5 9110   7.309   9.027   8.648  0.0188 -0.1956  0.0983
  591ERGO    C1 9111   7.146   9.111   8.314  0.0563 -0.2867  0.0574
  591ERGO    C2 9112   6.970   9.213   8.029 -0.0907 -0.1653  0.0596
  592ERGO   ROH 9113   8.104  13.513   8.962  0.0410  0.0665  0.1184
  592ERGO    R1 9114   8.162  13.532   8.685  0.0098 -0.0292  0.1058
  592ERGO    R2 9115   7.967  13.510   8.490 -0.0357  0.0664  0.1456
  592ERGO    R3 9116   8.066  13.749   8.410  0.1174 -0.0178  0.0753
  592ERGO    R4 9117   7.945  13.635   8.169  0.0825 -0.0376  0.0952
  592ERGO    R5 9118   8.149  13.708   8.189  0.1272 -0.1484  0.0993
  592ERGO    C1 9119   8.025  13.933   7.906  0.2950 -0.1771 -0.0001
  592ERGO    C2 9120   8.103  14.118   7.684 -0.1669  0.0443  0.3382
  593ERGO   ROH 9121   2.696   1.513   9.018  0.0214 -0.0603 -0.1386
  593ERGO    R1 9122   2.579   1.470   8.764  0.0964 -0.1515 -0.1581
  593ERGO    R2 9123   2.569   1.667   8.570  0.0576 -0.1879 -0.1922
  593ERGO    R3 9124   2.690   1.477   8.417  0.1713 -0.1626 -0.1347
  593ERGO    R4 9125   2.611   1.685   8.227  0.0962 -0.2394 -0.1905
  593ERGO    R5 9126   2.563   1.473   8.215  0.2004 -0.2668 -0.1522
  593ERGO    C1 9127   2.749   1.518   7.885  0.2254 -0.2456 -0.1354
  593ERGO    C2 9128   2.764   1.380   7.647  0.0565  0.1713  0.0571
  594ERGO   ROH 9129   5.877   0.207   8.598  0.2821 -0.1567  0.0282
  594ERGO    R1 9130   5.909   0.231   8.318  0.1000 -0.1864  0.0031
  594ERGO    R2 9131   6.112   0.379   8.204 -0.1442  0.0452 -0.1467
  594ERGO    R3 9132   6.165   0.147   8.073  0.0782  0.0739 -0.1114
  594ERGO    R4 9133   6.183   0.356   7.867 -0.3090  0.0444 -0.1818
  594ERGO    R5 9134   6.060   0.176   7.859 -0.0839 -0.1184 -0.0602
  594ERGO    C1 9135   6.274   0.125   7.547 -0.1962  0.0709 -0.1692
  594ERGO    C2 9136   6.489  -0.005   7.295 -0.0530 -0.0177 -0.0368
  595ERGO   ROH 9137  12.415   6.155   5.909 -0.1794 -0.3956 -0.1008
  595ERGO    R1 9138  12.489   6.073   6.170  0.0337 -0.0677 -0.0522
  595ERGO    R2 9139  12.505   6.249   6.382 -0.0453  0.1585 -0.2293
  595ERGO    R3 9140  12.336   6.072   6.500  0.1935  0.0913  0.0238
  595ERGO    R4 9141  12.313   6.315   6.661 -0.1866  0.3247 -0.3636
  595ERGO    R5 9142  12.358   6.115   6.734  0.0968  0.4987 -0.0349
  595ERGO    C1 9143  12.042   6.187   6.934 -0.0449  0.3585 -0.2042
  595ERGO    C2 9144  11.978   6.400   7.147 -0.1711  0.0410  0.0994
  596ERGO   ROH 9145   1.380   0.732   9.191  0.0340  0.2098  0.0792
  596ERGO    R1 9146   1.392   0.653   8.919 -0.0892  0.1009  0.1056
  596ERGO    R2 9147   1.200   0.726   8.735 -0.0061  0.2931  0.1004
  596ERGO    R3 9148   1.414   0.820   8.597  0.1099 -0.0371  0.0444
  596ERGO    R4 9149   1.195   0.816   8.401 -0.0354  0.5465  0.1667
  596ERGO    R5 9150   1.391   0.723   8.379 -0.2244  0.1588 -0.0181
  596ERGO    C1 9151   1.393   0.957   8.077  0.0565  0.3840  0.1526
  596ERGO    C2 9152   1.464   0.950   7.751 -0.1193  0.2675 -0.1742
  597ERGO   ROH 9153  12.052  12.204   5.842  0.0519  0.1044 -0.2076
  597ERGO    R1 9154  12.078  12.108   6.107  0.0906  0.1438 -0.1953
  597ERGO    R2 9155  12.090  12.277   6.326  0.1003  0.1798 -0.2138
  597ERGO    R3 9156  11.882  12.124   6.414  0.1214  0.1734 -0.1798
  597ERGO    R4 9157  12.024  12.202   6.657  0.2048  0.0863 -0.2151
  597ERGO    R5 9158  11.973  12.000   6.597  0.1681  0.1150 -0.2501
  597ERGO    C1 9159  11.792  12.016   6.932  0.2854  0.0259 -0.1839
  597ERGO    C2 9160  11.575  11.929   7.169 -0.0854 -0.0253  0.0583
  598ERGO   ROH 9161   3.131   0.915   5.744  0.0222 -0.0463  0.0110
  598ERGO    R1 9162   2.971   0.854   5.970  0.0065  0.0519  0.0284
  598ERGO    R2 9163   3.010   0.627   6.123 -0.2089 -0.0509 -0.0585
  598ERGO    R3 9164   3.025   0.806   6.327  0.0432 -0.1342 -0.0016
  598ERGO    R4 9165   2.929   0.559   6.452 -0.3802 -0.0236 -0.0957
  598ERGO    R5 9166   2.835   0.756   6.464 -0.0670  0.1270 -0.0535
  598ERGO    C1 9167   2.895   0.687   6.834 -0.2433 -0.0859 -0.0639
  598ERGO    C2 9168   2.907   0.619   7.121 -0.1214  0.0260 -0.0077
  599ERGO   ROH 9169   5.763  14.560   8.874  0.2305  0.2125  0.1310
  599ERGO    R1 9170   5.852  14.638   8.617  0.3237  0.1293  0.1362
  599ERGO    R2 9171   6.110  14.594   8.528  0.2605 -0.2393  0.1021
  599ERGO    R3 9172   5.984  14.472   8.321  0.0517 -0.0196  0.0973
  599ERGO    R4 9173   6.215  14.604   8.199  0.0063 -0.0307  0.0252
  599ERGO    R5 9174   6.007  14.625   8.139 -0.0255  0.1077  0.1998
  599ERGO    C1 9175   6.157  14.496   7.813 -0.3378  0.2972 -0.0240
  599ERGO    C2 9176   6.375  14.455   7.581  0.2277  0.0750  0.0233
  600ERGO   ROH 9177  10.387  10.878   5.717  0.0945 -0.0117 -0.0092
  600ERGO    R1 9178  10.514  10.869   5.970  0.1302  0.2080 -0.0184
  600ERGO    R2 9179  10.589  10.632   6.090 -0.0348  0.2992  0.2660
  600ERGO    R3 9180  10.833  10.752   6.101  0.0635  0.1256  0.0734
  600ERGO    R4 9181  10.859  10.514   6.270 -0.0182  0.1762  0.1634
  600ERGO    R5 9182  10.905  10.719   6.327  0.1677  0.1712  0.0490
  600ERGO    C1 9183  11.246  10.558   6.385  0.0837 -0.0583 -0.0773
  600ERGO    C2 9184  11.473  10.364   6.555 -0.0369  0.0518  0.2479
  601ERGO   ROH 9185   1.197   5.888   9.022 -0.3257 -0.1515 -0.1535
  601ERGO    R1 9186   1.332   5.950   8.780 -0.1346 -0.2078 -0.0615
  601ERGO    R2 9187   1.247   5.856   8.535 -0.2170  0.1183 -0.1519
  601ERGO    R3 9188   1.252   6.120   8.469  0.2692  0.1666  0.0256
  601ERGO    R4 9189   1.271   5.978   8.212 -0.2973  0.2643 -0.1043
  601ERGO    R5 9190   1.406   6.133   8.286  0.1202 -0.0550 -0.1320
  601ERGO    C1 9191   1.288   6.297   7.963  0.1124  0.3946  0.0899
  601ERGO    C2 9192   1.340   6.410   7.643 -0.0213  0.0051  0.0524
  602ERGO   ROH 9193  11.250  12.829   5.970 -0.1003 -0.3295 -0.0790
  602ERGO    R1 9194  11.200  12.959   6.216  0.2463  0.0620 -0.2047
  602ERGO    R2 9195  11.095  12.827   6.435 -0.2335  0.5769 -0.1111
  602ERGO    R3 9196  11.315  12.927   6.560  0.0716  0.0027 -0.1481
  602ERGO    R4 9197  11.166  12.789   6.771 -0.3128  0.4283 -0.1088
  602ERGO    R5 9198  11.235  12.996   6.775  0.2629  0.2628 -0.1481
  602ERGO    C1 9199  11.413  12.861   7.084 -0.0725 -0.1972 -0.1421
  602ERGO    C2 9200  11.294  12.735   7.400 -0.1800 -0.2441 -0.0416
  603ERGO   ROH 9201  10.360  15.297   5.747  0.2188 -0.0220 -0.1020
  603ERGO    R1 9202  10.273  15.131   5.960 -0.0187  0.1726 -0.0423
  603ERGO    R2 9203  10.410  14.903   6.037 -0.3820 -0.0463 -0.0167
  603ERGO    R3 9204  10.404  15.022   6.281 -0.1299  0.0274 -0.0445
  603ERGO    R4 9205  10.496  14.749   6.334 -0.1807  0.0088 -0.0450
  603ERGO    R5 9206  10.328  14.850   6.429 -0.0644  0.0962  0.0710
  603ERGO    C1 9207  10.540  14.770   6.736  0.1731  0.1103 -0.0876
  603ERGO    C2 9208  10.483  14.590   6.970 -0.1262  0.1906  0.1848
  604ERGO   ROH 9209   6.584   8.241   9.437  0.1059 -0.0366 -0.1086
  604ERGO    R1 9210   6.367   8.182   9.265  0.0874  0.0781 -0.1249
  604ERGO    R2 9211   6.378   8.221   8.992  0.2102 -0.1357 -0.1525
  604ERGO    R3 9212   6.305   7.960   8.983 -0.0798 -0.0645  0.0215
  604ERGO    R4 9213   6.251   8.061   8.713  0.3207 -0.2518 -0.1371
  604ERGO    R5 9214   6.110   7.958   8.843  0.0610  0.0303 -0.1811
  604ERGO    C1 9215   6.108   7.723   8.543  0.1128 -0.2527  0.0353
  604ERGO    C2 9216   6.086   7.757   8.152  0.1176 -0.2079  0.1281
  605ERGO   ROH 9217  14.583  19.016   6.372  0.2272 -0.3508 -0.0941
  605ERGO    R1 9218  14.601  19.058   6.652  0.3819 -0.1986 -0.1258
  605ERGO    R2 9219  14.468  18.900   6.835  0.2399  0.0841  0.0199
  605ERGO    R3 9220  14.717  18.870   6.941  0.2439 -0.1714 -0.0509
  605ERGO    R4 9221  14.542  18.718   7.120  0.1074  0.1362  0.0887
  605ERGO    R5 9222  14.682  18.875   7.178  0.3261 -0.0040 -0.0388
  605ERGO    C1 9223  14.818  18.585   7.385  0.0338 -0.0733  0.0623
  605ERGO    C2 9224  15.004  18.382   7.694 -0.0367  0.1975 -0.0237
  606ERGO   ROH 9225   3.033  10.141   9.803  0.0692  0.0911 -0.1256
  606ERGO    R1 9226   3.046  10.012   9.550  0.0596  0.0093 -0.0849
  606ERGO    R2 9227   2.820   9.931   9.413  0.0505  0.0276 -0.0819
  606ERGO    R3 9228   2.927  10.080   9.213  0.1111 -0.0626 -0.1177
  606ERGO    R4 9229   2.767   9.878   9.076 -0.0382  0.0221 -0.0674
  606ERGO    R5 9230   2.977   9.923   9.041 -0.0160 -0.1135 -0.1079
  606ERGO    C1 9231   2.837   9.987   8.692 -0.0330 -0.0660 -0.0924
  606ERGO    C2 9232   2.768  10.072   8.356 -0.0847  0.1440  0.4288
  607ERGO   ROH 9233  14.265   8.968   9.272 -0.1813 -0.1634 -0.0237
  607ERGO    R1 9234  14.287   9.135   9.045 -0.1807 -0.1015  0.0214
  607ERGO    R2 9235  14.477   9.093   8.848 -0.1062  0.0195  0.0671
  607ERGO    R3 9236  14.260   9.094   8.684 -0.0589 -0.0288  0.0031
  607ERGO    R4 9237  14.476   9.205   8.520 -0.0932  0.2783  0.1531
  607ERGO    R5 9238  14.282   9.296   8.557 -0.1812  0.0929  0.1688
  607ERGO    C1 9239  14.271   9.271   8.177 -0.0413  0.3836  0.1431
  607ERGO    C2 9240  14.173   9.167   7.826 -0.3108 -0.0331  0.0589
  608ERGO   ROH 9241  13.612  15.058   6.139  0.1466 -0.0297  0.0288
  608ERGO    R1 9242  13.452  15.070   6.372  0.2343 -0.1253  0.0952
  608ERGO    R2 9243  13.558  15.115   6.624  0.2810  0.2826  0.0108
  608ERGO    R3 9244  13.376  15.317   6.629 -0.0905 -0.0373 -0.0809
  608ERGO    R4 9245  13.355  15.191   6.893  0.4238  0.2753  0.1220
  608ERGO    R5 9246  13.192  15.228   6.753  0.1987 -0.2143  0.2368
  608ERGO    C1 9247  13.066  15.425   7.054  0.1582 -0.0293  0.1006
  608ERGO    C2 9248  12.984  15.407   7.329  0.1711 -0.1616  0.3321
  609ERGO   ROH 9249   7.254  11.863   5.947 -0.0719 -0.2146  0.0621
  609ERGO    R1 9250   7.343  11.946   6.202 -0.0392 -0.0720  0.0060
  609ERGO    R2 9251   7.277  11.811   6.434 -0.0885  0.1081  0.1038
  609ERGO    R3 9252   7.546  11.808   6.470 -0.0893  0.0328  0.0978
  609ERGO    R4 9253   7.434  11.804   6.742 -0.0762  0.2711  0.1017
  609ERGO    R5 9254   7.582  11.944   6.664 -0.0280  0.1573 -0.0039
  609ERGO    C1 9255   7.779  11.796   6.955 -0.0700  0.2954  0.0948
  609ERGO    C2 9256   8.069  11.603   7.195  0.1235  0.4075  0.1324
  610ERGO   ROH 9257   9.601   9.031   9.475  0.0845  0.0176  0.0749
  610ERGO    R1 9258   9.515   8.882   9.250  0.0271  0.0374  0.0835
  610ERGO    R2 9259   9.278   8.935   9.118  0.0242  0.0900  0.1095
  610ERGO    R3 9260   9.440   8.951   8.901  0.0040  0.0553  0.0919
  610ERGO    R4 9261   9.193   8.829   8.800  0.0047  0.0088  0.1419
  610ERGO    R5 9262   9.395   8.751   8.778  0.0108  0.0222  0.1424
  610ERGO    C1 9263   9.297   8.782   8.411 -0.0256 -0.0712  0.1443
  610ERGO    C2 9264   9.199   8.537   8.109 -0.1011  0.5669 -0.0516
  611ERGO   ROH 9265  10.708  16.871   9.167 -0.0775 -0.0104 -0.0893
  611ERGO    R1 9266  10.786  16.788   8.908 -0.0145  0.0712 -0.0976
  611ERGO    R2 9267  10.631  16.619   8.753  0.0875  0.0088 -0.1340
  611ERGO    R3 9268  10.654  16.818   8.570 -0.0097  0.0506 -0.1011
  611ERGO    R4 9269  10.607  16.575   8.412 -0.1572  0.0969 -0.1296
  611ERGO    R5 9270  10.771  16.716   8.387 -0.1519  0.0772 -0.2087
  611ERGO    C1 9271  10.615  16.737   8.040 -0.3908  0.1873 -0.0961
  611ERGO    C2 9272  10.651  16.740   7.792 -0.2053  0.0595  0.1898
  612ERGO   ROH 9273  15.586  14.169   6.195 -0.0345 -0.1868 -0.0049
  612ERGO    R1 9274  15.841  14.231   6.303 -0.1374  0.1273  0.0717
  612ERGO    R2 9275  15.873  14.361   6.544 -0.3723 -0.0741  0.2219
  612ERGO    R3 9276  16.028  14.147   6.603 -0.0148  0.1115 -0.0100
  612ERGO    R4 9277  16.068  14.331   6.828 -0.4134 -0.1109  0.2456
  612ERGO    R5 9278  16.223  14.241   6.705 -0.2104  0.3192  0.1766
  612ERGO    C1 9279  16.327  14.111   7.048 -0.1017  0.0420  0.0416
  612ERGO    C2 9280  16.264  13.930   7.384 -0.3289 -0.5190  0.0910
  613ERGO   ROH 9281   4.621   8.813   9.533 -0.1461 -0.1764  0.0683
  613ERGO    R1 9282   4.786   8.919   9.328  0.0264 -0.2089  0.1881
  613ERGO    R2 9283   4.891   8.762   9.126 -0.1627 -0.1701  0.0584
  613ERGO    R3 9284   4.771   8.946   8.965  0.1077  0.1477  0.2067
  613ERGO    R4 9285   4.911   8.766   8.781 -0.1775  0.0661  0.0586
  613ERGO    R5 9286   4.929   8.983   8.789  0.1599  0.0408  0.2278
  613ERGO    C1 9287   4.810   8.940   8.429  0.0678  0.5020  0.1978
  613ERGO    C2 9288   4.923   8.838   8.082 -0.1970 -0.0277 -0.0841
  614ERGO   ROH 9289   0.316   2.764   8.775 -0.1731 -0.0776  0.1411
  614ERGO    R1 9290   0.232   2.788   8.505 -0.0923 -0.0088  0.1220
  614ERGO    R2 9291   0.203   2.569   8.338 -0.0875  0.0297  0.0715
  614ERGO    R3 9292  -0.047   2.671   8.303 -0.0583  0.0848  0.0196
  614ERGO    R4 9293  -0.003   2.501   8.069 -0.1301 -0.0976  0.1355
  614ERGO    R5 9294  -0.063   2.710   8.068 -0.0637 -0.0775 -0.0085
  614ERGO    C1 9295  -0.356   2.556   7.879 -0.1275 -0.1200  0.1241
  614ERGO    C2 9296  -0.464   2.350   7.602 -0.2824  0.2783  0.1206
  615ERGO   ROH 9297  17.770  14.991   9.430  0.0862 -0.1249  0.0790
  615ERGO    R1 9298  17.743  15.119   9.179 -0.0228 -0.0430  0.1331
  615ERGO    R2 9299  17.710  14.979   8.943  0.0984  0.0290  0.0821
  615ERGO    R3 9300  17.491  15.138   8.917 -0.0384 -0.1451  0.1368
  615ERGO    R4 9301  17.540  15.034   8.647  0.4516  0.4683 -0.0529
  615ERGO    R5 9302  17.519  15.243   8.704  0.1559  0.3464  0.3809
  615ERGO    C1 9303  17.234  15.215   8.451  0.5288  0.5608 -0.0802
  615ERGO    C2 9304  16.978  15.317   8.299 -0.2258  0.0445 -0.0938
  616ERGO   ROH 9305   7.672   0.225   8.765  0.3736  0.4069  0.0923
  616ERGO    R1 9306   7.640   0.346   8.511  0.1604  0.2725  0.0515
  616ERGO    R2 9307   7.829   0.515   8.403 -0.0123  0.3672 -0.1189
  616ERGO    R3 9308   7.816   0.343   8.193  0.0096  0.2596 -0.0314
  616ERGO    R4 9309   7.913   0.595   8.077  0.1930  0.1416 -0.1227
  616ERGO    R5 9310   7.741   0.478   8.010  0.1722  0.1931 -0.1451
  616ERGO    C1 9311   7.950   0.479   7.690  0.3332 -0.0908 -0.0430
  616ERGO    C2 9312   8.244   0.600   7.476 -0.0472 -0.1042  0.1281
  617ERGO   ROH 9313  12.363   7.215   5.857  0.0448 -0.0943 -0.0137
  617ERGO    R1 9314  12.564   7.059   5.982  0.0544 -0.0393  0.0394
  617ERGO    R2 9315  12.829   7.138   5.991  0.0525 -0.0304 -0.0079
  617ERGO    R3 9316  12.797   7.100   6.259  0.0692  0.0786  0.0102
  617ERGO    R4 9317  13.066   6.997   6.200  0.0981  0.1297  0.0502
  617ERGO    R5 9318  12.905   6.891   6.303  0.1307  0.1280  0.1008
  617ERGO    C1 9319  13.174   6.880   6.573  0.1402  0.3253  0.1010
  617ERGO    C2 9320  13.323   6.781   6.897 -0.1520 -0.0152 -0.2549
  618ERGO   ROH 9321   3.635   3.769   5.580  0.1575 -0.0880 -0.0092
  618ERGO    R1 9322   3.473   3.848   5.798  0.0407 -0.0701 -0.1006
  618ERGO    R2 9323   3.374   3.669   5.984  0.0785 -0.0370 -0.0411
  618ERGO    R3 9324   3.494   3.837   6.161 -0.0682  0.1187 -0.0884
  618ERGO    R4 9325   3.377   3.625   6.326  0.1532  0.0520 -0.0305
  618ERGO    R5 9326   3.346   3.839   6.350 -0.0502  0.0237 -0.0780
  618ERGO    C1 9327   3.491   3.756   6.693  0.0589  0.2501 -0.0687
  618ERGO    C2 9328   3.659   3.725   7.049 -0.1200  0.1448 -0.0756
  619ERGO   ROH 9329   1.384   0.083   6.008  0.1160 -0.0580 -0.2211
  619ERGO    R1 9330   1.511   0.095   6.261  0.1277  0.0029 -0.2291
  619ERGO    R2 9331   1.371   0.126   6.497  0.1425  0.1298 -0.2333
  619ERGO    R3 9332   1.506  -0.099   6.569  0.0841  0.1193 -0.1571
  619ERGO    R4 9333   1.465   0.047   6.820 -0.0569  0.1097 -0.1794
  619ERGO    R5 9334   1.654  -0.026   6.742 -0.0162  0.1003 -0.0649
  619ERGO    C1 9335   1.646  -0.211   7.075 -0.2279  0.0880 -0.0764
  619ERGO    C2 9336   1.492  -0.483   7.435  0.2871  0.1287  0.1586
  620ERGO   ROH 9337  16.467   6.099   9.026 -0.1093 -0.0770 -0.0338
  620ERGO    R1 9338  16.473   5.939   8.793 -0.1353 -0.0224 -0.0726
  620ERGO    R2 9339  16.257   5.918   8.621 -0.1131  0.1145 -0.1203
  620ERGO    R3 9340  16.440   5.993   8.434 -0.0435  0.0817 -0.0656
  620ERGO    R4 9341  16.192   5.950   8.283  0.0155  0.0491 -0.1518
  620ERGO    R5 9342  16.387   5.860   8.242  0.0323  0.0450 -0.0607
  620ERGO    C1 9343  16.326   6.039   7.911  0.1560 -0.0198 -0.1187
  620ERGO    C2 9344  16.338   5.970   7.581  0.3842  0.1186  0.1445
  621ERGO   ROH 9345  15.254  13.761   6.030 -0.0338  0.0786  0.0250
  621ERGO    R1 9346  15.105  13.687   6.259 -0.1516  0.0394 -0.0626
  621ERGO    R2 9347  14.939  13.466   6.264 -0.1067  0.0006 -0.1653
  621ERGO    R3 9348  15.088  13.400   6.482 -0.2160  0.0295 -0.0811
  621ERGO    R4 9349  14.836  13.253   6.516 -0.2393  0.0541 -0.1734
  621ERGO    R5 9350  14.929  13.387   6.661 -0.3005  0.0725 -0.1542
  621ERGO    C1 9351  14.916  13.066   6.867 -0.4191  0.1124 -0.0991
  621ERGO    C2 9352  14.784  13.022   7.140  0.4024 -0.1353  0.1953
  622ERGO   ROH 9353  16.358  19.001   9.463  0.1655  0.0205 -0.0620
  622ERGO    R1 9354  16.279  19.101   9.211  0.0082  0.0003 -0.0220
  622ERGO    R2 9355  16.460  19.179   9.018 -0.1094  0.2801 -0.0263
  622ERGO    R3 9356  16.321  19.004   8.863  0.0804  0.1534 -0.0566
  622ERGO    R4 9357  16.399  19.220   8.680 -0.2383  0.3230  0.0020
  622ERGO    R5 9358  16.198  19.144   8.712 -0.1352  0.0496  0.0209
  622ERGO    C1 9359  16.233  19.080   8.338 -0.1351  0.2292 -0.0101
  622ERGO    C2 9360  16.191  19.048   7.983  0.0421 -0.2640  0.3247
  623ERGO   ROH 9361  13.654   4.840   9.187 -0.0263  0.0011  0.0704
  623ERGO    R1 9362  13.708   4.712   8.940  0.1412  0.0447  0.0827
  623ERGO    R2 9363  13.509   4.644   8.761  0.2292 -0.2017  0.0708
  623ERGO    R3 9364  13.661   4.788   8.587  0.0769 -0.0330  0.0750
  623ERGO    R4 9365  13.470   4.646   8.417  0.1109 -0.0839  0.0846
  623ERGO    R5 9366  13.687   4.645   8.397  0.1034  0.0630  0.0077
  623ERGO    C1 9367  13.590   4.782   8.055 -0.1011  0.1431  0.0963
  623ERGO    C2 9368  13.672   4.789   7.699 -0.1021 -0.1005  0.0937
  624ERGO   ROH 9369  15.221   1.040   9.463 -0.1031  0.1051 -0.0228
  624ERGO    R1 9370  15.233   0.940   9.198 -0.1158 -0.0030  0.0165
  624ERGO    R2 9371  15.040   0.772   9.093 -0.2048  0.0800  0.0425
  624ERGO    R3 9372  15.029   0.961   8.898 -0.0455  0.0161 -0.0301
  624ERGO    R4 9373  14.978   0.708   8.759 -0.1421 -0.0031  0.0471
  624ERGO    R5 9374  15.130   0.856   8.708 -0.0478 -0.1048  0.0367
  624ERGO    C1 9375  14.932   0.848   8.382  0.0439 -0.1114 -0.0183
  624ERGO    C2 9376  15.014   0.787   8.140 -0.1289  0.2617  0.0948
  625ERGO   ROH 9377   0.520   4.831   8.858  0.0234  0.3117  0.0646
  625ERGO    R1 9378   0.475   4.864   8.581 -0.0040  0.0300  0.0326
  625ERGO    R2 9379   0.573   5.080   8.438 -0.3086  0.0690 -0.1245
  625ERGO    R3 9380   0.679   4.886   8.280 -0.0081  0.0974  0.0340
  625ERGO    R4 9381   0.649   5.119   8.103 -0.2173 -0.0357 -0.1164
  625ERGO    R5 9382   0.571   4.918   8.068  0.0374 -0.1551 -0.0315
  625ERGO    C1 9383   0.792   4.959   7.760  0.1181 -0.0701  0.0371
  625ERGO    C2 9384   0.767   4.970   7.453 -0.0100  0.3304 -0.0487
  626ERGO   ROH 9385  12.022   9.484   9.521  0.1739  0.1664 -0.0052
  626ERGO    R1 9386  11.950   9.572   9.261  0.2656  0.4480  0.0636
  626ERGO    R2 9387  12.128   9.704   9.095  0.6198 -0.1667 -0.0644
  626ERGO    R3 9388  12.060   9.508   8.920 -0.2424  0.0681 -0.0430
  626ERGO    R4 9389  12.149   9.730   8.751  0.8070 -0.2867 -0.0635
  626ERGO    R5 9390  11.960   9.623   8.736  0.2852  0.5302 -0.0793
  626ERGO    C1 9391  12.098   9.559   8.387  0.1067 -0.1363 -0.0428
  626ERGO    C2 9392  12.202   9.661   8.046 -0.0826 -0.2688 -0.3581
  627ERGO   ROH 9393  13.020   0.077   9.602 -0.1747 -0.1475 -0.3217
  627ERGO    R1 9394  12.897   0.253   9.418 -0.0860  0.1452 -0.1087
  627ERGO    R2 9395  12.882   0.527   9.460  0.3268  0.1457  0.0828
  627ERGO    R3 9396  12.999   0.537   9.215  0.1427  0.1370 -0.0078
  627ERGO    R4 9397  12.798   0.749   9.209  0.3346  0.3299  0.2411
  627ERGO    R5 9398  12.820   0.589   9.065  0.0689  0.3677  0.1539
  627ERGO    C1 9399  12.859   0.889   8.834  0.1664  0.4290  0.2484
  627ERGO    C2 9400  12.820   0.865   8.581  0.4478  0.1789 -0.2222
  628ERGO   ROH 9401  11.143   7.322   9.372  0.1795  0.0645  0.0455
  628ERGO    R1 9402  11.191   7.366   9.097  0.0667  0.0146  0.0188
  628ERGO    R2 9403  11.185   7.162   8.911 -0.0748 -0.0040  0.0531
  628ERGO    R3 9404  11.006   7.324   8.786 -0.0837  0.0276  0.1035
  628ERGO    R4 9405  11.054   7.107   8.595  0.0350  0.1453 -0.0208
  628ERGO    R5 9406  11.072   7.320   8.556 -0.0092  0.1830  0.1153
  628ERGO    C1 9407  10.810   7.227   8.295  0.0907  0.2617 -0.0167
  628ERGO    C2 9408  10.646   7.188   7.982 -0.2699 -0.1288  0.0415
  629ERGO   ROH 9409   9.535   4.741   5.696 -0.2361 -0.0111  0.0232
  629ERGO    R1 9410   9.531   4.888   5.938 -0.1441  0.1318 -0.0625
  629ERGO    R2 9411   9.564   4.769   6.185 -0.3397  0.2388  0.0075
  629ERGO    R3 9412   9.762   4.952   6.212 -0.1490  0.0448 -0.0339
  629ERGO    R4 9413   9.695   4.874   6.487 -0.4339  0.3563  0.0094
  629ERGO    R5 9414   9.701   5.077   6.407 -0.1546  0.2909 -0.1793
  629ERGO    C1 9415   9.958   5.108   6.688 -0.3098  0.2427 -0.0284
  629ERGO    C2 9416  10.163   5.033   7.049  0.0546 -0.1461  0.1064
  630ERGO   ROH 9417   6.901  15.704   5.955 -0.1166  0.1580  0.1220
  630ERGO    R1 9418   6.896  15.604   6.219 -0.2070  0.2259  0.1469
  630ERGO    R2 9419   6.662  15.579   6.364 -0.2840  0.0818  0.0050
  630ERGO    R3 9420   6.745  15.322   6.392 -0.0972  0.1531  0.1238
  630ERGO    R4 9421   6.564  15.366   6.618 -0.3136  0.0535 -0.0307
  630ERGO    R5 9422   6.768  15.292   6.628 -0.2613  0.2206  0.1484
  630ERGO    C1 9423   6.584  15.000   6.792 -0.1555  0.1040  0.0602
  630ERGO    C2 9424   6.452  14.836   7.018  0.3431  0.1391 -0.5710
  631ERGO   ROH 9425   0.462  18.521   9.212 -0.4503 -0.2271  0.0146
  631ERGO    R1 9426   0.580  18.469   8.960 -0.2076 -0.0722  0.0919
  631ERGO    R2 9427   0.628  18.212   8.869 -0.0735 -0.0173  0.0005
  631ERGO    R3 9428   0.484  18.296   8.655  0.1048  0.0666 -0.0886
  631ERGO    R4 9429   0.656  18.084   8.550  0.0313 -0.0435  0.0200
  631ERGO    R5 9430   0.638  18.286   8.472  0.2047 -0.0358  0.0014
  631ERGO    C1 9431   0.537  18.087   8.162  0.2597  0.0200 -0.0525
  631ERGO    C2 9432   0.485  18.180   7.810 -0.2130 -0.1095 -0.2394
  632ERGO   ROH 9433  17.898   0.502   9.258 -0.0980  0.2243  0.0243
  632ERGO    R1 9434  17.889   0.449   8.980  0.0314  0.2218  0.0197
  632ERGO    R2 9435  17.900   0.650   8.790  0.1015  0.2229  0.0216
  632ERGO    R3 9436  18.107   0.503   8.694  0.1573  0.2377  0.1186
  632ERGO    R4 9437  18.012   0.657   8.463  0.0943  0.0404  0.0147
  632ERGO    R5 9438  18.038   0.441   8.473  0.1793  0.0582  0.1624
  632ERGO    C1 9439  18.271   0.523   8.182  0.1425 -0.0521  0.1017
  632ERGO    C2 9440  18.289   0.605   7.881 -0.0575  0.2008  0.5845
  633ERGO   ROH 9441   6.820   3.554   8.969 -0.1003 -0.2697 -0.0864
  633ERGO    R1 9442   6.798   3.544   8.687 -0.2610 -0.2118 -0.0786
  633ERGO    R2 9443   6.594   3.670   8.549 -0.1361  0.1423  0.0300
  633ERGO    R3 9444   6.800   3.784   8.413 -0.0060 -0.1844 -0.0513
  633ERGO    R4 9445   6.560   3.865   8.266  0.0727  0.2452  0.0754
  633ERGO    R5 9446   6.736   3.766   8.183 -0.1363 -0.0387 -0.0196
  633ERGO    C1 9447   6.734   4.085   7.973  0.3165 -0.0016  0.0256
  633ERGO    C2 9448   6.551   4.351   7.845 -0.1008 -0.1867 -0.0661
  634ERGO   ROH 9449  12.970  11.421   8.717  0.2175 -0.1275 -0.1191
  634ERGO    R1 9450  12.991  11.275   8.476  0.1476 -0.0885 -0.1493
  634ERGO    R2 9451  12.827  11.322   8.258  0.1855  0.0504 -0.1488
  634ERGO    R3 9452  13.064  11.349   8.127  0.2084 -0.0551 -0.1295
  634ERGO    R4 9453  12.859  11.391   7.921  0.2427  0.2044 -0.1124
  634ERGO    R5 9454  13.024  11.249   7.913  0.1384  0.0861 -0.1833
  634ERGO    C1 9455  13.100  11.456   7.602  0.2974  0.1950 -0.0732
  634ERGO    C2 9456  13.010  11.746   7.413  0.0811  0.0982 -0.1707
  635ERGO   ROH 9457  17.260   0.061   5.915  0.1455  0.3981  0.0053
  635ERGO    R1 9458  17.347   0.178   6.157  0.2029  0.2158  0.0743
  635ERGO    R2 9459  17.351   0.039   6.396  0.1051  0.0838  0.0011
  635ERGO    R3 9460  17.612   0.118   6.400  0.1540 -0.0755  0.0595
  635ERGO    R4 9461  17.560   0.017   6.671 -0.0157  0.1085  0.0963
  635ERGO    R5 9462  17.642   0.213   6.618  0.1262  0.0289  0.0180
  635ERGO    C1 9463  17.926   0.078   6.834 -0.0403 -0.0265  0.2066
  635ERGO    C2 9464  18.214   0.128   7.097 -0.0143 -0.2072  0.0906
  636ERGO   ROH 9465   5.716  10.172   6.447  0.0122  0.1690  0.0347
  636ERGO    R1 9466   5.737  10.006   6.676 -0.0743  0.0997 -0.0063
  636ERGO    R2 9467   5.899  10.069   6.891  0.0872 -0.1191 -0.0578
  636ERGO    R3 9468   5.669  10.038   7.032  0.1070  0.1079  0.0279
  636ERGO    R4 9469   5.863  10.140   7.227  0.2409  0.0387 -0.0732
  636ERGO    R5 9470   5.742   9.960   7.247  0.1130  0.1380  0.0349
  636ERGO    C1 9471   5.626  10.151   7.556  0.3492  0.3435 -0.0018
  636ERGO    C2 9472   5.596  10.503   7.757 -0.1274  0.2060  0.2384
  637ERGO   ROH 9473  14.938   5.795   5.950  0.1373 -0.0641  0.1072
  637ERGO    R1 9474  15.049   5.763   6.208  0.1348  0.0162  0.1195
  637ERGO    R2 9475  15.246   5.929   6.308  0.1828  0.0095  0.0468
  637ERGO    R3 9476  15.071   5.960   6.513  0.1918  0.1414  0.0343
  637ERGO    R4 9477  15.336   5.955   6.640  0.1712 -0.1535  0.0629
  637ERGO    R5 9478  15.165   5.829   6.691  0.0391  0.0086  0.0165
  637ERGO    C1 9479  15.224   6.000   7.027  0.1729 -0.1246  0.0605
  637ERGO    C2 9480  15.168   5.994   7.315  0.2078 -0.2224  0.0629
  638ERGO   ROH 9481   7.740   9.214   5.821 -0.0739 -0.1868 -0.0729
  638ERGO    R1 9482   7.911   9.089   6.010  0.0374 -0.1468 -0.1459
  638ERGO    R2 9483   8.186   9.085   5.982  0.0520  0.2032 -0.0996
  638ERGO    R3 9484   8.180   9.193   6.231 -0.1263 -0.0119 -0.0065
  638ERGO    R4 9485   8.386   8.985   6.246  0.1482  0.2380 -0.1589
  638ERGO    R5 9486   8.214   9.008   6.378  0.0961 -0.0977 -0.1595
  638ERGO    C1 9487   8.497   9.030   6.633  0.0366  0.0564 -0.1059
  638ERGO    C2 9488   8.498   8.781   7.004  0.0176  0.1229 -0.1071
  639ERGO   ROH 9489   3.960  11.579   9.523  0.0245 -0.1827 -0.0858
  639ERGO    R1 9490   4.024  11.676   9.265 -0.0249 -0.0968 -0.0659
  639ERGO    R2 9491   4.216  11.557   9.105 -0.0187 -0.0113 -0.1198
  639ERGO    R3 9492   4.013  11.548   8.924 -0.0359 -0.0029 -0.1015
  639ERGO    R4 9493   4.251  11.468   8.773 -0.0464  0.0062 -0.1278
  639ERGO    R5 9494   4.111  11.627   8.721 -0.0534  0.0095 -0.1067
  639ERGO    C1 9495   4.081  11.408   8.410 -0.0787  0.0244 -0.1154
  639ERGO    C2 9496   4.197  11.331   8.129 -0.0352  0.0952 -0.2266
  640ERGO   ROH 9497  10.278  17.552   6.061  0.0031 -0.0071 -0.0579
  640ERGO    R1 9498  10.410  17.627   6.300 -0.0488 -0.0306 -0.0216
  640ERGO    R2 9499  10.537  17.871   6.329 -0.0065 -0.0564  0.0102
  640ERGO    R3 9500  10.377  17.891   6.548 -0.0645 -0.0198 -0.0353
  640ERGO    R4 9501  10.629  18.014   6.630 -0.0522 -0.0969  0.0438
  640ERGO    R5 9502  10.524  17.854   6.733 -0.1289 -0.0709  0.0062
  640ERGO    C1 9503  10.533  18.116   7.010 -0.1333 -0.0860  0.0206
  640ERGO    C2 9504  10.360  18.173   7.315 -0.0331 -0.1540 -0.0052
  641ERGO   ROH 9505   1.264   8.596   9.689 -0.3349  0.0362  0.0887
  641ERGO    R1 9506   1.166   8.628   9.425 -0.2146 -0.0629  0.0297
  641ERGO    R2 9507   1.163   8.872   9.296 -0.2873 -0.0811 -0.0149
  641ERGO    R3 9508   1.300   8.736   9.104 -0.1044 -0.0371  0.0851
  641ERGO    R4 9509   1.183   8.967   8.964 -0.3390 -0.2477 -0.0656
  641ERGO    R5 9510   1.163   8.757   8.908 -0.0941 -0.3015  0.0499
  641ERGO    C1 9511   1.323   8.896   8.591 -0.1974 -0.3033 -0.0012
  641ERGO    C2 9512   1.214   8.953   8.287 -0.3521 -0.0356  0.0584
  642ERGO   ROH 9513  16.887  15.390   9.639  0.1332  0.1247  0.1336
  642ERGO    R1 9514  16.723  15.488   9.430  0.1304  0.1388  0.1431
  642ERGO    R2 9515  16.655  15.755   9.407  0.2239  0.1565  0.0988
  642ERGO    R3 9516  16.757  15.726   9.157  0.1649  0.0674  0.0840
  642ERGO    R4 9517  16.544  15.925   9.127  0.1448  0.0498  0.0641
  642ERGO    R5 9518  16.567  15.741   9.013  0.1253  0.0051  0.1255
  642ERGO    C1 9519  16.576  15.996   8.729  0.0435 -0.0961  0.0299
  642ERGO    C2 9520  16.500  16.137   8.497 -0.1875 -0.1751  0.0140
  643ERGO   ROH 9521  15.283  14.219   9.881  0.0985  0.0961 -0.0567
  643ERGO    R1 9522  15.379  14.140   9.626  0.0840 -0.0215 -0.0266
  643ERGO    R2 9523  15.210  14.080   9.416  0.0734  0.0577 -0.0437
  643ERGO    R3 9524  15.359  14.266   9.285  0.2282 -0.0715 -0.0533
  643ERGO    R4 9525  15.239  14.104   9.072 -0.2338  0.2651 -0.0591
  643ERGO    R5 9526  15.452  14.148   9.098 -0.1364 -0.0774 -0.2355
  643ERGO    C1 9527  15.396  14.292   8.750 -0.2675  0.2646 -0.0771
  643ERGO    C2 9528  15.398  14.083   8.436 -0.0561  0.1448  0.2598
  644ERGO   ROH 9529   3.298   3.126   9.074  0.1672 -0.0519  0.0461
  644ERGO    R1 9530   3.397   3.028   8.828  0.1579 -0.0970  0.0604
  644ERGO    R2 9531   3.241   3.010   8.601  0.1839 -0.0190  0.0369
  644ERGO    R3 9532   3.441   3.157   8.490  0.2720 -0.1142  0.0679
  644ERGO    R4 9533   3.355   2.976   8.277 -0.1321  0.2668 -0.1117
  644ERGO    R5 9534   3.558   3.002   8.351 -0.0317 -0.0805 -0.2402
  644ERGO    C1 9535   3.610   3.094   7.984 -0.2333  0.3440 -0.1690
  644ERGO    C2 9536   3.533   3.027   7.664  0.2397  0.0686 -0.0694
  645ERGO   ROH 9537  13.204  10.092   9.726 -0.2256 -0.0351  0.0934
  645ERGO    R1 9538  13.307  10.184   9.479 -0.2002  0.1180  0.1622
  645ERGO    R2 9539  13.328  10.022   9.257 -0.0611  0.2258  0.1070
  645ERGO    R3 9540  13.184  10.220   9.139 -0.1165  0.2072  0.1380
  645ERGO    R4 9541  13.265  10.045   8.918 -0.3287  0.0741  0.1423
  645ERGO    R5 9542  13.297  10.260   8.931 -0.2666  0.0839  0.0212
  645ERGO    C1 9543  13.093  10.244   8.609 -0.5365 -0.0317  0.1918
  645ERGO    C2 9544  12.764  10.358   8.466  0.2652 -0.1352  0.1145
  646ERGO   ROH 9545   6.326   9.412   6.170 -0.0387 -0.2353  0.0530
  646ERGO    R1 9546   6.591   9.364   6.257 -0.0295 -0.2547  0.0150
  646ERGO    R2 9547   6.706   9.503   6.467  0.0938 -0.0903 -0.1567
  646ERGO    R3 9548   6.753   9.253   6.564  0.0227 -0.0153  0.0757
  646ERGO    R4 9549   6.979   9.414   6.659  0.1065 -0.0093 -0.1372
  646ERGO    R5 9550   6.990   9.226   6.548  0.0077 -0.1229  0.0423
  646ERGO    C1 9551   7.182   9.128   6.862  0.0473  0.1082  0.0924
  646ERGO    C2 9552   7.224   9.001   7.152  0.0420 -0.3531  0.1798
  647ERGO   ROH 9553   2.021  18.846   9.313  0.0249 -0.0505  0.2648
  647ERGO    R1 9554   2.084  18.783   9.045  0.0462 -0.2465  0.3150
  647ERGO    R2 9555   1.984  18.559   8.917 -0.4312 -0.0278  0.2872
  647ERGO    R3 9556   1.902  18.741   8.733  0.1340  0.1631  0.2017
  647ERGO    R4 9557   1.908  18.485   8.588 -0.6115  0.0584  0.3084
  647ERGO    R5 9558   2.007  18.670   8.529 -0.0364 -0.2442  0.2431
  647ERGO    C1 9559   1.786  18.613   8.224 -0.1859  0.2875  0.2405
  647ERGO    C2 9560   1.540  18.498   7.959  0.0532 -0.0839  0.0996
  648ERGO   ROH 9561  13.192   0.498   5.924 -0.3811 -0.2388 -0.1148
  648ERGO    R1 9562  13.051   0.679   6.089 -0.0763 -0.0590 -0.0435
  648ERGO    R2 9563  12.903   0.596   6.307 -0.2416  0.1003 -0.0948
  648ERGO    R3 9564  13.057   0.777   6.439  0.0721 -0.2275  0.0032
  648ERGO    R4 9565  12.812   0.755   6.601 -0.0677  0.2490 -0.1198
  648ERGO    R5 9566  12.901   0.939   6.523  0.3533  0.0885 -0.0553
  648ERGO    C1 9567  12.905   1.016   6.896  0.3279  0.0278 -0.0423
  648ERGO    C2 9568  12.817   0.912   7.294  0.2367  0.0656  0.0117
  649ERGO   ROH 9569  18.407   6.959   6.381  0.1811 -0.1721  0.0824
  649ERGO    R1 9570  18.375   7.165   6.573  0.1635 -0.2034  0.1137
  649ERGO    R2 9571  18.449   7.135   6.838  0.2997 -0.1882  0.0801
  649ERGO    R3 9572  18.592   7.360   6.790  0.1645 -0.1119  0.0297
  649ERGO    R4 9573  18.534   7.371   7.076  0.2017 -0.1043  0.0328
  649ERGO    R5 9574  18.493   7.526   6.930  0.0922 -0.1488  0.0192
  649ERGO    C1 9575  18.719   7.720   7.169  0.0177  0.0161 -0.0421
  649ERGO    C2 9576  18.842   7.879   7.392 -0.0113 -0.0383  0.2293
  650ERGO   ROH 9577  17.949  12.747   9.286  0.2561  0.0419 -0.0199
  650ERGO    R1 9578  17.866  12.820   9.025  0.1829  0.0207 -0.0024
  650ERGO    R2 9579  18.018  12.981   8.860  0.1102  0.0530 -0.0365
  650ERGO    R3 9580  17.990  12.774   8.686  0.1188  0.0458 -0.0296
  650ERGO    R4 9581  18.060  13.004   8.518 -0.1231  0.1000 -0.0639
  650ERGO    R5 9582  17.888  12.873   8.493 -0.0647 -0.0005  0.0403
  650ERGO    C1 9583  18.058  12.823   8.155 -0.2509  0.1205 -0.0734
  650ERGO    C2 9584  18.070  12.814   7.894  0.1565 -0.1697 -0.2496
  651ERGO   ROH 9585   6.296   1.414   8.773  0.0433 -0.1406  0.0891
  651ERGO    R1 9586   6.398   1.507   8.526 -0.0954  0.1619  0.1432
  651ERGO    R2 9587   6.407   1.349   8.300  0.2789  0.2571  0.0942
  651ERGO    R3 9588   6.270   1.556   8.189 -0.1295  0.0211  0.1332
  651ERGO    R4 9589   6.330   1.377   7.964  0.2908  0.1954  0.0847
  651ERGO    R5 9590   6.376   1.590   7.976 -0.1443  0.3012  0.1615
  651ERGO    C1 9591   6.156   1.587   7.664 -0.0856 -0.0620  0.1157
  651ERGO    C2 9592   6.009   1.744   7.285  0.0408  0.0603  0.0264
  652ERGO   ROH 9593   1.683  10.701   6.215  0.2199  0.1125 -0.0446
  652ERGO    R1 9594   1.678  10.738   6.496  0.1341  0.0962 -0.0433
  652ERGO    R2 9595   1.447  10.803   6.634  0.0733 -0.0003 -0.0979
  652ERGO    R3 9596   1.512  10.584   6.780  0.1213  0.0168 -0.0935
  652ERGO    R4 9597   1.397  10.772   6.974  0.0813 -0.0013 -0.0971
  652ERGO    R5 9598   1.591  10.672   6.988  0.1035  0.0400 -0.0960
  652ERGO    C1 9599   1.428  10.547   7.310  0.1310  0.0141 -0.0925
  652ERGO    C2 9600   1.443  10.393   7.558  0.0710 -0.1124 -0.0702
  653ERGO   ROH 9601   1.083  15.709   5.916  0.2229 -0.2204  0.0805
  653ERGO    R1 9602   1.092  15.883   6.140  0.3826 -0.0775 -0.0352
  653ERGO    R2 9603   1.015  15.803   6.393  0.0747  0.2303 -0.0284
  653ERGO    R3 9604   1.263  15.891   6.461  0.1930 -0.1579  0.0703
  653ERGO    R4 9605   1.102  15.926   6.704  0.0953  0.2484 -0.0405
  653ERGO    R5 9606   1.222  16.079   6.605  0.4233 -0.0038 -0.0548
  653ERGO    C1 9607   1.385  16.080   6.950  0.2183 -0.1056  0.0451
  653ERGO    C2 9608   1.531  16.162   7.244  0.1105  0.0522  0.1735
  654ERGO   ROH 9609   8.229   1.859   8.901 -0.1994  0.0273 -0.1266
  654ERGO    R1 9610   8.342   1.866   8.641 -0.0920  0.1066 -0.0792
  654ERGO    R2 9611   8.329   1.651   8.468  0.0642  0.1220 -0.1181
  654ERGO    R3 9612   8.221   1.834   8.299  0.0616  0.1056 -0.1322
  654ERGO    R4 9613   8.381   1.660   8.127 -0.1376 -0.0404 -0.1555
  654ERGO    R5 9614   8.394   1.877   8.140 -0.0170 -0.0476 -0.2542
  654ERGO    C1 9615   8.311   1.839   7.769 -0.2576 -0.1505 -0.1905
  654ERGO    C2 9616   8.351   1.931   7.365  0.2977  0.2080 -0.1500
  655ERGO   ROH 9617  10.596   7.653   6.448 -0.0407 -0.0378  0.0538
  655ERGO    R1 9618  10.795   7.518   6.599 -0.1597 -0.2798  0.0015
  655ERGO    R2 9619  10.888   7.267   6.531 -0.0199 -0.1316 -0.4018
  655ERGO    R3 9620  11.130   7.391   6.539 -0.0617 -0.0647  0.0908
  655ERGO    R4 9621  11.190   7.108   6.583 -0.0335 -0.1110 -0.2613
  655ERGO    R5 9622  11.251   7.274   6.710 -0.2412 -0.2814  0.0697
  655ERGO    C1 9623  11.593   7.131   6.621 -0.0806 -0.0362  0.2830
  655ERGO    C2 9624  11.891   7.184   6.614  0.2448  0.3203 -0.0454
  656ERGO   ROH 9625   2.322   1.936   8.930 -0.2234 -0.0701 -0.0012
  656ERGO    R1 9626   2.230   2.022   8.677 -0.0306 -0.0571 -0.0680
  656ERGO    R2 9627   2.401   2.111   8.479  0.1322 -0.1629  0.0225
  656ERGO    R3 9628   2.276   1.921   8.330  0.1296 -0.1224 -0.0283
  656ERGO    R4 9629   2.405   2.095   8.134 -0.0325  0.0363  0.0087
  656ERGO    R5 9630   2.195   2.039   8.138 -0.0083 -0.0422  0.0788
  656ERGO    C1 9631   2.290   1.907   7.793 -0.1308  0.1903 -0.0469
  656ERGO    C2 9632   2.296   1.719   7.477 -0.1799  0.4057 -0.1687
  657ERGO   ROH 9633   5.057   2.867   5.453  0.1282 -0.0615  0.0141
  657ERGO    R1 9634   4.963   2.999   5.685  0.0786 -0.1362  0.0367
  657ERGO    R2 9635   4.974   2.885   5.936  0.2762 -0.1078  0.0403
  657ERGO    R3 9636   5.104   3.114   6.000  0.0744  0.0257 -0.0187
  657ERGO    R4 9637   5.038   2.992   6.258  0.2343 -0.0077  0.0155
  657ERGO    R5 9638   4.990   3.195   6.195  0.0306 -0.0559 -0.0067
  657ERGO    C1 9639   5.198   3.270   6.506  0.0204  0.1758 -0.0544
  657ERGO    C2 9640   5.213   3.279   6.867  0.2976  0.0976 -0.1857
  658ERGO   ROH 9641   5.146   6.219   9.230 -0.0801  0.0772  0.1698
  658ERGO    R1 9642   4.989   6.275   9.001  0.0663  0.2575  0.1126
  658ERGO    R2 9643   5.093   6.402   8.778  0.3535 -0.0522  0.0649
  658ERGO    R3 9644   4.994   6.184   8.649 -0.0416  0.0611  0.1596
  658ERGO    R4 9645   4.992   6.398   8.448  0.4997 -0.0436  0.0193
  658ERGO    R5 9646   4.823   6.273   8.506  0.2012  0.3363  0.0252
  658ERGO    C1 9647   4.841   6.192   8.133  0.2140  0.0678  0.0817
  658ERGO    C2 9648   4.899   6.116   7.815 -0.1274  0.1652 -0.0773
  659ERGO   ROH 9649   6.820  17.798   5.771 -0.1155 -0.1577  0.0256
  659ERGO    R1 9650   6.700  17.781   6.027 -0.0029  0.0534  0.0951
  659ERGO    R2 9651   6.636  17.541   6.146 -0.3348  0.1546  0.1439
  659ERGO    R3 9652   6.786  17.639   6.350 -0.0507 -0.0739  0.0504
  659ERGO    R4 9653   6.640  17.414   6.468 -0.2523  0.1041  0.1224
  659ERGO    R5 9654   6.646  17.618   6.543  0.0716  0.0819  0.1532
  659ERGO    C1 9655   6.783  17.432   6.846  0.0626 -0.1400  0.0222
  659ERGO    C2 9656   6.550  17.181   7.092 -0.0410 -0.0484  0.1092
  660ERGO   ROH 9657   4.063   5.685   9.051 -0.2042  0.1099  0.1016
  660ERGO    R1 9658   3.944   5.638   8.799 -0.2485  0.3615  0.0732
  660ERGO    R2 9659   3.902   5.840   8.614  0.3882  0.4360 -0.0108
  660ERGO    R3 9660   4.041   5.674   8.450 -0.0060 -0.0231  0.0961
  660ERGO    R4 9661   3.864   5.823   8.271  0.4902  0.4557 -0.0238
  660ERGO    R5 9662   3.882   5.606   8.284 -0.1400  0.3880  0.0460
  660ERGO    C1 9663   3.972   5.657   7.917  0.1795  0.0361  0.0690
  660ERGO    C2 9664   4.026   5.626   7.516  0.0494 -0.1841  0.1528
  661ERGO   ROH 9665   0.232  18.808   5.787  0.0795  0.5467 -0.0491
  661ERGO    R1 9666   0.126  18.920   6.025  0.0275  0.2444  0.0742
  661ERGO    R2 9667  -0.089  18.809   6.158  0.0876 -0.0065 -0.0353
  661ERGO    R3 9668   0.081  18.814   6.370  0.0889 -0.1422 -0.0315
  661ERGO    R4 9669  -0.168  18.704   6.478 -0.0165  0.0927 -0.0272
  661ERGO    R5 9670  -0.057  18.874   6.556  0.1376  0.0010 -0.0396
  661ERGO    C1 9671  -0.055  18.648   6.863 -0.0756  0.0233 -0.0190
  661ERGO    C2 9672  -0.086  18.577   7.210  0.1181 -0.2677  0.0284
  662ERGO   ROH 9673  18.511   8.368   6.199  0.3862  0.2738  0.1321
  662ERGO    R1 9674  18.380   8.271   6.430  0.0692  0.2870 -0.0348
  662ERGO    R2 9675  18.513   8.137   6.632 -0.2721 -0.0969 -0.0362
  662ERGO    R3 9676  18.399   8.328   6.789 -0.0798 -0.0320  0.0244
  662ERGO    R4 9677  18.364   8.078   6.938 -0.4737 -0.0536 -0.1262
  662ERGO    R5 9678  18.208   8.220   6.884 -0.2590  0.1801 -0.1069
  662ERGO    C1 9679  18.170   8.223   7.263 -0.4104  0.0325 -0.1218
  662ERGO    C2 9680  18.190   8.177   7.565  0.1118  0.2609 -0.2014
  663ERGO   ROH 9681  17.026   6.845   6.020  0.0107 -0.0133 -0.1850
  663ERGO    R1 9682  16.916   6.655   6.199 -0.0646  0.0576 -0.1563
  663ERGO    R2 9683  17.056   6.559   6.418 -0.0735 -0.0231 -0.1895
  663ERGO    R3 9684  16.837   6.643   6.554  0.0089  0.1123 -0.1369
  663ERGO    R4 9685  16.961   6.445   6.730 -0.0877  0.0027 -0.1837
  663ERGO    R5 9686  16.755   6.446   6.663 -0.1039  0.1520 -0.1444
  663ERGO    C1 9687  16.700   6.458   7.040 -0.0187  0.1450 -0.1309
  663ERGO    C2 9688  16.704   6.443   7.368 -0.0610  0.1070  0.1710
  664ERGO   ROH 9689  15.248   1.023   6.285 -0.1987  0.1141 -0.0212
  664ERGO    R1 9690  15.121   0.853   6.472 -0.0712 -0.0075 -0.0416
  664ERGO    R2 9691  15.260   0.716   6.667  0.0462 -0.0167 -0.1250
  664ERGO    R3 9692  15.084   0.839   6.834  0.0407 -0.1470 -0.0357
  664ERGO    R4 9693  15.204   0.624   6.996  0.0620 -0.2447 -0.1855
  664ERGO    R5 9694  14.991   0.659   6.964  0.0607 -0.2418 -0.1550
  664ERGO    C1 9695  15.006   0.686   7.344  0.0660 -0.4999 -0.1370
  664ERGO    C2 9696  14.994   0.600   7.646 -0.0022 -0.2350  0.1938
  665ERGO   ROH 9697  17.768   0.081   9.341 -0.0963  0.0364 -0.0286
  665ERGO    R1 9698  17.726  -0.014   9.078  0.0772 -0.0970 -0.0092
  665ERGO    R2 9699  17.724  -0.284   9.016 -0.2815 -0.1459  0.2035
  665ERGO    R3 9700  17.481  -0.224   8.909 -0.0608  0.1688 -0.1494
  665ERGO    R4 9701  17.585  -0.441   8.741 -0.1951 -0.1675  0.1716
  665ERGO    R5 9702  17.513  -0.247   8.673  0.2051 -0.0951 -0.0985
  665ERGO    C1 9703  17.276  -0.476   8.480  0.0624  0.1151 -0.1782
  665ERGO    C2 9704  17.127  -0.646   8.260  0.1190 -0.0058  0.2205
  666ERGO   ROH 9705   3.621   1.821   8.800 -0.1848 -0.1612 -0.2049
  666ERGO    R1 9706   3.686   1.666   8.573 -0.1681 -0.0821 -0.2567
  666ERGO    R2 9707   3.619   1.743   8.316  0.0222  0.1064 -0.2598
  666ERGO    R3 9708   3.885   1.708   8.272  0.0247 -0.0471 -0.1244
  666ERGO    R4 9709   3.766   1.711   8.005  0.1791  0.1070 -0.1852
  666ERGO    R5 9710   3.896   1.557   8.086  0.0355  0.0043 -0.1604
  666ERGO    C1 9711   4.101   1.661   7.782  0.2729 -0.0367 -0.0146
  666ERGO    C2 9712   4.087   1.789   7.443 -0.3934 -0.3947 -0.0103
  667ERGO   ROH 9713  17.520  10.752   5.756  0.1777  0.0678  0.0888
  667ERGO    R1 9714  17.590  10.843   6.015  0.0595  0.0597  0.1253
  667ERGO    R2 9715  17.521  11.094   6.108  0.1750  0.1304  0.0330
  667ERGO    R3 9716  17.414  10.952   6.314 -0.0798  0.2406 -0.0202
  667ERGO    R4 9717  17.538  11.185   6.441  0.4733 -0.0939  0.0823
  667ERGO    R5 9718  17.573  10.976   6.492  0.0314 -0.2081 -0.0486
  667ERGO    C1 9719  17.448  11.105   6.828  0.4076 -0.1211  0.0610
  667ERGO    C2 9720  17.449  11.063   7.179  0.1825 -0.2030  0.1338
  668ERGO   ROH 9721  14.731   4.967   9.484 -0.1323 -0.0271  0.0372
  668ERGO    R1 9722  14.809   4.939   9.213  0.0247  0.1344  0.0638
  668ERGO    R2 9723  14.654   4.805   9.027  0.2927 -0.0569 -0.0259
  668ERGO    R3 9724  14.678   5.038   8.888  0.0165  0.0069  0.0271
  668ERGO    R4 9725  14.553   4.850   8.700  0.1616 -0.0794  0.0108
  668ERGO    R5 9726  14.733   4.968   8.666  0.0340  0.1193 -0.0057
  668ERGO    C1 9727  14.516   5.095   8.379 -0.1740 -0.0326  0.0820
  668ERGO    C2 9728  14.440   5.136   8.089 -0.0195  0.0594 -0.0299
  669ERGO   ROH 9729  17.505   2.310   9.005 -0.2062  0.1805 -0.0012
  669ERGO    R1 9730  17.580   2.423   8.756 -0.1752  0.1929  0.0128
  669ERGO    R2 9731  17.663   2.269   8.541 -0.0070  0.2116  0.0589
  669ERGO    R3 9732  17.465   2.402   8.411 -0.0352  0.0853 -0.0275
  669ERGO    R4 9733  17.618   2.272   8.199  0.2252  0.3007  0.0281
  669ERGO    R5 9734  17.569   2.484   8.212  0.0303  0.2513  0.0744
  669ERGO    C1 9735  17.406   2.399   7.877  0.3337  0.2340 -0.0710
  669ERGO    C2 9736  17.362   2.279   7.465  0.1514 -0.2476  0.5487
  670ERGO   ROH 9737  16.411  14.119   9.349  0.1498  0.0047 -0.0926
  670ERGO    R1 9738  16.475  13.999   9.100  0.0512  0.0334 -0.1321
  670ERGO    R2 9739  16.289  13.968   8.898 -0.0119  0.1187 -0.0871
  670ERGO    R3 9740  16.476  14.099   8.751 -0.0176  0.0968 -0.1146
  670ERGO    R4 9741  16.287  13.994   8.553  0.0137  0.0055 -0.0965
  670ERGO    R5 9742  16.503  13.964   8.554  0.0180  0.0359 -0.0686
  670ERGO    C1 9743  16.461  14.132   8.214  0.0233 -0.0809 -0.1278
  670ERGO    C2 9744  16.573  14.368   7.927  0.4606 -0.0572 -0.2243
  671ERGO   ROH 9745   4.464   2.120   5.690  0.0104 -0.1525 -0.1067
  671ERGO    R1 9746   4.500   2.153   5.969  0.0470 -0.0189 -0.1263
  671ERGO    R2 9747   4.437   1.956   6.151 -0.0937  0.1309 -0.0081
  671ERGO    R3 9748   4.694   1.992   6.231 -0.0615 -0.0152 -0.0433
  671ERGO    R4 9749   4.558   1.885   6.468 -0.0648 -0.0292 -0.0542
  671ERGO    R5 9750   4.676   2.068   6.458  0.0178 -0.0818 -0.0153
  671ERGO    C1 9751   4.869   1.878   6.727 -0.0176 -0.2596 -0.1142
  671ERGO    C2 9752   4.922   1.629   7.022 -0.3189  0.1190  0.1266
  672ERGO   ROH 9753   5.612   5.116   6.053  0.0619  0.3905 -0.1286
  672ERGO    R1 9754   5.389   5.236   6.179 -0.0046  0.1960 -0.0638
  672ERGO    R2 9755   5.129   5.155   6.131  0.0667 -0.0332  0.0225
  672ERGO    R3 9756   5.122   5.129   6.401  0.1509 -0.0243  0.0292
  672ERGO    R4 9757   4.841   5.157   6.323  0.0875 -0.2256  0.0620
  672ERGO    R5 9758   4.946   5.276   6.471  0.0468 -0.1296  0.0442
  672ERGO    C1 9759   4.667   5.134   6.688  0.1785 -0.3293  0.0913
  672ERGO    C2 9760   4.435   4.946   6.890 -0.0450  0.2303  0.0097
  673ERGO   ROH 9761   5.024  12.241   5.996 -0.2223 -0.0600  0.1917
  673ERGO    R1 9762   5.184  12.311   6.219 -0.2933 -0.0750  0.2494
  673ERGO    R2 9763   5.427  12.440   6.193 -0.0866 -0.4281  0.3112
  673ERGO    R3 9764   5.314  12.618   6.364  0.0155 -0.1142  0.0581
  673ERGO    R4 9765   5.598  12.620   6.433 -0.0327 -0.3818  0.2366
  673ERGO    R5 9766   5.432  12.587   6.569 -0.1577 -0.0416  0.1649
  673ERGO    C1 9767   5.592  12.893   6.733  0.0947 -0.0600 -0.0444
  673ERGO    C2 9768   5.441  13.120   7.022  0.0483 -0.0241  0.2323
  674ERGO   ROH 9769   2.803  15.765   9.402  0.0269 -0.1066  0.1233
  674ERGO    R1 9770   2.830  15.606   9.170  0.2791  0.0514  0.0407
  674ERGO    R2 9771   2.614  15.536   9.011  0.3903 -0.1933  0.0006
  674ERGO    R3 9772   2.765  15.644   8.814  0.2356  0.1377  0.0561
  674ERGO    R4 9773   2.606  15.438   8.680  0.6790 -0.1883 -0.0109
  674ERGO    R5 9774   2.823  15.459   8.674  0.6532  0.2529  0.0546
  674ERGO    C1 9775   2.744  15.483   8.301  0.7019  0.1255  0.0346
  674ERGO    C2 9776   2.748  15.423   7.891  0.0700 -0.1057 -0.0685
  675PSPI    C1 9777   6.143   1.211   4.704 -0.0043  0.0635  0.0806
  675PSPI    C2 9778   6.070   0.964   4.399  0.0575 -0.0647  0.1688
  675PSPI    C3 9779   6.411   1.173   4.410  0.1348 -0.1933  0.2374
  675PSPI   PO4 9780   6.025   0.936   4.912 -0.2770 -0.0635 -0.0744
  675PSPI   GL1 9781   6.059   0.954   5.279 -0.1530 -0.1217 -0.0283
  675PSPI   GL2 9782   6.106   1.143   5.568  0.1425  0.1404 -0.2151
  675PSPI   C1A 9783   6.071   0.678   5.589  0.0565  0.3983  0.0006
  675PSPI   C2A 9784   6.102   0.700   6.004 -0.1552 -0.0025  0.1108
  675PSPI   C3A 9785   5.941   0.862   6.321  0.1236  0.0637 -0.0470
  675PSPI   C4A 9786   5.688   0.930   6.609  0.3047  0.4598 -0.0824
  675PSPI   C1B 9787   6.512   0.986   5.639  0.2271 -0.1030 -0.0920
  675PSPI   C2B 9788   6.677   0.865   6.028 -0.1522  0.1684 -0.2321
  675PSPI   C3B 9789   6.506   0.711   6.412  0.1356  0.2628 -0.1238
  675PSPI   C4B 9790   6.491   0.459   6.749  0.1836  0.0344  0.2490
  676PSPI    C1 9791   3.326  12.125   5.498  0.0121  0.0334  0.3349
  676PSPI    C2 9792   3.261  12.509   5.589  0.0505  0.0842  0.1502
  676PSPI    C3 9793   2.983  12.301   5.391  0.2012  0.1372 -0.1231
  676PSPI   PO4 9794   3.446  12.071   5.868 -0.3229 -0.2093 -0.0823
  676PSPI   GL1 9795   3.322  11.847   6.225 -0.1196 -0.0210 -0.3176
  676PSPI   GL2 9796   3.349  12.074   6.370 -0.1693  0.0352  0.1872
  676PSPI   C1A 9797   3.590  11.589   6.542 -0.3663  0.0278 -0.3075
  676PSPI   C2A 9798   3.864  11.487   6.909  0.0278 -0.0161 -0.2273
  676PSPI   C3A 9799   4.013  11.637   7.338  0.0065  0.1656 -0.6903
  676PSPI   C4A 9800   4.058  11.927   7.685  0.2521 -0.1318 -0.1353
  676PSPI   C1B 9801   3.306  11.980   6.751  0.0906  0.1284  0.1052
  676PSPI   C2B 9802   3.598  11.828   7.087  0.4898  0.0727 -0.0731
  676PSPI   C3B 9803   3.533  11.501   7.422 -0.1233  0.4550 -0.1719
  676PSPI   C4B 9804   3.795  11.175   7.796 -0.3014  0.0347  0.3052
  677PSPI    C1 9805   6.842  13.025   5.317  0.1460 -0.1895 -0.0315
  677PSPI    C2 9806   6.657  13.022   4.963  0.0236 -0.0730  0.0307
  677PSPI    C3 9807   7.011  12.842   5.004 -0.1090 -0.3640 -0.0710
  677PSPI   PO4 9808   6.690  12.924   5.475  0.0950 -0.4945  0.0697
  677PSPI   GL1 9809   6.794  12.888   5.904 -0.3854 -0.2509 -0.2352
  677PSPI   GL2 9810   7.159  12.966   5.812 -0.2490  0.0440 -0.0231
  677PSPI   C1A 9811   6.876  12.834   6.304 -0.0872 -0.1328 -0.1234
  677PSPI   C2A 9812   7.124  12.866   6.656 -0.1431 -0.1929  0.1862
  677PSPI   C3A 9813   7.581  12.760   6.847  0.0149  0.1755  0.3391
  677PSPI   C4A 9814   7.975  12.916   6.878 -0.1649 -0.0014  0.0026
  677PSPI   C1B 9815   7.033  13.275   6.179 -0.1061  0.0097 -0.1780
  677PSPI   C2B 9816   6.835  13.249   6.586  0.2927 -0.1278 -0.1000
  677PSPI   C3B 9817   6.714  13.109   7.010  0.1050 -0.2597  0.3899
  677PSPI   C4B 9818   6.560  13.198   7.376  0.2943  0.1798  0.1833
  678PSPI    C1 9819   4.203  18.963   4.990 -0.0424  0.0873  0.1295
  678PSPI    C2 9820   4.151  18.678   4.715  0.0860  0.2345 -0.0500
  678PSPI    C3 9821   3.909  18.997   4.722 -0.2288 -0.0030  0.3196
  678PSPI   PO4 9822   4.514  18.961   5.080  0.1190 -0.4559 -0.2706
  678PSPI   GL1 9823   4.368  18.789   5.479  0.0881  0.0327 -0.0723
  678PSPI   GL2 9824   4.151  19.002   5.602  0.2083 -0.0164 -0.1439
  678PSPI   C1A 9825   4.745  18.762   5.634 -0.1889  0.2683  0.2349
  678PSPI   C2A 9826   4.764  18.667   6.021 -0.3265 -0.0312 -0.1405
  678PSPI   C3A 9827   5.097  18.639   6.342  0.0527  0.2854  0.1365
  678PSPI   C4A 9828   5.408  18.840   6.631  0.0509 -0.2124  0.1289
  678PSPI   C1B 9829   4.192  18.836   6.101  0.1087 -0.3580 -0.2495
  678PSPI   C2B 9830   4.424  18.735   6.461  0.1135  0.0672  0.4092
  678PSPI   C3B 9831   4.731  18.695   6.847 -0.0953 -0.1097 -0.1912
  678PSPI   C4B 9832   5.021  18.673   7.174  0.0424  0.0119  0.4260
  679PSPI    C1 9833   4.737  17.654   4.998  0.0165  0.0112  0.0735
  679PSPI    C2 9834   4.616  17.671   4.617  0.0814 -0.0382  0.0505
  679PSPI    C3 9835   4.494  17.371   4.852 -0.2827  0.2068  0.1830
  679PSPI   PO4 9836   4.790  17.973   5.074  0.3257 -0.0830 -0.1964
  679PSPI   GL1 9837   4.869  18.170   5.418 -0.1750 -0.2470 -0.1862
  679PSPI   GL2 9838   4.845  18.401   5.351 -0.3445  0.0618 -0.0742
  679PSPI   C1A 9839   5.170  17.965   5.758  0.0805 -0.0569  0.3196
  679PSPI   C2A 9840   5.214  17.600   6.189 -0.0379 -0.0131  0.0486
  679PSPI   C3A 9841   4.973  17.244   6.329 -0.2431 -0.0692 -0.3146
  679PSPI   C4A 9842   4.613  17.019   6.255  0.0190  0.2121 -0.1406
  679PSPI   C1B 9843   5.148  18.490   5.649  0.0775 -0.1188  0.2454
  679PSPI   C2B 9844   5.444  18.443   5.948  0.3082  0.2771  0.1323
  679PSPI   C3B 9845   5.660  18.820   6.172 -0.2908  0.0716  0.1905
  679PSPI   C4B 9846   5.803  19.089   6.484 -0.2883 -0.0197  0.1161
  680PSPI    C1 9847   5.875  17.575   4.969  0.1014  0.2546  0.0613
  680PSPI    C2 9848   5.964  17.618   4.581  0.1113  0.2236  0.0601
  680PSPI    C3 9849   5.622  17.442   4.690  0.1424  0.1663  0.0658
  680PSPI   PO4 9850   6.051  17.887   5.101  0.0324  0.0743 -0.2758
  680PSPI   GL1 9851   6.090  18.187   5.361 -0.0431  0.0921 -0.2271
  680PSPI   GL2 9852   6.422  18.095   5.443 -0.1440  0.2244 -0.1116
  680PSPI   C1A 9853   6.005  18.117   5.738  0.2757  0.0550 -0.1347
  680PSPI   C2A 9854   5.902  18.347   6.122 -0.2931 -0.2263  0.3462
  680PSPI   C3A 9855   5.739  18.483   6.548  0.0613 -0.0650  0.2145
  680PSPI   C4A 9856   5.872  18.609   6.977  0.0477 -0.1105 -0.1983
  680PSPI   C1B 9857   6.456  18.237   5.798 -0.2528  0.1525 -0.0769
  680PSPI   C2B 9858   6.344  18.172   6.329 -0.1387 -0.0266  0.1557
  680PSPI   C3B 9859   6.124  18.265   6.703 -0.2583 -0.1559  0.1996
  680PSPI   C4B 9860   5.772  17.960   6.710  0.4232  0.4279 -0.2967
  681PSPI    C1 9861   8.959  14.299   5.051  0.1599  0.0602 -0.0664
  681PSPI    C2 9862   9.015  13.921   5.169  0.1752  0.0790 -0.0131
  681PSPI    C3 9863   8.953  14.002   4.783  0.1914  0.0241 -0.0275
  681PSPI   PO4 9864   9.256  14.412   5.175  0.0553 -0.2425 -0.2061
  681PSPI   GL1 9865   9.246  14.448   5.720  0.1396 -0.0009 -0.0389
  681PSPI   GL2 9866   9.181  14.553   5.956  0.0776  0.0468 -0.1164
  681PSPI   C1A 9867   9.371  14.108   6.119  0.0340 -0.5210  0.0541
  681PSPI   C2A 9868   9.245  14.034   6.544  0.3240 -0.0077  0.3724
  681PSPI   C3A 9869   9.411  13.972   6.942 -0.2457  0.0894 -0.1862
  681PSPI   C4A 9870   9.564  13.722   7.266 -0.2345 -0.2488  0.1772
  681PSPI   C1B 9871   8.998  14.399   6.368 -0.2394 -0.1270 -0.0970
  681PSPI   C2B 9872   8.782  14.367   6.783  0.2630  0.1097 -0.1043
  681PSPI   C3B 9873   8.558  14.365   7.291  0.0937  0.0021 -0.2172
  681PSPI   C4B 9874   8.797  14.435   7.648 -0.0495  0.1688 -0.0651
  682PSPI    C1 9875   6.068  10.894   5.415  0.2600  0.0139  0.1668
  682PSPI    C2 9876   6.043  11.218   5.182  0.0438  0.0547  0.2448
  682PSPI    C3 9877   5.986  10.855   5.026  0.2164  0.0586  0.1713
  682PSPI   PO4 9878   6.280  10.904   5.588  0.1892 -0.0674 -0.1545
  682PSPI   GL1 9879   6.203  10.890   6.046  0.0903 -0.1251  0.0005
  682PSPI   GL2 9880   6.084  10.581   6.207  0.2722  0.4681  0.1864
  682PSPI   C1A 9881   6.357  10.890   6.482 -0.0432  0.3296  0.2032
  682PSPI   C2A 9882   6.433  10.778   6.998  0.0183 -0.1447 -0.1406
  682PSPI   C3A 9883   6.439  10.962   7.411 -0.2299 -0.2575  0.0708
  682PSPI   C4A 9884   6.205  10.931   7.753 -0.3090 -0.1295 -0.0091
  682PSPI   C1B 9885   5.839  11.015   6.521  0.1897  0.0591  0.4732
  682PSPI   C2B 9886   5.862  11.027   6.977 -0.0434  0.0604 -0.0329
  682PSPI   C3B 9887   5.952  10.749   7.272  0.0221 -0.3599 -0.1990
  682PSPI   C4B 9888   6.108  10.395   7.565  0.0925  0.1481 -0.2771
  683PSPI    C1 9889  10.547  16.823   5.429 -0.0487  0.1059 -0.0339
  683PSPI    C2 9890  10.793  17.107   5.290 -0.1005  0.1531 -0.0296
  683PSPI    C3 9891  10.595  16.871   5.035  0.1429 -0.0526 -0.0311
  683PSPI   PO4 9892  10.748  16.684   5.633  0.0476  0.0351  0.1328
  683PSPI   GL1 9893  10.989  16.749   6.040  0.1753  0.2464  0.2438
  683PSPI   GL2 9894  11.013  17.064   6.146 -0.0871 -0.0480  0.2014
  683PSPI   C1A 9895  11.139  16.651   6.500  0.1536  0.0777  0.0952
  683PSPI   C2A 9896  10.838  16.656   6.853  0.2166  0.0203 -0.1574
  683PSPI   C3A 9897  10.750  16.514   7.189  0.0426  0.2075 -0.2236
  683PSPI   C4A 9898  10.797  16.312   7.538  0.1158 -0.0087 -0.3610
  683PSPI   C1B 9899  11.061  17.096   6.640 -0.0709  0.0765  0.2078
  683PSPI   C2B 9900  10.769  17.091   7.064  0.2380  0.3311  0.0021
  683PSPI   C3B 9901  10.402  16.864   7.318 -0.2461 -0.0553 -0.1717
  683PSPI   C4B 9902   9.976  16.866   7.551 -0.2135  0.3986  0.1305
  684PSPI    C1 9903  11.842   3.390   4.685  0.0730 -0.0796  0.0385
  684PSPI    C2 9904  12.068   3.632   4.460 -0.1072  0.2180  0.1719
  684PSPI    C3 9905  12.166   3.246   4.499  0.0832  0.2255 -0.1883
  684PSPI   PO4 9906  11.883   3.506   4.979 -0.1660 -0.2352  0.0829
  684PSPI   GL1 9907  12.109   3.652   5.301  0.1235  0.0463 -0.0207
  684PSPI   GL2 9908  12.340   3.673   5.276 -0.3017 -0.2786 -0.1465
  684PSPI   C1A 9909  12.025   3.545   5.682 -0.1587  0.1076  0.1345
  684PSPI   C2A 9910  12.220   3.360   5.948  0.1408 -0.1904  0.3587
  684PSPI   C3A 9911  12.272   2.787   5.846  0.0983  0.0211  0.0837
  684PSPI   C4A 9912  12.530   2.533   5.897 -0.0965 -0.1539 -0.3787
  684PSPI   C1B 9913  12.451   3.807   5.702 -0.0630 -0.3159 -0.1406
  684PSPI   C2B 9914  12.514   3.700   6.139 -0.1572  0.3211  0.0803
  684PSPI   C3B 9915  12.574   3.567   6.551  0.2950  0.2582  0.0461
  684PSPI   C4B 9916  12.794   3.415   7.030 -0.1120 -0.1964  0.1497
  685PSPI    C1 9917  15.549  12.550   4.930  0.1951 -0.1655 -0.1795
  685PSPI    C2 9918  15.870  12.657   4.715  0.3059  0.2963  0.1995
  685PSPI    C3 9919  15.546  12.891   4.721 -0.0304 -0.1424 -0.1402
  685PSPI   PO4 9920  15.555  12.588   5.223 -0.2891  0.0083 -0.0734
  685PSPI   GL1 9921  15.580  12.580   5.651  0.2168  0.4170 -0.1125
  685PSPI   GL2 9922  15.629  12.860   5.918  0.0188  0.0550 -0.0707
  685PSPI   C1A 9923  15.373  12.430   6.054 -0.1668 -0.0143  0.4330
  685PSPI   C2A 9924  15.503  12.361   6.508  0.3445 -0.1898  0.0640
  685PSPI   C3A 9925  15.505  12.394   6.943 -0.0038 -0.0711  0.1154
  685PSPI   C4A 9926  15.253  12.322   7.389  0.1057 -0.2892  0.0234
  685PSPI   C1B 9927  15.749  12.725   6.339 -0.0751  0.0706 -0.0368
  685PSPI   C2B 9928  16.035  12.628   6.599 -0.1482  0.0600  0.0946
  685PSPI   C3B 9929  16.365  12.647   6.974 -0.0616 -0.1284 -0.0037
  685PSPI   C4B 9930  16.679  12.814   7.240 -0.1935 -0.0136  0.0052
  686PSPI    C1 9931   0.281  16.121   5.523 -0.0346 -0.0958  0.0234
  686PSPI    C2 9932  -0.018  16.262   5.297  0.0715  0.0682 -0.0166
  686PSPI    C3 9933   0.179  15.933   5.184 -0.0010  0.0405 -0.0631
  686PSPI   PO4 9934   0.427  16.323   5.538 -0.0019  0.1705  0.0676
  686PSPI   GL1 9935   0.504  16.548   5.957  0.1540 -0.0234  0.1759
  686PSPI   GL2 9936   0.774  16.274   5.829  0.0427  0.1675 -0.0923
  686PSPI   C1A 9937   0.460  16.489   6.440 -0.0376  0.2756  0.5122
  686PSPI   C2A 9938   0.331  16.291   6.781  0.2118 -0.4547  0.4426
  686PSPI   C3A 9939   0.073  16.463   7.103  0.3348 -0.3008  0.0168
  686PSPI   C4A 9940  -0.137  16.736   7.476 -0.2782  0.0112  0.2349
  686PSPI   C1B 9941   0.906  16.316   6.248  0.0054  0.0144 -0.2494
  686PSPI   C2B 9942   0.817  16.354   6.751 -0.0884  0.4243 -0.1495
  686PSPI   C3B 9943   0.976  16.305   7.214 -0.0941  0.0566  0.1130
  686PSPI   C4B 9944   0.776  16.341   7.707 -0.3713  0.2804  0.1863
  687PSPI    C1 9945   2.838   7.576   5.307 -0.2504  0.0253  0.1191
  687PSPI    C2 9946   3.181   7.675   5.127 -0.3085 -0.1198 -0.0743
  687PSPI    C3 9947   2.866   7.560   4.909 -0.4235 -0.1639  0.1130
  687PSPI   PO4 9948   3.004   7.432   5.534  0.1487 -0.1029 -0.0495
  687PSPI   GL1 9949   3.130   7.201   5.890  0.0510 -0.0703  0.2500
  687PSPI   GL2 9950   2.886   7.031   5.991 -0.0993 -0.1838  0.1686
  687PSPI   C1A 9951   3.217   7.154   6.301  0.1926  0.2230  0.0642
  687PSPI   C2A 9952   3.051   7.025   6.724 -0.4435  0.0932 -0.0254
  687PSPI   C3A 9953   2.684   7.051   6.801 -0.2201 -0.5193 -0.0595
  687PSPI   C4A 9954   2.388   7.154   6.550 -0.1829 -0.2787  0.2689
  687PSPI   C1B 9955   2.424   6.934   6.103  0.1546 -0.2353  0.0690
  687PSPI   C2B 9956   2.306   6.625   6.469 -0.0059 -0.0687  0.1000
  687PSPI   C3B 9957   2.266   6.270   6.879 -0.1587  0.1686  0.3470
  687PSPI   C4B 9958   2.180   6.217   7.334 -0.2489 -0.2246  0.0659
  688PSPI    C1 9959   7.162  13.477   5.129  0.0016 -0.0418  0.0758
  688PSPI    C2 9960   7.190  13.611   4.754 -0.1030  0.4359  0.2317
  688PSPI    C3 9961   7.270  13.228   4.835  0.1214  0.3741 -0.2422
  688PSPI   PO4 9962   7.263  13.725   5.355 -0.0611 -0.1391 -0.1453
  688PSPI   GL1 9963   7.259  13.784   5.780  0.3088 -0.1174  0.0604
  688PSPI   GL2 9964   7.626  13.839   5.653 -0.1293 -0.0175 -0.1756
  688PSPI   C1A 9965   6.852  13.677   6.012  0.0083  0.0352 -0.1107
  688PSPI   C2A 9966   6.651  13.867   6.388  0.1154 -0.1112 -0.1984
  688PSPI   C3A 9967   6.592  13.740   6.806 -0.4556 -0.1286 -0.0394
  688PSPI   C4A 9968   6.362  13.611   7.145 -0.1789 -0.1359  0.1998
  688PSPI   C1B 9969   7.666  13.840   6.096 -0.1334 -0.2816 -0.4880
  688PSPI   C2B 9970   7.529  13.888   6.545 -0.0039  0.0320  0.3313
  688PSPI   C3B 9971   7.706  13.878   6.959  0.0155 -0.0446  0.0701
  688PSPI   C4B 9972   7.906  13.771   7.354 -0.2367  0.0205 -0.0980
  689PSPI    C1 9973  15.416  10.439   5.589 -0.0280  0.0165  0.0211
  689PSPI    C2 9974  15.531  10.216   5.278  0.0958 -0.1808  0.2052
  689PSPI    C3 9975  15.783  10.483   5.436 -0.0598  0.1118 -0.0291
  689PSPI   PO4 9976  15.345  10.242   5.740  0.0441 -0.2080  0.0049
  689PSPI   GL1 9977  15.046  10.142   6.073  0.3434 -0.0203  0.0222
  689PSPI   GL2 9978  14.770  10.065   6.290  0.1288  0.0950  0.2329
  689PSPI   C1A 9979  15.149   9.760   6.249  0.2107  0.1322  0.0690
  689PSPI   C2A 9980  15.020   9.411   6.634  0.0654 -0.2050 -0.2520
  689PSPI   C3A 9981  14.932   8.976   6.611 -0.2681  0.1085  0.2626
  689PSPI   C4A 9982  14.684   8.911   7.064  0.2292  0.1931 -0.2049
  689PSPI   C1B 9983  15.061   9.909   6.687  0.5809 -0.2063 -0.1065
  689PSPI   C2B 9984  15.120   9.872   7.232 -0.1503 -0.3304  0.0336
  689PSPI   C3B 9985  15.162  10.038   7.681 -0.1823  0.0581  0.3642
  689PSPI   C4B 9986  15.389   9.882   8.031 -0.1657 -0.0548  0.1515
  690PSPI    C1 9987   4.081  14.670   5.334 -0.1149 -0.2528 -0.0824
  690PSPI    C2 9988   3.687  14.660   5.264 -0.2154  0.2168  0.3574
  690PSPI    C3 9989   3.897  14.988   5.175  0.1034 -0.0688  0.0279
  690PSPI   PO4 9990   4.120  14.592   5.616 -0.1806 -0.0406  0.3873
  690PSPI   GL1 9991   3.893  14.666   6.070 -0.2757 -0.0506 -0.1019
  690PSPI   GL2 9992   4.125  14.970   6.009 -0.1950 -0.2747  0.0415
  690PSPI   C1A 9993   3.882  14.657   6.457  0.6242 -0.0796 -0.3925
  690PSPI   C2A 9994   4.083  14.732   6.847  0.0826 -0.0566  0.0094
  690PSPI   C3A 9995   4.499  14.849   7.018 -0.1954 -0.0776  0.1892
  690PSPI   C4A 9996   4.851  14.661   7.085 -0.0400 -0.3486 -0.1731
  690PSPI   C1B 9997   3.954  15.268   6.339  0.1233 -0.0623  0.0252
  690PSPI   C2B 9998   3.981  15.576   6.601  0.0886 -0.2371 -0.0488
  690PSPI   C3B 9999   3.862  15.750   7.025  0.0851  0.1280  0.0907
  690PSPI   C4B10000   4.010  15.631   7.458 -0.1780  0.1028  0.1153
  691PSPI    C110001   3.643   7.809   5.511 -0.1906  0.2874  0.2678
  691PSPI    C210002   3.670   7.885   5.119 -0.1308  0.1080  0.2362
  691PSPI    C310003   3.981   7.959   5.359 -0.0590 -0.0695  0.1992
  691PSPI   PO410004   3.398   7.694   5.561 -0.3294  0.2172  0.2731
  691PSPI   GL110005   3.454   7.654   5.970 -0.2196  0.0706  0.0369
  691PSPI   GL210006   3.100   7.695   5.923 -0.0393  0.0207  0.2822
  691PSPI   C1A10007   3.387   7.575   6.441  0.0187 -0.1695 -0.3814
  691PSPI   C2A10008   3.442   7.398   6.856  0.1585  0.2169 -0.2459
  691PSPI   C3A10009   3.318   7.206   7.253  0.1711  0.0967 -0.4997
  691PSPI   C4A10010   2.911   6.990   7.231  0.4024  0.0650 -0.0929
  691PSPI   C1B10011   3.237   7.993   6.327 -0.0490 -0.0911 -0.0430
  691PSPI   C2B10012   3.538   8.179   6.464  0.2640 -0.1699  0.1417
  691PSPI   C3B10013   3.877   8.475   6.392  0.4144 -0.0849  0.3968
  691PSPI   C4B10014   4.392   8.610   6.425  0.0233  0.1494  0.0550
  692PSPI    C110015   3.701  10.004   5.377  0.1167  0.0994 -0.0903
  692PSPI    C210016   3.937  10.326   5.344 -0.0480  0.2464  0.1362
  692PSPI    C310017   3.592  10.309   5.142  0.1169  0.0638 -0.1368
  692PSPI   PO410018   3.784   9.715   5.666 -0.0287 -0.0737 -0.1568
  692PSPI   GL110019   3.766   9.484   6.089 -0.0134  0.1952 -0.0607
  692PSPI   GL210020   3.885   9.181   5.964  0.2270 -0.1703 -0.2780
  692PSPI   C1A10021   3.659   9.552   6.490 -0.1312  0.1844 -0.1240
  692PSPI   C2A10022   3.733   9.922   6.741 -0.0690 -0.2865  0.3585
  692PSPI   C3A10023   3.971  10.033   7.196 -0.1957 -0.0787 -0.1550
  692PSPI   C4A10024   4.054  10.250   7.482  0.1161 -0.0748 -0.0338
  692PSPI   C1B10025   4.111   9.000   6.335 -0.1951  0.1868 -0.1422
  692PSPI   C2B10026   4.198   8.929   6.746 -0.2186  0.1988  0.2062
  692PSPI   C3B10027   4.194   8.683   7.011 -0.3383  0.1267 -0.0408
  692PSPI   C4B10028   4.251   8.369   7.353  0.3367 -0.0598  0.0898
  693PSPI    C110029  13.270   6.606   5.178  0.0968  0.1186 -0.2043
  693PSPI    C210030  13.551   6.338   5.273 -0.0666 -0.0020 -0.0541
  693PSPI    C310031  13.204   6.217   5.115 -0.1161  0.1268 -0.0460
  693PSPI   PO410032  13.203   6.709   5.359 -0.2513  0.1173 -0.3212
  693PSPI   GL110033  13.213   6.438   5.770 -0.1595  0.2768  0.3322
  693PSPI   GL210034  13.029   6.213   5.563 -0.0142 -0.0258 -0.0940
  693PSPI   C1A10035  13.426   6.858   5.886 -0.0532  0.2995 -0.0465
  693PSPI   C2A10036  13.643   7.057   6.181  0.0269 -0.0126  0.0267
  693PSPI   C3A10037  13.708   7.467   6.327 -0.1362 -0.4651  0.1143
  693PSPI   C4A10038  13.545   7.749   6.518  0.2038 -0.0132 -0.0286
  693PSPI   C1B10039  13.311   5.911   5.836  0.3290  0.1977 -0.0570
  693PSPI   C2B10040  13.552   5.734   6.174  0.2525  0.0340  0.0403
  693PSPI   C3B10041  13.793   6.051   6.485 -0.4412  0.1403  0.1301
  693PSPI   C4B10042  13.781   6.187   6.807 -0.1534  0.0713 -0.0247
  694PSPI    C110043   4.870   8.977   5.176  0.3266 -0.0056  0.0949
  694PSPI    C210044   4.735   8.600   5.185  0.0782  0.0728 -0.1809
  694PSPI    C310045   4.821   8.773   4.835  0.5770  0.1417 -0.0319
  694PSPI   PO410046   5.031   8.939   5.443  0.3656 -0.1099  0.0204
  694PSPI   GL110047   5.014   9.100   5.837  0.2277 -0.2711 -0.1027
  694PSPI   GL210048   4.814   9.423   5.880 -0.0012  0.1294 -0.0094
  694PSPI   C1A10049   4.971   8.997   6.276  0.1048 -0.1737 -0.0645
  694PSPI   C2A10050   4.683   8.975   6.606  0.1439  0.1535 -0.0148
  694PSPI   C3A10051   4.648   8.924   6.983 -0.1145 -0.3139  0.1828
  694PSPI   C4A10052   4.342   9.111   7.284 -0.1451 -0.0641 -0.1967
  694PSPI   C1B10053   4.460   9.416   6.232 -0.1648 -0.3307  0.0333
  694PSPI   C2B10054   4.154   9.500   6.543  0.0633  0.2607 -0.0393
  694PSPI   C3B10055   4.173   9.511   6.985  0.0407  0.1306  0.1964
  694PSPI   C4B10056   4.202   9.685   7.402 -0.0615  0.3452  0.0682
  695POPI    C110057   6.719   2.607   5.153  0.0483 -0.0578 -0.0490
  695POPI    C210058   6.519   2.543   4.813 -0.1729  0.0230  0.0639
  695POPI    C310059   6.806   2.820   4.827  0.0270 -0.1702 -0.1290
  695POPI   PO410060   6.414   2.698   5.330 -0.3585  0.0995 -0.0980
  695POPI   GL110061   6.296   2.429   5.618  0.1126  0.1676 -0.4260
  695POPI   GL210062   6.331   2.584   5.934  0.1375 -0.2977 -0.2574
  695POPI   C1A10063   6.291   1.998   5.539  0.3454  0.2528  0.3425
  695POPI   D2A10064   6.033   1.648   5.537 -0.2026 -0.0523  0.0357
  695POPI   C3A10065   5.882   1.504   5.977 -0.1886  0.0313  0.0831
  695POPI   C4A10066   5.524   1.424   6.340  0.1366 -0.3587 -0.0383
  695POPI   C1B10067   6.508   2.221   6.005 -0.3487  0.1402 -0.1206
  695POPI   C2B10068   6.906   2.046   6.180 -0.3648 -0.3090 -0.2873
  695POPI   C3B10069   7.121   1.625   6.541  0.1950  0.2510  0.2277
  695POPI   C4B10070   7.201   1.316   6.740 -0.2488 -0.0974 -0.0121
  696POPI    C110071  10.611   0.189   5.109 -0.0839  0.2268 -0.0340
  696POPI    C210072  10.565  -0.136   4.880 -0.0727  0.0564  0.2020
  696POPI    C310073  10.754   0.186   4.735 -0.0565 -0.0525 -0.0229
  696POPI   PO410074  10.384   0.179   5.301  0.0848  0.1031 -0.1380
  696POPI   GL110075  10.338   0.246   5.750  0.0274  0.5640 -0.2705
  696POPI   GL210076  10.003   0.460   5.775  0.2581 -0.3494 -0.1924
  696POPI   C1A10077  10.445   0.673   5.685  0.1424  0.2503  0.3101
  696POPI   D2A10078  10.174   1.000   5.482  0.3026 -0.2989  0.0853
  696POPI   C3A10079   9.733   1.028   5.654 -0.5577  0.1321  0.2649
  696POPI   C4A10080   9.820   1.358   5.924 -0.1399  0.0837  0.3958
  696POPI   C1B10081  10.062   0.763   6.049 -0.0663 -0.1211 -0.2417
  696POPI   C2B10082  10.274   0.920   6.485  0.1616  0.0284 -0.3500
  696POPI   C3B10083  10.487   1.106   6.862 -0.3390 -0.0210 -0.0435
  696POPI   C4B10084  10.757   1.111   7.263 -0.1396  0.0727 -0.1318
  697POPI    C110085   5.219   0.005   4.572  0.0112  0.3654  0.1214
  697POPI    C210086   4.860  -0.143   4.668  0.0876 -0.1551 -0.3452
  697POPI    C310087   4.887   0.200   4.465 -0.1264  0.0650 -0.0105
  697POPI   PO410088   5.334   0.064   4.778  0.0805 -0.4085 -0.0443
  697POPI   GL110089   5.584   0.021   5.198  0.1588 -0.0044  0.2506
  697POPI   GL210090   5.380   0.275   5.227 -0.1663  0.0282  0.0001
  697POPI   C1A10091   5.576  -0.205   5.591 -0.2544 -0.2157 -0.1076
  697POPI   D2A10092   5.236  -0.228   5.861 -0.0503 -0.2368  0.0819
  697POPI   C3A10093   4.883   0.027   5.978  0.0208  0.2315  0.0080
  697POPI   C4A10094   4.532   0.160   5.994 -0.0141 -0.0052  0.0695
  697POPI   C1B10095   5.283   0.230   5.654  0.0432  0.1840 -0.2561
  697POPI   C2B10096   5.073   0.452   6.031  0.0484  0.1152  0.0200
  697POPI   C3B10097   4.746   0.406   6.356 -0.2404  0.3079  0.0183
  697POPI   C4B10098   4.368   0.171   6.471 -0.2159  0.1830 -0.1768
  698POPI    C110099   7.411   6.145   5.471 -0.1348  0.2602 -0.0494
  698POPI    C210100   7.665   5.937   5.242 -0.1829  0.1061  0.0358
  698POPI    C310101   7.420   6.206   5.076 -0.3020 -0.0903 -0.1109
  698POPI   PO410102   7.507   6.117   5.749 -0.1927  0.1709 -0.4395
  698POPI   GL110103   7.503   5.907   6.158  0.3081  0.0698 -0.0162
  698POPI   GL210104   7.711   5.710   6.160 -0.0998  0.0872 -0.1935
  698POPI   C1A10105   7.507   5.907   6.572 -0.0123 -0.0397  0.1524
  698POPI   D2A10106   7.547   5.928   6.978 -0.1464 -0.1345 -0.0781
  698POPI   C3A10107   7.754   5.857   7.313  0.3711 -0.0093 -0.2879
  698POPI   C4A10108   8.130   5.914   7.625  0.0986  0.2876 -0.1355
  698POPI   C1B10109   7.887   6.058   6.342 -0.4727  0.0769 -0.1071
  698POPI   C2B10110   8.011   6.368   6.512  0.1848  0.3105 -0.4987
  698POPI   C3B10111   8.303   6.396   6.867 -0.2443 -0.2662 -0.1485
  698POPI   C4B10112   8.389   5.988   7.162  0.0919 -0.1414  0.2203
  699POPI    C110113   0.148  12.456   5.679 -0.0626 -0.1135 -0.0336
  699POPI    C210114  -0.068  12.491   5.344 -0.1356 -0.0759  0.0172
  699POPI    C310115   0.225  12.219   5.366 -0.0915 -0.0380 -0.0980
  699POPI   PO410116  -0.037  12.446   5.941 -0.1354 -0.0107  0.4788
  699POPI   GL110117  -0.156  12.278   6.360 -0.5086  0.1645  0.0719
  699POPI   GL210118  -0.001  11.884   6.337  0.0112  0.0366 -0.3615
  699POPI   C1A10119  -0.222  12.442   6.690 -0.0902  0.0998  0.1708
  699POPI   D2A10120  -0.456  12.477   7.004 -0.0386  0.3473 -0.1265
  699POPI   C3A10121  -0.474  12.219   7.395  0.1760 -0.0289  0.0063
  699POPI   C4A10122  -0.084  12.103   7.660  0.0648  0.3102 -0.1495
  699POPI   C1B10123   0.138  12.096   6.837 -0.2354 -0.0509 -0.2291
  699POPI   C2B10124   0.039  12.404   7.208 -0.1942 -0.0826  0.2287
  699POPI   C3B10125  -0.212  12.601   7.577 -0.2345  0.0181  0.1116
  699POPI   C4B10126  -0.383  12.354   7.948  0.1510 -0.1927  0.1366
  700POPI    C110127   5.638   1.576   4.804  0.1431 -0.0001  0.0099
  700POPI    C210128   6.009   1.668   4.687  0.0496  0.3938  0.0089
  700POPI    C310129   5.709   1.670   4.422  0.0655 -0.0682 -0.0217
  700POPI   PO410130   5.833   1.382   5.076  0.0816 -0.2024 -0.0291
  700POPI   GL110131   5.552   1.510   5.317  0.0762  0.1091  0.1160
  700POPI   GL210132   5.339   1.253   5.317  0.0350 -0.0701 -0.1825
  700POPI   C1A10133   5.378   1.805   5.612 -0.1988  0.0771 -0.0719
  700POPI   D2A10134   5.536   1.900   6.053  0.1027  0.2786  0.0831
  700POPI   C3A10135   5.254   1.924   6.376  0.2980  0.0961  0.4156
  700POPI   C4A10136   5.390   1.804   6.790 -0.0323  0.1000  0.0895
  700POPI   C1B10137   5.474   1.320   5.728 -0.2228 -0.2145  0.0587
  700POPI   C2B10138   5.627   1.040   5.941  0.3220 -0.2805 -0.0765
  700POPI   C3B10139   5.469   0.748   6.226  0.0600  0.0104 -0.0304
  700POPI   C4B10140   5.189   0.600   6.647 -0.2861 -0.4855 -0.0069
  701POPI    C110141  10.177  17.171   5.342  0.2043  0.0197  0.1322
  701POPI    C210142  10.440  17.463   5.418  0.1752  0.0705  0.0389
  701POPI    C310143  10.372  17.347   5.041  0.3326 -0.1924  0.0888
  701POPI   PO410144  10.109  17.162   5.690  0.0460  0.0167  0.1026
  701POPI   GL110145  10.296  16.893   5.916  0.0110 -0.0036  0.3510
  701POPI   GL210146  10.403  16.653   6.140 -0.2566 -0.1458  0.1535
  701POPI   C1A10147   9.979  16.984   6.303 -0.2617 -0.2589  0.1993
  701POPI   D2A10148   9.543  16.879   6.393  0.4066 -0.0832  0.3208
  701POPI   C3A10149   9.452  16.924   6.765 -0.1864 -0.2414 -0.2513
  701POPI   C4A10150   9.648  16.837   7.120 -0.2554 -0.1531 -0.1596
  701POPI   C1B10151  10.121  16.400   6.131 -0.2074 -0.0603 -0.0478
  701POPI   C2B10152   9.680  16.285   6.251  0.0905  0.1942 -0.0703
  701POPI   C3B10153   9.352  16.432   6.463  0.2668 -0.2228 -0.2570
  701POPI   C4B10154   8.938  16.407   6.400 -0.4109 -0.0419  0.0987
  702POPI    C110155  11.202  10.562   5.177 -0.0909 -0.1195 -0.1762
  702POPI    C210156  11.322  10.379   4.842  0.0112  0.0835 -0.2526
  702POPI    C310157  11.592  10.534   5.094 -0.0552 -0.2439  0.0282
  702POPI   PO410158  11.077  10.337   5.450 -0.0833  0.1632  0.0879
  702POPI   GL110159  11.079  10.315   5.884 -0.2340 -0.1332 -0.1431
  702POPI   GL210160  10.920   9.916   5.913  0.3679  0.0998 -0.0816
  702POPI   C1A10161  11.435  10.118   6.075  0.2654 -0.1867  0.1898
  702POPI   D2A10162  11.215   9.947   6.450  0.0300 -0.3303 -0.0548
  702POPI   C3A10163  11.446   9.976   6.825 -0.0303 -0.3857  0.1617
  702POPI   C4A10164  11.482  10.382   7.006  0.0530 -0.0331 -0.0051
  702POPI   C1B10165  10.777  10.036   6.246  0.0079  0.0108  0.0721
  702POPI   C2B10166  10.687   9.783   6.704 -0.1249 -0.0438 -0.2445
  702POPI   C3B10167  10.692   9.414   6.841  0.1985 -0.1353  0.1612
  702POPI   C4B10168  10.739   9.504   7.379  0.4520  0.1499  0.2029
  703POPI    C110169  12.979  11.001   5.384  0.1224 -0.1066  0.0873
  703POPI    C210170  13.256  10.775   5.204  0.1572  0.0444 -0.0512
  703POPI    C310171  13.270  11.174   5.170 -0.0200  0.0580  0.0236
  703POPI   PO410172  12.937  10.967   5.667 -0.2285  0.1239  0.1864
  703POPI   GL110173  12.609  10.840   5.959  0.1170  0.0802  0.2417
  703POPI   GL210174  12.434  10.620   5.786  0.1011  0.2978 -0.0066
  703POPI   C1A10175  12.605  11.143   6.227  0.0680  0.0011 -0.2462
  703POPI   D2A10176  12.750  11.573   6.217 -0.1861  0.0799  0.0118
  703POPI   C3A10177  12.963  11.775   6.593 -0.2853 -0.0655 -0.0381
  703POPI   C4A10178  13.263  11.892   6.777 -0.2859  0.2183  0.0878
  703POPI   C1B10179  12.104  10.518   6.088 -0.3073 -0.2726 -0.1633
  703POPI   C2B10180  11.775  10.637   6.238  0.0553 -0.1660 -0.6146
  703POPI   C3B10181  11.407  10.714   5.984  0.1398  0.0029 -0.1711
  703POPI   C4B10182  11.154  11.092   6.063  0.4378  0.2161  0.3454
  704POPI    C110183   7.646  15.397   5.140 -0.0673  0.0512 -0.0578
  704POPI    C210184   7.765  15.611   4.824 -0.0021 -0.0089 -0.0742
  704POPI    C310185   7.918  15.247   4.888  0.0656  0.0467  0.0865
  704POPI   PO410186   7.656  15.556   5.315  0.1535  0.1383  0.1985
  704POPI   GL110187   7.912  15.599   5.740  0.0437 -0.2327 -0.0317
  704POPI   GL210188   8.098  15.323   5.777 -0.1087  0.1408  0.0577
  704POPI   C1A10189   7.791  15.676   6.186 -0.1329  0.0687  0.2640
  704POPI   D2A10190   7.919  15.891   6.457  0.0536  0.3123  0.6015
  704POPI   C3A10191   8.179  15.837   6.852 -0.1196  0.2478 -0.2692
  704POPI   C4A10192   8.560  15.834   7.045 -0.0882  0.1702  0.3139
  704POPI   C1B10193   7.929  15.100   6.115  0.2215 -0.0077  0.0598
  704POPI   C2B10194   7.847  15.222   6.425  0.1751  0.0632 -0.0826
  704POPI   C3B10195   7.763  15.507   6.748 -0.0960  0.0217  0.1395
  704POPI   C4B10196   7.798  15.766   7.126 -0.0331  0.1734 -0.0379
  705POPI    C110197  12.870  18.635   5.573  0.1341 -0.0656  0.1052
  705POPI    C210198  12.621  18.376   5.397 -0.0019  0.0146  0.1775
  705POPI    C310199  12.990  18.431   5.251  0.1040 -0.3759  0.2863
  705POPI   PO410200  12.706  18.647   5.803 -0.0041 -0.1573 -0.3557
  705POPI   GL110201  12.685  18.885   6.167  0.0995  0.5654  0.1032
  705POPI   GL210202  12.853  19.218   6.159  0.1260 -0.0698 -0.2039
  705POPI   C1A10203  12.681  18.727   6.544 -0.2169  0.2594 -0.3922
  705POPI   D2A10204  12.831  18.456   6.725 -0.0435  0.1047  0.0944
  705POPI   C3A10205  12.493  18.165   6.916 -0.2560 -0.2572 -0.3218
  705POPI   C4A10206  12.001  18.069   6.866 -0.1114 -0.0696  0.0799
  705POPI   C1B10207  12.614  19.311   6.447 -0.4943  0.0735  0.0618
  705POPI   C2B10208  12.540  19.253   6.859 -0.0466  0.3168  0.2864
  705POPI   C3B10209  12.654  18.892   7.015 -0.5649  0.2551  0.1080
  705POPI   C4B10210  12.974  18.565   7.228  0.2037 -0.0281 -0.2507
  706POPI    C110211   5.557  13.833   5.227 -0.0522 -0.0010 -0.0502
  706POPI    C210212   5.490  13.689   4.860 -0.2391  0.1177 -0.0637
  706POPI    C310213   5.635  14.059   4.906 -0.0537  0.0407 -0.0213
  706POPI   PO410214   5.321  13.749   5.372 -0.1632  0.1526 -0.0162
  706POPI   GL110215   5.316  13.976   5.765 -0.2985  0.1945 -0.0719
  706POPI   GL210216   5.515  14.070   5.745  0.1289 -0.4928  0.1733
  706POPI   C1A10217   5.423  13.927   6.261  0.2069 -0.1946  0.1161
  706POPI   D2A10218   5.330  13.974   6.739 -0.0948  0.0174 -0.2893
  706POPI   C3A10219   4.989  14.133   6.882 -0.4457  0.1934  0.2540
  706POPI   C4A10220   4.738  14.389   6.690  0.5704  0.1511 -0.1376
  706POPI   C1B10221   5.587  14.381   6.089 -0.0565  0.1572 -0.0560
  706POPI   C2B10222   5.628  14.353   6.519  0.3736  0.3667 -0.0372
  706POPI   C3B10223   5.710  14.294   6.906  0.1604 -0.0038 -0.1876
  706POPI   C4B10224   5.961  14.454   7.293 -0.1573 -0.0513 -0.1723
  707POPI    C110225   8.641   4.594   4.892 -0.1158  0.1933  0.0685
  707POPI    C210226   8.919   4.534   4.611 -0.0011 -0.0675  0.2340
  707POPI    C310227   8.620   4.791   4.545  0.1036 -0.0201 -0.0688
  707POPI   PO410228   8.742   4.324   5.026  0.0776 -0.1694 -0.4358
  707POPI   GL110229   8.683   4.259   5.469  0.1249  0.1050  0.2467
  707POPI   GL210230   8.907   4.231   5.809 -0.0439  0.2316  0.1492
  707POPI   C1A10231   8.431   4.043   5.844  0.1998  0.2140  0.1421
  707POPI   D2A10232   8.247   3.836   6.165 -0.1889 -0.0869  0.0075
  707POPI   C3A10233   8.130   4.069   6.543 -0.0462  0.0854 -0.1367
  707POPI   C4A10234   8.140   4.071   7.013 -0.2575 -0.1375  0.0017
  707POPI   C1B10235   9.020   4.167   6.167 -0.0166  0.1768 -0.0604
  707POPI   C2B10236   9.086   3.996   6.677 -0.3589 -0.0598  0.0874
  707POPI   C3B10237   9.158   3.810   7.087 -0.3036  0.4049 -0.2383
  707POPI   C4B10238   9.469   3.591   7.156 -0.0697  0.0754 -0.1201
  708POPI    C110239  18.570   9.181   5.492 -0.0045 -0.0719 -0.0746
  708POPI    C210240  18.358   9.443   5.276 -0.0650 -0.0951 -0.0439
  708POPI    C310241  18.699   9.292   5.130 -0.0634 -0.0486 -0.0885
  708POPI   PO410242  18.324   9.011   5.582  0.1076 -0.1960 -0.0217
  708POPI   GL110243  18.131   8.955   6.002 -0.2780  0.1367  0.0882
  708POPI   GL210244  18.122   9.300   6.178  0.0508  0.0930 -0.0305
  708POPI   C1A10245  17.693   8.841   6.229  0.0557  0.2411  0.3878
  708POPI   D2A10246  17.356   8.832   6.461  0.1555 -0.1737  0.2565
  708POPI   C3A10247  17.214   8.523   6.843 -0.1226  0.2748  0.1093
  708POPI   C4A10248  17.410   8.432   7.186 -0.3775 -0.0536 -0.2361
  708POPI   C1B10249  17.987   9.184   6.540  0.1280  0.0386  0.1253
  708POPI   C2B10250  17.867   9.286   6.867  0.3374 -0.2480 -0.1038
  708POPI   C3B10251  17.662   9.039   7.296  0.0910 -0.1494  0.0704
  708POPI   C4B10252  17.259   8.711   7.574 -0.2394  0.3619  0.0944
  709POPI    C110253  18.896  15.059   5.627 -0.1228  0.1116 -0.1435
  709POPI    C210254  18.728  15.329   5.385 -0.0650  0.1051 -0.1911
  709POPI    C310255  19.000  15.074   5.241  0.0475  0.1706 -0.0966
  709POPI   PO410256  19.020  15.144   5.824 -0.0427  0.1488 -0.1294
  709POPI   GL110257  19.099  14.908   6.255 -0.3916  0.0859  0.0243
  709POPI   GL210258  18.930  14.553   6.255 -0.0580  0.1122  0.2642
  709POPI   C1A10259  19.503  14.644   6.308  0.2173  0.1033 -0.1351
  709POPI   D2A10260  19.587  14.316   6.539  0.1693  0.1281 -0.2164
  709POPI   C3A10261  19.811  14.094   6.923 -0.3994  0.1456  0.0579
  709POPI   C4A10262  19.860  13.564   6.973 -0.0096 -0.2427 -0.1769
  709POPI   C1B10263  19.086  14.354   6.630  0.2735  0.0729 -0.0124
  709POPI   C2B10264  19.023  14.060   6.922 -0.0688  0.0183  0.2900
  709POPI   C3B10265  18.938  13.688   7.072 -0.1018 -0.1396 -0.1387
  709POPI   C4B10266  18.851  13.451   6.769 -0.1757 -0.2430  0.1893
  710POPI    C110267   0.666   8.692   5.671  0.1015  0.2585  0.0996
  710POPI    C210268   0.546   8.520   5.330 -0.0533  0.1681  0.1980
  710POPI    C310269   0.908   8.691   5.352 -0.0394  0.1684 -0.0084
  710POPI   PO410270   0.618   8.436   5.887  0.1743 -0.0370  0.0176
  710POPI   GL110271   0.567   8.485   6.397  0.1502 -0.4311 -0.3126
  710POPI   GL210272   0.304   8.253   6.270 -0.1181 -0.2483 -0.0226
  710POPI   C1A10273   0.707   8.159   6.689  0.1204 -0.1571  0.5126
  710POPI   D2A10274   0.595   7.967   7.039 -0.2107 -0.3211 -0.2670
  710POPI   C3A10275   0.792   8.071   7.359 -0.2316  0.0388 -0.3049
  710POPI   C4A10276   1.034   8.408   7.210 -0.1908  0.3063  0.1499
  710POPI   C1B10277   0.248   8.374   6.753  0.1039 -0.2105 -0.3035
  710POPI   C2B10278   0.371   8.378   7.162 -0.0826 -0.2229 -0.0554
  710POPI   C3B10279   0.558   8.618   7.351  0.2118  0.3614  0.0195
  710POPI   C4B10280   0.739   8.989   7.399  0.1491  0.1679 -0.0380
  711POPI    C110281   3.114  10.623   5.351  0.0553 -0.0119  0.2644
  711POPI    C210282   3.179  10.984   5.510  0.1722  0.1934 -0.2300
  711POPI    C310283   2.896  10.937   5.232 -0.0385 -0.1616  0.0355
  711POPI   PO410284   3.202  10.448   5.553  0.0870 -0.0499  0.0336
  711POPI   GL110285   3.330  10.571   6.086 -0.0069  0.1470 -0.1136
  711POPI   GL210286   3.242  10.711   6.420  0.1098  0.2552 -0.1425
  711POPI   C1A10287   3.305  10.214   6.368  0.1558 -0.1924 -0.2591
  711POPI   D2A10288   3.335  10.240   6.817 -0.1602 -0.0583  0.1050
  711POPI   C3A10289   3.151   9.806   6.894  0.2544 -0.0092 -0.1840
  711POPI   C4A10290   2.969   9.544   6.532 -0.2266  0.0754  0.0255
  711POPI   C1B10291   3.354  10.723   6.878  0.1386  0.0989 -0.1805
  711POPI   C2B10292   3.659  10.494   7.230  0.1694 -0.0912  0.0695
  711POPI   C3B10293   3.506  10.196   7.274 -0.0309  0.0869 -0.0965
  711POPI   C4B10294   3.259   9.917   7.546 -0.2813 -0.0135  0.1307
  712POPI    C110295   9.626  11.875   4.844 -0.0392 -0.1140 -0.0537
  712POPI    C210296   9.346  11.593   4.797 -0.2856  0.1076  0.0503
  712POPI    C310297   9.486  11.792   4.479 -0.0989 -0.1381 -0.0256
  712POPI   PO410298   9.578  11.898   5.121 -0.1093 -0.0844 -0.1911
  712POPI   GL110299   9.500  11.906   5.528  0.1428  0.3164  0.1678
  712POPI   GL210300   9.748  11.820   5.845  0.1767  0.1004  0.0101
  712POPI   C1A10301   9.144  12.097   5.747  0.2203  0.0358  0.2737
  712POPI   D2A10302   9.208  12.416   5.960  0.2400  0.0661  0.2836
  712POPI   C3A10303   8.943  12.829   6.118  0.2857  0.2348  0.1179
  712POPI   C4A10304   8.913  13.244   6.229 -0.4772 -0.1677 -0.1175
  712POPI   C1B10305   9.559  12.054   6.044 -0.2978  0.1555  0.0970
  712POPI   C2B10306   9.435  12.108   6.567  0.3701  0.1776 -0.0184
  712POPI   C3B10307   9.307  11.881   6.926  0.0627  0.2187  0.4730
  712POPI   C4B10308   9.438  11.654   7.180 -0.0551 -0.2515 -0.0428
  713POPI    C110309  12.902  15.298   5.329  0.0286 -0.1085 -0.4176
  713POPI    C210310  12.764  15.660   5.228  0.0096 -0.0368 -0.1419
  713POPI    C310311  12.586  15.332   5.085 -0.0762  0.0608 -0.2615
  713POPI   PO410312  12.983  15.370   5.553 -0.1581  0.3039  0.2399
  713POPI   GL110313  12.788  15.212   5.927 -0.1866 -0.1202  0.2899
  713POPI   GL210314  13.094  15.219   6.089  0.4052 -0.0393  0.0206
  713POPI   C1A10315  12.478  15.319   6.212 -0.1107 -0.0192 -0.0343
  713POPI   D2A10316  12.754  15.323   6.449 -0.0494 -0.1680  0.4424
  713POPI   C3A10317  12.671  15.626   6.829 -0.2461 -0.2469 -0.0343
  713POPI   C4A10318  12.348  15.744   6.931  0.0006 -0.2858  0.2090
  713POPI   C1B10319  12.875  14.805   6.222 -0.1414  0.1769 -0.2631
  713POPI   C2B10320  12.755  14.777   6.629  0.0076  0.2249  0.0671
  713POPI   C3B10321  12.553  14.614   6.902  0.2431 -0.3602  0.0035
  713POPI   C4B10322  12.361  14.672   7.265  0.2434  0.0385 -0.1315
  714POPI    C110323  19.000  10.549   5.636 -0.0171  0.0666 -0.0509
  714POPI    C210324  19.318  10.330   5.532  0.0237  0.1829 -0.1750
  714POPI    C310325  19.049  10.436   5.255 -0.1034  0.1176 -0.0775
  714POPI   PO410326  19.069  10.741   5.756 -0.4142 -0.0651 -0.0229
  714POPI   GL110327  18.784  11.021   5.988  0.0900 -0.2355 -0.0843
  714POPI   GL210328  18.911  11.309   6.038 -0.1135  0.0266 -0.0786
  714POPI   C1A10329  18.418  11.097   6.301  0.2108  0.3537  0.0133
  714POPI   D2A10330  17.971  11.288   6.327  0.1851 -0.1298 -0.0364
  714POPI   C3A10331  17.879  11.339   6.773 -0.1382 -0.3281  0.2222
  714POPI   C4A10332  17.775  11.427   7.310 -0.3227 -0.3228  0.3643
  714POPI   C1B10333  18.858  11.183   6.525 -0.0845  0.0302  0.2584
  714POPI   C2B10334  18.386  11.323   6.784 -0.1323 -0.0437  0.0041
  714POPI   C3B10335  18.184  11.664   7.021  0.0829 -0.1379  0.3193
  714POPI   C4B10336  17.863  12.030   7.051 -0.2692  0.2679 -0.0500
  715POPI    C110337   6.061   7.798   5.130  0.1397  0.2685  0.1103
  715POPI    C210338   6.339   8.055   5.002  0.2091  0.1173 -0.0449
  715POPI    C310339   5.955   8.166   5.014  0.2314  0.2097 -0.1666
  715POPI   PO410340   6.205   7.731   5.403 -0.0250  0.1822  0.0532
  715POPI   GL110341   5.961   7.660   5.783  0.2355 -0.1325  0.1776
  715POPI   GL210342   5.903   7.977   5.817 -0.2641  0.0979 -0.4121
  715POPI   C1A10343   6.042   7.404   6.065 -0.0093 -0.1446 -0.1362
  715POPI   D2A10344   6.143   7.181   6.457 -0.1833  0.1463  0.4389
  715POPI   C3A10345   6.177   7.376   6.891  0.1887  0.4234  0.1339
  715POPI   C4A10346   5.830   7.565   7.174  0.0333 -0.0890 -0.0451
  715POPI   C1B10347   5.971   7.940   6.320 -0.1040 -0.3054  0.0739
  715POPI   C2B10348   6.118   8.088   6.716 -0.1194 -0.1610  0.1568
  715POPI   C3B10349   6.207   7.958   7.140  0.0414 -0.0005 -0.0964
  715POPI   C4B10350   6.117   7.853   7.567 -0.1124 -0.0158 -0.2824
  716POPI    C110351  16.395   5.795   5.428  0.2238  0.1289  0.0626
  716POPI    C210352  16.355   5.450   5.627  0.1895  0.0767 -0.0338
  716POPI    C310353  16.316   5.457   5.229  0.1463  0.1997 -0.0280
  716POPI   PO410354  16.623   5.905   5.526  0.1537  0.2499 -0.1040
  716POPI   GL110355  16.710   6.361   5.865  0.0881  0.1685 -0.0496
  716POPI   GL210356  16.575   6.541   5.665  0.1835  0.2370 -0.0648
  716POPI   C1A10357  16.554   6.178   6.130 -0.1709 -0.0890  0.2333
  716POPI   D2A10358  16.745   5.974   6.449 -0.1428  0.0315  0.0315
  716POPI   C3A10359  16.566   5.997   6.839  0.3734 -0.4004 -0.0733
  716POPI   C4A10360  16.650   5.936   7.196 -0.0002  0.1855 -0.1984
  716POPI   C1B10361  16.271   6.595   5.968 -0.2284 -0.1368  0.0285
  716POPI   C2B10362  16.073   6.283   6.205  0.1263 -0.1143 -0.1670
  716POPI   C3B10363  16.226   6.283   6.599  0.0585  0.0518  0.0395
  716POPI   C4B10364  16.267   6.259   7.101 -0.1642  0.4558 -0.0596
  717POPI    C110365   5.003  14.862   5.167 -0.0488  0.1845 -0.0714
  717POPI    C210366   5.243  14.926   4.853  0.1667  0.1801  0.0901
  717POPI    C310367   4.866  14.807   4.796  0.2351  0.0799 -0.1635
  717POPI   PO410368   5.166  14.749   5.313 -0.1364 -0.2097  0.0273
  717POPI   GL110369   5.246  14.728   5.779 -0.1172 -0.2216 -0.0564
  717POPI   GL210370   5.109  14.522   5.861 -0.3809 -0.1775 -0.1877
  717POPI   C1A10371   5.181  14.897   6.237  0.3509  0.0809  0.1924
  717POPI   D2A10372   5.303  15.343   6.435  0.2675 -0.3677 -0.0268
  717POPI   C3A10373   5.100  15.490   6.792 -0.0042  0.3686 -0.1157
  717POPI   C4A10374   4.867  15.807   6.968 -0.2499 -0.0380  0.0511
  717POPI   C1B10375   5.100  14.370   6.312  0.0160  0.2989 -0.2922
  717POPI   C2B10376   5.240  14.606   6.664  0.1040  0.1264  0.1300
  717POPI   C3B10377   5.365  14.595   6.996 -0.0639 -0.1745  0.1543
  717POPI   C4B10378   5.531  14.811   7.264 -0.1736 -0.0555  0.1389
  718POPI    C110379  18.541   5.917   4.868 -0.3353 -0.0615 -0.1901
  718POPI    C210380  18.324   6.078   5.163 -0.0521  0.0323 -0.0293
  718POPI    C310381  18.591   6.302   4.966  0.0262 -0.1264 -0.1060
  718POPI   PO410382  18.574   5.560   5.112 -0.1720 -0.1236 -0.1008
  718POPI   GL110383  18.653   5.397   5.519  0.1505  0.1016  0.0048
  718POPI   GL210384  18.491   5.733   5.646 -0.2089 -0.0928 -0.1229
  718POPI   C1A10385  19.011   5.199   5.692  0.5767 -0.0567 -0.2524
  718POPI   D2A10386  19.371   5.125   5.959 -0.2330  0.1612 -0.3344
  718POPI   C3A10387  19.307   5.185   6.344 -0.1656  0.2116  0.2191
  718POPI   C4A10388  19.318   5.255   6.801 -0.2985  0.4004 -0.2315
  718POPI   C1B10389  18.571   5.435   5.972  0.0474  0.2595  0.0847
  718POPI   C2B10390  18.796   5.121   6.192  0.0778  0.2071  0.1889
  718POPI   C3B10391  18.838   5.164   6.600 -0.2552 -0.3403 -0.1403
  718POPI   C4B10392  18.755   5.152   7.046 -0.0247  0.1609  0.1149
  719POPI    C110393  10.554   3.008   4.651  0.1209 -0.2473  0.1297
  719POPI    C210394  10.696   2.638   4.604  0.3994 -0.1189 -0.0650
  719POPI    C310395  10.789   2.923   4.339  0.0986  0.0657  0.0236
  719POPI   PO410396  10.403   2.900   4.970 -0.0299 -0.2079 -0.0439
  719POPI   GL110397  10.439   3.149   5.352  0.1016  0.1689  0.0475
  719POPI   GL210398  10.205   3.198   5.478 -0.1979  0.1898  0.0023
  719POPI   C1A10399  10.720   3.078   5.548  0.0724 -0.1906 -0.3507
  719POPI   D2A10400  10.887   2.821   5.670 -0.0304  0.1318 -0.1698
  719POPI   C3A10401  11.109   3.054   5.930 -0.2575  0.1207 -0.2925
  719POPI   C4A10402  11.226   3.514   5.975  0.0621  0.2105  0.2458
  719POPI   C1B10403  10.284   2.907   5.744  0.0243 -0.0592 -0.2842
  719POPI   C2B10404  10.563   3.052   6.030  0.1543 -0.0754  0.0184
  719POPI   C3B10405  10.666   3.363   6.123  0.4309 -0.0855 -0.1817
  719POPI   C4B10406  10.615   3.613   6.531  0.0802 -0.0660 -0.0828
  720POPI    C110407   7.274  17.880   5.157  0.1159  0.0411  0.1822
  720POPI    C210408   6.903  17.781   5.271  0.1190 -0.1766  0.0101
  720POPI    C310409   7.080  18.105   5.425 -0.1196 -0.1047  0.1374
  720POPI   PO410410   7.515  17.660   5.223 -0.0419  0.0266 -0.0044
  720POPI   GL110411   7.691  17.511   5.677 -0.4553 -0.1792 -0.1449
  720POPI   GL210412   7.996  17.578   5.466 -0.0424  0.1310 -0.0708
  720POPI   C1A10413   7.756  17.221   5.899 -0.3961  0.3099 -0.0628
  720POPI   D2A10414   7.429  17.033   6.001 -0.2014 -0.1835 -0.1033
  720POPI   C3A10415   7.149  17.145   6.365 -0.4215 -0.1229 -0.2196
  720POPI   C4A10416   7.301  17.420   6.700  0.1998  0.2532  0.0631
  720POPI   C1B10417   8.234  17.343   5.967  0.3293  0.4064 -0.1810
  720POPI   C2B10418   8.608  17.277   6.308  0.0064 -0.0666  0.1168
  720POPI   C3B10419   8.556  17.549   6.618  0.0763  0.0661 -0.3297
  720POPI   C4B10420   8.248  17.495   6.895 -0.0455 -0.2182 -0.0471
  721POPI    C110421  18.806  10.093   5.715  0.1365 -0.0706 -0.0734
  721POPI    C210422  18.660   9.781   5.512  0.0517 -0.1022  0.0349
  721POPI    C310423  18.571  10.153   5.397  0.2662 -0.1141 -0.1780
  721POPI   PO410424  19.021   9.866   5.843  0.2532  0.0614 -0.2135
  721POPI   GL110425  19.279   9.967   6.202 -0.2751 -0.0457  0.2893
  721POPI   GL210426  19.145  10.311   6.042 -0.0985 -0.0668 -0.0720
  721POPI   C1A10427  19.475  10.095   6.526 -0.2555 -0.2360  0.1209
  721POPI   D2A10428  19.843  10.041   6.842  0.2665  0.1014 -0.0069
  721POPI   C3A10429  19.805   9.690   7.156 -0.1611  0.0699 -0.0207
  721POPI   C4A10430  20.098   9.482   7.423 -0.0154 -0.1728 -0.0371
  721POPI   C1B10431  19.084  10.359   6.509 -0.0672  0.1374 -0.1251
  721POPI   C2B10432  19.003  10.464   6.866 -0.0397  0.3273 -0.0627
  721POPI   C3B10433  19.104  10.438   7.232  0.2965 -0.2372 -0.0880
  721POPI   C4B10434  18.955  10.288   7.669  0.2310 -0.3812  0.3447
  722POPI    C110435  18.179   3.735   4.708 -0.0474  0.0942  0.1767
  722POPI    C210436  18.156   4.127   4.785 -0.0219  0.1451 -0.0651
  722POPI    C310437  18.513   3.950   4.755 -0.0340  0.0865  0.1180
  722POPI   PO410438  17.975   3.526   4.961 -0.3460 -0.0400 -0.3289
  722POPI   GL110439  17.909   3.499   5.312 -0.0057 -0.3717 -0.3436
  722POPI   GL210440  17.903   3.120   5.359  0.0319 -0.0308 -0.1300
  722POPI   C1A10441  18.213   3.443   5.622  0.0034  0.0586  0.2301
  722POPI   D2A10442  18.396   3.461   5.967  0.1288 -0.2727 -0.1577
  722POPI   C3A10443  18.405   3.329   6.463 -0.2233 -0.1632 -0.0838
  722POPI   C4A10444  18.147   3.111   6.678 -0.1551  0.1977  0.0466
  722POPI   C1B10445  17.997   2.968   5.847 -0.0109 -0.1638  0.2402
  722POPI   C2B10446  17.989   2.654   6.177 -0.0108  0.1102 -0.2941
  722POPI   C3B10447  17.706   2.501   6.522 -0.3818  0.1865 -0.0487
  722POPI   C4B10448  17.342   2.466   6.769  0.0053 -0.1231 -0.1062
  723POPI    C110449  18.019   5.737   5.313 -0.1225  0.6059 -0.0902
  723POPI    C210450  17.970   5.634   4.929  0.0394 -0.2597  0.0996
  723POPI    C310451  17.651   5.717   5.156 -0.1021 -0.3150 -0.0766
  723POPI   PO410452  18.141   5.542   5.388 -0.1659 -0.4478 -0.2197
  723POPI   GL110453  17.930   5.200   5.653 -0.1141  0.0400  0.1246
  723POPI   GL210454  18.195   5.160   5.718  0.0145  0.3565 -0.1088
  723POPI   C1A10455  17.820   5.196   6.138  0.1095  0.1535  0.1963
  723POPI   D2A10456  17.854   5.085   6.562  0.1646  0.1507  0.0117
  723POPI   C3A10457  17.688   5.305   6.794  0.0686  0.3093 -0.0755
  723POPI   C4A10458  17.328   5.163   7.067 -0.1246  0.0978 -0.0149
  723POPI   C1B10459  18.276   5.063   6.190  0.1217 -0.0667  0.0841
  723POPI   C2B10460  18.367   5.112   6.605  0.1976 -0.0457 -0.0910
  723POPI   C3B10461  18.142   5.123   6.956 -0.2324  0.1414 -0.0482
  723POPI   C4B10462  18.295   5.179   7.387 -0.2750  0.1591 -0.0619
  724POPI    C110463  17.704   2.279   5.095  0.0051  0.2627  0.1405
  724POPI    C210464  18.037   2.272   4.874  0.0996 -0.0019  0.2861
  724POPI    C310465  17.682   2.333   4.700  0.1852 -0.0857  0.0793
  724POPI   PO410466  17.806   2.176   5.330 -0.3268  0.0867 -0.0423
  724POPI   GL110467  17.854   1.885   5.662  0.2409  0.0997 -0.1410
  724POPI   GL210468  18.171   1.864   5.691 -0.0284 -0.3693 -0.2646
  724POPI   C1A10469  17.437   1.700   5.935 -0.2120 -0.3279  0.1513
  724POPI   D2A10470  17.053   1.860   6.075  0.0371  0.1070  0.4175
  724POPI   C3A10471  17.086   2.243   6.400 -0.2204 -0.1335  0.1098
  724POPI   C4A10472  17.206   2.662   6.267 -0.0586 -0.0338 -0.0014
  724POPI   C1B10473  18.499   1.901   5.942 -0.2902  0.1138  0.1633
  724POPI   C2B10474  18.544   1.745   6.369 -0.0173  0.0986 -0.1481
  724POPI   C3B10475  18.336   1.454   6.579 -0.0681  0.4239 -0.3132
  724POPI   C4B10476  18.001   1.454   6.900 -0.0617  0.1081  0.0424
  725POPI    C110477  12.335   5.106   4.885 -0.0046 -0.1367 -0.1910
  725POPI    C210478  11.994   5.271   4.754  0.0547  0.0391 -0.1264
  725POPI    C310479  12.339   5.346   4.565  0.0346 -0.2730 -0.2939
  725POPI   PO410480  12.264   5.116   5.134 -0.0133  0.0941  0.0323
  725POPI   GL110481  12.184   4.895   5.494  0.0798 -0.0415  0.1090
  725POPI   GL210482  12.112   5.001   5.727 -0.3953 -0.2877  0.4407
  725POPI   C1A10483  12.425   4.608   5.775 -0.2914  0.1908 -0.2271
  725POPI   D2A10484  12.451   4.221   6.005 -0.1081 -0.0483  0.0461
  725POPI   C3A10485  12.885   4.047   6.166 -0.0489 -0.1009 -0.0233
  725POPI   C4A10486  13.260   4.151   6.439 -0.2804  0.0941 -0.0461
  725POPI   C1B10487  12.210   4.763   6.151 -0.1340  0.4783  0.2143
  725POPI   C2B10488  12.588   4.617   6.319  0.2059  0.1400  0.4711
  725POPI   C3B10489  12.930   4.501   6.654  0.0498  0.0908  0.0165
  725POPI   C4B10490  13.164   4.581   6.899  0.3245  0.1684  0.4294
  726POPI    C110491  18.693  17.987   5.430  0.0340 -0.2594  0.3534
  726POPI    C210492  18.705  18.386   5.448 -0.0683 -0.2333 -0.0574
  726POPI    C310493  19.040  18.179   5.382 -0.0532 -0.2011 -0.0815
  726POPI   PO410494  18.561  17.941   5.660 -0.1174  0.2514  0.2713
  726POPI   GL110495  18.713  17.949   6.112  0.3923 -0.0278 -0.1005
  726POPI   GL210496  18.420  17.882   6.116  0.2670  0.0011  0.1155
  726POPI   C1A10497  18.837  17.651   6.418 -0.1097  0.0270  0.5455
  726POPI   D2A10498  18.934  17.620   6.923 -0.6911 -0.0422 -0.2596
  726POPI   C3A10499  19.002  18.086   7.186  0.0356  0.2517  0.3870
  726POPI   C4A10500  18.603  18.269   7.384  0.1148  0.3313  0.0068
  726POPI   C1B10501  18.183  17.877   6.548  0.1959  0.1214 -0.2026
  726POPI   C2B10502  18.150  18.228   6.816  0.4210  0.0729 -0.3165
  726POPI   C3B10503  17.912  18.435   7.126  0.2567 -0.2609  0.0271
  726POPI   C4B10504  17.741  18.472   7.542  0.0129  0.0987  0.1795
  727POPI    C110505  10.519   4.334   5.072 -0.0477  0.0291 -0.1784
  727POPI    C210506  10.459   3.965   4.928  0.0196  0.0292 -0.2068
  727POPI    C310507  10.236   4.270   4.796 -0.1332 -0.0257 -0.0789
  727POPI   PO410508  10.525   4.299   5.410  0.1303  0.4381 -0.1551
  727POPI   GL110509  10.691   4.356   5.825  0.4669 -0.0447 -0.0695
  727POPI   GL210510  10.381   4.538   5.851  0.0797  0.1028 -0.0892
  727POPI   C1A10511  10.721   4.601   6.206 -0.1472  0.1629 -0.0234
  727POPI   D2A10512  10.905   4.795   6.661 -0.0520 -0.0357  0.0082
  727POPI   C3A10513  10.991   4.607   7.085  0.0421  0.2549  0.0644
  727POPI   C4A10514  10.805   4.584   7.474  0.3084  0.1814 -0.2166
  727POPI   C1B10515  10.283   4.867   6.092  0.3072 -0.0643 -0.2228
  727POPI   C2B10516  10.415   5.218   6.341 -0.1091 -0.2546  0.2707
  727POPI   C3B10517  10.593   5.215   6.750 -0.0854  0.4291  0.0709
  727POPI   C4B10518  10.676   5.024   7.153  0.1954  0.2223 -0.2772
  728POPI    C110519   7.830   9.507   5.125 -0.1459  0.1480 -0.0670
  728POPI    C210520   7.548   9.490   4.841  0.0328 -0.3473 -0.2257
  728POPI    C310521   7.723   9.154   4.969  0.1986 -0.0954  0.2321
  728POPI   PO410522   7.774   9.712   5.309  0.1956  0.1479  0.1798
  728POPI   GL110523   7.450  10.061   5.487 -0.4798 -0.0269 -0.0589
  728POPI   GL210524   7.482  10.316   5.478 -0.2409  0.1021 -0.2932
  728POPI   C1A10525   7.510   9.926   5.884 -0.0913 -0.1689  0.0767
  728POPI   D2A10526   7.743   9.947   6.191  0.0007  0.0240 -0.0839
  728POPI   C3A10527   7.734  10.291   6.493  0.3263 -0.0486 -0.1858
  728POPI   C4A10528   7.542  10.425   6.916 -0.1356  0.0514  0.0430
  728POPI   C1B10529   7.617  10.434   5.941 -0.0576  0.1011 -0.0982
  728POPI   C2B10530   7.409  10.524   6.246 -0.0739  0.0807  0.1085
  728POPI   C3B10531   7.054  10.519   6.599 -0.0674  0.2759 -0.3282
  728POPI   C4B10532   6.670  10.526   6.611  0.0693 -0.3140 -0.1470
  729POPI    C110533  17.268  11.287   5.096 -0.1913  0.0660 -0.0693
  729POPI    C210534  16.996  11.254   4.805  0.0031  0.0096 -0.2473
  729POPI    C310535  17.324  11.026   4.799  0.0252  0.0322 -0.0005
  729POPI   PO410536  17.141  11.192   5.343 -0.1005  0.1408 -0.0879
  729POPI   GL110537  17.095  11.092   5.734 -0.1837 -0.2421  0.0749
  729POPI   GL210538  16.749  11.011   5.653  0.0388  0.1959 -0.0394
  729POPI   C1A10539  17.080  11.277   6.144 -0.1352 -0.1755  0.0941
  729POPI   D2A10540  17.094  11.328   6.557  0.0633  0.0897  0.0014
  729POPI   C3A10541  16.953  11.190   6.962  0.0586 -0.0535 -0.1172
  729POPI   C4A10542  16.800  11.305   7.291 -0.1630  0.2215  0.1944
  729POPI   C1B10543  16.528  11.068   6.090  0.3547 -0.2319 -0.1958
  729POPI   C2B10544  16.411  11.066   6.545 -0.1738 -0.0174  0.0164
  729POPI   C3B10545  16.079  11.215   6.963 -0.2228  0.2240 -0.0779
  729POPI   C4B10546  16.190  11.491   7.405  0.3004  0.0902 -0.0299
  730POPI    C110547   2.616  10.075   5.680 -0.0057 -0.0167  0.2174
  730POPI    C210548   2.760   9.736   5.835  0.0958 -0.0250  0.1062
  730POPI    C310549   2.760   9.791   5.439 -0.3283 -0.0798  0.0939
  730POPI   PO410550   2.496  10.186   5.893 -0.3271 -0.1615 -0.3095
  730POPI   GL110551   2.302  10.014   6.210  0.3287 -0.1258  0.2357
  730POPI   GL210552   2.366   9.790   6.234  0.1920  0.0256  0.0481
  730POPI   C1A10553   2.333  10.161   6.609 -0.4966  0.2263 -0.1081
  730POPI   D2A10554   2.711  10.296   6.805 -0.0496 -0.1471  0.0657
  730POPI   C3A10555   2.840  10.673   6.936  0.1940  0.1785  0.0248
  730POPI   C4A10556   2.911  11.063   6.948 -0.0086  0.3588  0.1352
  730POPI   C1B10557   2.440   9.664   6.646  0.2087 -0.0858 -0.3204
  730POPI   C2B10558   2.611   9.932   7.145  0.0539  0.3750  0.2052
  730POPI   C3B10559   3.032  10.151   7.196  0.1038  0.2619  0.0800
  730POPI   C4B10560   3.156  10.499   7.409  0.0107  0.1427  0.0101
  731POPI    C110561   6.686  17.175   4.763  0.1255  0.0474  0.3194
  731POPI    C210562   6.764  16.794   4.669  0.0029  0.0625  0.1537
  731POPI    C310563   7.020  17.082   4.563 -0.0526  0.0602  0.0107
  731POPI   PO410564   6.621  17.121   5.047 -0.1400 -0.1546  0.0340
  731POPI   GL110565   6.817  17.290   5.461  0.3832  0.3553 -0.1568
  731POPI   GL210566   6.466  17.596   5.417 -0.0933  0.1847  0.0081
  731POPI   C1A10567   6.986  17.325   5.826  0.1028  0.0913  0.3393
  731POPI   D2A10568   7.210  17.624   6.113  0.0439  0.2192  0.2462
  731POPI   C3A10569   7.674  17.506   6.289 -0.4620 -0.0371 -0.1406
  731POPI   C4A10570   8.080  17.574   6.377 -0.1181 -0.0703  0.0062
  731POPI   C1B10571   6.298  17.700   5.744  0.0701 -0.0058  0.3869
  731POPI   C2B10572   6.147  17.830   6.121 -0.1155 -0.1917  0.2262
  731POPI   C3B10573   6.115  17.653   6.485  0.1196  0.2216 -0.0562
  731POPI   C4B10574   6.234  17.459   6.791  0.1310  0.2272  0.0447
  732POPI    C110575  13.269   8.278   5.009 -0.2065  0.1097  0.0086
  732POPI    C210576  12.941   8.451   5.159 -0.2496  0.1661 -0.1487
  732POPI    C310577  12.925   8.265   4.806 -0.2644 -0.3701  0.1234
  732POPI   PO410578  13.398   8.117   5.248 -0.3199 -0.1680 -0.2113
  732POPI   GL110579  13.524   8.164   5.735  0.0819 -0.2464  0.0204
  732POPI   GL210580  13.768   8.192   5.712  0.0183  0.3035 -0.2892
  732POPI   C1A10581  13.660   8.143   6.227  0.3734  0.0429 -0.1903
  732POPI   D2A10582  13.787   8.180   6.721  0.0108 -0.0766  0.0268
  732POPI   C3A10583  14.124   8.140   6.898 -0.0528 -0.1184 -0.1670
  732POPI   C4A10584  14.450   8.313   7.171  0.1294  0.1468  0.4561
  732POPI   C1B10585  13.687   7.688   5.846 -0.3655 -0.2438  0.3933
  732POPI   C2B10586  13.620   7.339   5.793 -0.3510  0.3356 -0.1148
  732POPI   C3B10587  13.819   7.061   5.708 -0.0377 -0.0790 -0.3929
  732POPI   C4B10588  13.818   6.587   5.681  0.0554  0.1262  0.2987
  733POPI    C110589  16.439  10.298   5.298 -0.0534  0.0900  0.1827
  733POPI    C210590  16.490  10.695   5.283 -0.0992  0.0857 -0.1783
  733POPI    C310591  16.509  10.478   4.947 -0.0355 -0.2245  0.0214
  733POPI   PO410592  16.232  10.241   5.524 -0.2177  0.1864 -0.2760
  733POPI   GL110593  16.323  10.141   5.918  0.0346 -0.0497  0.3954
  733POPI   GL210594  16.283   9.832   5.950  0.1530 -0.0845 -0.0287
  733POPI   C1A10595  16.213  10.083   6.361  0.1191 -0.2761 -0.0818
  733POPI   D2A10596  15.945  10.078   6.771 -0.1017  0.1858 -0.2189
  733POPI   C3A10597  15.677   9.814   6.726  0.1837  0.0032 -0.2524
  733POPI   C4A10598  15.380   9.533   6.956  0.2720 -0.1170  0.2319
  733POPI   C1B10599  16.131   9.589   6.377  0.0392  0.1597 -0.1890
  733POPI   C2B10600  16.157   9.515   6.812 -0.0741  0.0640 -0.1554
  733POPI   C3B10601  16.152   9.811   7.210 -0.3233 -0.2027 -0.2446
  733POPI   C4B10602  16.332   9.809   7.550 -0.0758  0.0850 -0.2104
  734POPI    C110603   1.528   3.608   4.758 -0.2501 -0.0741  0.0664
  734POPI    C210604   1.856   3.452   4.925 -0.0503  0.1547 -0.1046
  734POPI    C310605   1.635   3.231   4.675 -0.1851 -0.0912  0.2243
  734POPI   PO410606   1.406   3.630   4.983  0.0949 -0.0899  0.0014
  734POPI   GL110607   1.512   3.890   5.421 -0.0874  0.0607  0.1776
  734POPI   GL210608   1.167   3.859   5.512 -0.1394 -0.2273  0.0383
  734POPI   C1A10609   1.692   3.835   5.841  0.2723  0.0804 -0.1856
  734POPI   D2A10610   1.748   3.546   6.149 -0.0713 -0.0688 -0.0832
  734POPI   C3A10611   1.622   3.846   6.476  0.0323 -0.0557  0.1584
  734POPI   C4A10612   1.325   4.115   6.434 -0.1057  0.0049  0.3829
  734POPI   C1B10613   1.280   3.525   5.639  0.0851 -0.1777  0.0720
  734POPI   C2B10614   1.391   3.213   5.963  0.5072  0.0221  0.3320
  734POPI   C3B10615   1.534   2.827   6.164  0.1282 -0.0897  0.0477
  734POPI   C4B10616   1.618   2.554   6.468  0.0401 -0.0349  0.1072
  735POPI    C110617   1.162  16.171   5.349  0.2257 -0.0237 -0.2627
  735POPI    C210618   1.336  15.857   5.525 -0.0917 -0.0725 -0.0268
  735POPI    C310619   1.142  15.810   5.178  0.0217 -0.0975 -0.0875
  735POPI   PO410620   1.188  16.367   5.594  0.2982 -0.1761 -0.1524
  735POPI   GL110621   1.316  16.534   5.864 -0.0944 -0.0739 -0.0651
  735POPI   GL210622   1.419  16.266   5.989  0.3052 -0.1734 -0.1424
  735POPI   C1A10623   1.324  16.642   6.315 -0.0759  0.3346 -0.2223
  735POPI   D2A10624   1.423  17.007   6.681 -0.0822  0.0926 -0.2826
  735POPI   C3A10625   1.428  17.052   7.105 -0.0958 -0.1572 -0.2949
  735POPI   C4A10626   1.430  17.299   7.462 -0.3052 -0.5949  0.1885
  735POPI   C1B10627   1.580  16.263   6.320 -0.1285  0.2026  0.1354
  735POPI   C2B10628   1.701  16.390   6.755 -0.2710  0.1776 -0.1297
  735POPI   C3B10629   1.686  16.621   7.144 -0.2678 -0.3427  0.1227
  735POPI   C4B10630   1.796  16.942   7.512  0.1116 -0.1804  0.7537
  736POPI    C110631  18.677  13.464   5.432 -0.3699  0.1974  0.0345
  736POPI    C210632  18.820  13.361   5.073  0.0713 -0.0787  0.2804
  736POPI    C310633  18.894  13.725   5.222 -0.1457  0.0501  0.0796
  736POPI   PO410634  18.786  13.314   5.666 -0.1988 -0.0563 -0.2502
  736POPI   GL110635  19.087  13.435   6.097  0.0398 -0.0503 -0.0452
  736POPI   GL210636  19.187  13.484   6.259 -0.0845 -0.1799  0.4324
  736POPI   C1A10637  18.729  13.638   6.264 -0.3350 -0.0425 -0.2850
  736POPI   D2A10638  18.346  13.686   6.497  0.0734  0.2221 -0.0469
  736POPI   C3A10639  18.290  13.926   6.904 -0.3033 -0.0799  0.1788
  736POPI   C4A10640  18.468  14.057   7.278  0.2610  0.2041 -0.0816
  736POPI   C1B10641  19.467  13.364   6.633  0.2956  0.0368 -0.4313
  736POPI   C2B10642  19.553  12.997   6.723 -0.1606 -0.2048 -0.0617
  736POPI   C3B10643  19.590  12.765   7.147  0.1551 -0.2503  0.0152
  736POPI   C4B10644  19.969  12.722   7.499  0.0364  0.1358 -0.5479
  737POPI    C110645   9.622  12.885   5.254  0.1125  0.1382  0.0571
  737POPI    C210646   9.377  13.068   4.997 -0.0292  0.0156  0.1026
  737POPI    C310647   9.566  12.732   4.889 -0.1127 -0.0530  0.1685
  737POPI   PO410648   9.448  12.899   5.503  0.0781  0.2423  0.1175
  737POPI   GL110649   9.396  12.950   5.903 -0.0508 -0.2796  0.0722
  737POPI   GL210650   9.358  13.293   5.933  0.0576  0.0098  0.1000
  737POPI   C1A10651   9.339  12.967   6.321 -0.0133  0.1234 -0.3381
  737POPI   D2A10652   9.166  13.095   6.682 -0.1410 -0.1394  0.0499
  737POPI   C3A10653   8.951  13.046   7.101 -0.2923 -0.0980 -0.2215
  737POPI   C4A10654   8.489  13.013   7.166 -0.1824 -0.2878  0.3429
  737POPI   C1B10655   9.472  13.545   6.173 -0.3272 -0.0610  0.1960
  737POPI   C2B10656   9.334  13.565   6.635 -0.1735  0.1179  0.1160
  737POPI   C3B10657   9.130  13.522   7.059 -0.0101  0.0332  0.2555
  737POPI   C4B10658   8.759  13.414   7.315 -0.1942 -0.0047 -0.1739
  738POPI    C110659  11.886  13.529   5.373 -0.1816  0.0585 -0.0640
  738POPI    C210660  11.723  13.826   5.159 -0.1839  0.1935  0.1224
  738POPI    C310661  11.751  13.458   5.003 -0.0845  0.3145 -0.1505
  738POPI   PO410662  11.846  13.502   5.639 -0.2490  0.0216  0.1470
  738POPI   GL110663  12.014  13.631   5.849  0.2985 -0.2354  0.1159
  738POPI   GL210664  11.728  13.668   6.127  0.4927 -0.3355  0.0081
  738POPI   C1A10665  12.357  13.343   6.081 -0.0819  0.1366 -0.2402
  738POPI   D2A10666  12.526  12.962   6.022 -0.1542  0.5172 -0.0798
  738POPI   C3A10667  13.041  12.818   6.114  0.0135  0.0387 -0.0138
  738POPI   C4A10668  13.377  12.507   6.096  0.5401  0.0565 -0.1046
  738POPI   C1B10669  12.019  13.386   6.475  0.0182 -0.0781 -0.2580
  738POPI   C2B10670  12.359  13.004   6.513  0.0528  0.5654 -0.3604
  738POPI   C3B10671  12.784  12.951   6.521 -0.1388  0.2311 -0.4620
  738POPI   C4B10672  13.086  12.658   6.563 -0.0250 -0.0054 -0.1615
  739POPI    C110673  15.475  11.648   5.436 -0.0695  0.1333  0.1390
  739POPI    C210674  15.754  11.619   5.722  0.0761 -0.1329 -0.0249
  739POPI    C310675  15.861  11.611   5.337 -0.1538 -0.1768 -0.0895
  739POPI   PO410676  15.279  11.754   5.540  0.0674 -0.0463 -0.2902
  739POPI   GL110677  15.249  11.895   5.953 -0.2369  0.1341  0.0866
  739POPI   GL210678  14.876  11.969   5.882  0.0908  0.3324  0.1407
  739POPI   C1A10679  15.339  11.951   6.293  0.0128  0.0269  0.2342
  739POPI   D2A10680  15.515  11.910   6.779 -0.0267 -0.0803 -0.2983
  739POPI   C3A10681  15.312  11.655   7.036  0.1343  0.0980 -0.1406
  739POPI   C4A10682  15.306  11.177   7.184  0.1607 -0.0929 -0.5075
  739POPI   C1B10683  14.837  11.925   6.281 -0.2197  0.1085 -0.1066
  739POPI   C2B10684  15.031  11.931   6.684  0.2948  0.5943  0.2630
  739POPI   C3B10685  14.958  12.019   7.149 -0.2020  0.2742 -0.3272
  739POPI   C4B10686  15.129  12.000   7.714 -0.1589  0.0537  0.3882
  740POPI    C110687  17.119  14.364   5.447 -0.3570  0.1932  0.2175
  740POPI    C210688  16.892  14.219   5.151  0.1949 -0.1327 -0.0632
  740POPI    C310689  16.995  13.984   5.457  0.3503 -0.0621 -0.0601
  740POPI   PO410690  17.172  14.634   5.584 -0.1880  0.0269  0.1517
  740POPI   GL110691  16.871  14.814   5.868 -0.0239  0.1438 -0.1106
  740POPI   GL210692  17.079  14.836   6.113  0.1121 -0.0061  0.0238
  740POPI   C1A10693  16.658  14.720   6.309 -0.0703 -0.4008 -0.1428
  740POPI   D2A10694  16.263  14.766   6.537 -0.2213 -0.2966  0.1820
  740POPI   C3A10695  16.320  14.761   6.995  0.0438 -0.0562 -0.0757
  740POPI   C4A10696  16.364  14.501   7.341 -0.0906 -0.0484 -0.2397
  740POPI   C1B10697  17.223  14.922   6.556  0.0178 -0.0995  0.0990
  740POPI   C2B10698  17.244  14.910   6.936  0.1854  0.1401 -0.4432
  740POPI   C3B10699  17.103  15.151   7.305 -0.1128  0.1779  0.0091
  740POPI   C4B10700  17.143  15.560   7.327 -0.2016  0.0457  0.1440
  741POPI    C110701   8.766   7.786   5.625 -0.1919  0.1594 -0.0507
  741POPI    C210702   9.083   7.731   5.388 -0.1672 -0.0520  0.0290
  741POPI    C310703   8.717   7.755   5.229 -0.1473 -0.1572 -0.0337
  741POPI   PO410704   9.013   7.649   5.919 -0.2914 -0.3255 -0.1399
  741POPI   GL110705   9.023   7.705   6.393  0.1095 -0.0167  0.1131
  741POPI   GL210706   8.910   7.464   6.472  0.0797 -0.0038  0.0875
  741POPI   C1A10707   9.319   7.732   6.630  0.2393 -0.0498 -0.0432
  741POPI   D2A10708   9.418   7.778   7.019  0.0820 -0.1346  0.1884
  741POPI   C3A10709   9.797   8.150   7.125  0.1561  0.2704  0.1121
  741POPI   C4A10710  10.107   8.034   7.297  0.0695  0.4771 -0.0744
  741POPI   C1B10711   9.150   7.260   6.779  0.0848 -0.0337 -0.1132
  741POPI   C2B10712   9.089   6.933   7.070 -0.0795 -0.0439  0.1145
  741POPI   C3B10713   9.111   6.690   7.419 -0.1563  0.0900  0.3474
  741POPI   C4B10714   9.161   6.648   7.860 -0.0888  0.4468 -0.0734
  742POPS   CNO10715  16.075   0.566   5.594 -0.0255  0.2779  0.3150
  742POPS   PO410716  16.334   0.333   5.506 -0.2938  0.2381 -0.0383
  742POPS   GL110717  16.439   0.132   5.854 -0.1571 -0.0086 -0.0358
  742POPS   GL210718  16.767   0.262   6.037 -0.2692  0.0740 -0.2781
  742POPS   C1A10719  16.353   0.151   6.286 -0.0460  0.0252 -0.1401
  742POPS   D2A10720  16.421   0.166   6.692  0.2591  0.0514 -0.2735
  742POPS   C3A10721  16.074  -0.118   6.915 -0.0519 -0.3376  0.1181
  742POPS   C4A10722  15.693  -0.324   7.114  0.0003 -0.3767  0.0415
  742POPS   C1B10723  16.710   0.487   6.440 -0.2323  0.3385 -0.3481
  742POPS   C2B10724  16.741   0.760   6.775  0.1216  0.0753 -0.2385
  742POPS   C3B10725  16.861   0.988   7.222 -0.0024 -0.3771  0.5652
  742POPS   C4B10726  16.914   1.269   7.424  0.2076 -0.1130  0.0550
  743POPS   CNO10727  17.375  13.237   5.737  0.0150 -0.0661  0.0629
  743POPS   PO410728  17.616  13.513   5.507  0.0545 -0.1763 -0.3186
  743POPS   GL110729  17.763  13.458   5.934 -0.3692 -0.4238 -0.0346
  743POPS   GL210730  17.847  13.864   6.089 -0.4418  0.3760 -0.0231
  743POPS   C1A10731  17.526  13.500   6.288 -0.1660  0.1565  0.0451
  743POPS   D2A10732  17.444  13.283   6.655 -0.0544 -0.1334  0.1209
  743POPS   C3A10733  17.396  13.093   6.996 -0.1420  0.0271 -0.1661
  743POPS   C4A10734  17.320  12.954   7.336 -0.0808 -0.0129  0.1695
  743POPS   C1B10735  17.863  13.799   6.551 -0.3743  0.1671 -0.0616
  743POPS   C2B10736  17.723  14.116   6.797  0.1207 -0.0986  0.0157
  743POPS   C3B10737  17.567  14.371   6.927  0.4327  0.0372 -0.1647
  743POPS   C4B10738  17.327  14.492   7.257 -0.0946 -0.1430  0.3392
  744POPS   CNO10739   2.157  15.851   4.929 -0.0620  0.2461 -0.3226
  744POPS   PO410740   2.395  16.130   5.288  0.0241  0.1046  0.3760
  744POPS   GL110741   2.152  16.326   5.612  0.1033  0.2383 -0.0496
  744POPS   GL210742   2.419  16.453   5.931 -0.2193 -0.1307 -0.0396
  744POPS   C1A10743   2.000  16.191   6.029 -0.0016 -0.1053  0.1152
  744POPS   D2A10744   2.164  16.182   6.471 -0.2489 -0.0683  0.1419
  744POPS   C3A10745   2.329  15.848   6.783 -0.0373 -0.0321 -0.0782
  744POPS   C4A10746   2.436  15.495   7.139  0.0958 -0.1860  0.0175
  744POPS   C1B10747   2.488  16.534   6.215 -0.0718 -0.0555 -0.1358
  744POPS   C2B10748   2.494  16.822   6.681 -0.2572 -0.0107  0.0787
  744POPS   C3B10749   2.496  17.110   6.948  0.1770  0.1996  0.0659
  744POPS   C4B10750   2.414  17.207   7.384  0.0278  0.0684 -0.3757
  745POPS   CNO10751   8.465  14.346   4.923 -0.0878  0.2493 -0.1924
  745POPS   PO410752   8.398  14.547   5.400  0.4105  0.0340 -0.0326
  745POPS   GL110753   8.246  14.281   5.820 -0.2552  0.0021  0.1030
  745POPS   GL210754   7.911  14.267   5.754 -0.0256  0.2626  0.2870
  745POPS   C1A10755   8.093  14.069   6.241  0.3099 -0.0311  0.2719
  745POPS   D2A10756   8.027  13.815   6.467 -0.1617  0.0665  0.0655
  745POPS   C3A10757   8.356  13.518   6.431 -0.1004 -0.0162 -0.4235
  745POPS   C4A10758   8.666  13.175   6.707  0.1588 -0.1428  0.0488
  745POPS   C1B10759   7.814  14.480   6.201 -0.2800 -0.0035 -0.1246
  745POPS   C2B10760   7.739  14.732   6.450  0.0819 -0.2606  0.0206
  745POPS   C3B10761   8.039  14.883   6.823  0.0955  0.1222  0.0927
  745POPS   C4B10762   8.481  14.820   7.061 -0.1484  0.1062  0.4635
  746POPS   CNO10763  16.629  15.844   5.427 -0.0226  0.0599  0.3896
  746POPS   PO410764  16.950  15.726   5.698 -0.1242  0.3064 -0.1311
  746POPS   GL110765  16.758  15.845   6.020  0.3351 -0.1790  0.0477
  746POPS   GL210766  16.838  16.197   6.132  0.3535 -0.1988  0.1017
  746POPS   C1A10767  16.862  15.729   6.469  0.0198  0.1153 -0.3986
  746POPS   D2A10768  16.755  15.618   6.899  0.0138 -0.0815  0.0119
  746POPS   C3A10769  16.719  15.121   6.938  0.0972 -0.5053  0.4059
  746POPS   C4A10770  16.820  14.708   6.834 -0.0337 -0.2497  0.0408
  746POPS   C1B10771  16.678  16.212   6.477  0.1041 -0.1792  0.3109
  746POPS   C2B10772  16.841  16.071   6.988 -0.0188  0.0252 -0.2823
  746POPS   C3B10773  16.675  15.899   7.458 -0.0176 -0.0281 -0.2230
  746POPS   C4B10774  16.733  15.627   7.779 -0.1114 -0.0863 -0.1493
  747POPS   CNO10775   8.793   3.300   4.788 -0.0773 -0.3565 -0.2937
  747POPS   PO410776   8.554   3.304   5.104 -0.2275 -0.1184  0.1791
  747POPS   GL110777   8.494   3.399   5.572 -0.0796 -0.0919 -0.3478
  747POPS   GL210778   8.782   3.339   5.849 -0.1091 -0.2646  0.2802
  747POPS   C1A10779   8.488   2.986   5.782  0.0091 -0.1828  0.0384
  747POPS   D2A10780   8.308   2.776   6.086  0.0759 -0.0831  0.0266
  747POPS   C3A10781   8.197   2.599   6.531 -0.1268 -0.3411  0.1400
  747POPS   C4A10782   8.236   2.704   6.946 -0.1218  0.0188  0.1567
  747POPS   C1B10783   8.743   3.706   6.112 -0.1014  0.3180 -0.1080
  747POPS   C2B10784   8.618   3.848   6.566  0.0113  0.1145  0.0568
  747POPS   C3B10785   8.641   4.116   6.963 -0.0631 -0.0345  0.0713
  747POPS   C4B10786   8.427   4.166   7.413 -0.0349  0.0544 -0.0348
  748POPS   CNO10787   5.057   8.414   5.561 -0.0222  0.0559 -0.0041
  748POPS   PO410788   4.705   8.151   5.624  0.1481  0.0299  0.1052
  748POPS   GL110789   4.645   8.225   6.073 -0.1292 -0.3005 -0.0607
  748POPS   GL210790   4.848   8.518   6.212 -0.1243 -0.2750  0.1589
  748POPS   C1A10791   4.689   8.194   6.493 -0.1986  0.2638 -0.0199
  748POPS   D2A10792   5.060   7.921   6.549 -0.1624 -0.3552 -0.0090
  748POPS   C3A10793   5.260   7.740   6.860 -0.1708 -0.0280 -0.2890
  748POPS   C4A10794   5.173   7.805   7.280 -0.0643  0.1620 -0.3759
  748POPS   C1B10795   5.008   8.616   6.635  0.3316  0.2275 -0.1276
  748POPS   C2B10796   5.145   8.758   7.027 -0.0106 -0.2927  0.2031
  748POPS   C3B10797   5.409   8.487   7.373  0.0217 -0.1049 -0.2354
  748POPS   C4B10798   5.426   8.372   7.828  0.1022  0.3852 -0.0895
  749POPS   CNO10799  16.436  15.074   6.076 -0.2211 -0.1648  0.2128
  749POPS   PO410800  16.354  14.865   5.736  0.0795  0.0914 -0.0610
  749POPS   GL110801  16.033  14.753   6.092 -0.0806  0.2317 -0.1370
  749POPS   GL210802  15.662  14.702   6.086 -0.2479  0.0155 -0.1225
  749POPS   C1A10803  16.299  14.377   6.216  0.1366  0.2814  0.2868
  749POPS   D2A10804  16.227  13.938   6.170  0.2984 -0.4061 -0.2892
  749POPS   C3A10805  15.904  13.719   6.356  0.0423 -0.2987 -0.0903
  749POPS   C4A10806  15.554  13.667   6.544  0.3420  0.2608  0.0532
  749POPS   C1B10807  15.477  14.647   6.543 -0.0181 -0.0220  0.0728
  749POPS   C2B10808  15.315  14.496   6.902 -0.0011  0.4605 -0.0668
  749POPS   C3B10809  15.217  14.123   7.086  0.0675 -0.0203  0.0709
  749POPS   C4B10810  15.173  13.848   7.344 -0.1124 -0.0239  0.0399
  750POPS   CNO10811  16.103  13.875   5.221  0.0713 -0.0341 -0.2639
  750POPS   PO410812  16.483  13.925   5.465 -0.2085  0.1148  0.1959
  750POPS   GL110813  16.623  13.829   5.815  0.0208 -0.2212 -0.2900
  750POPS   GL210814  16.976  13.767   5.910  0.1617  0.0868  0.0310
  750POPS   C1A10815  16.678  14.047   6.316  0.3434  0.3749 -0.1221
  750POPS   D2A10816  16.499  13.796   6.597  0.2263 -0.1760  0.2352
  750POPS   C3A10817  16.375  13.361   6.577  0.2910 -0.2682 -0.4193
  750POPS   C4A10818  16.095  13.081   6.301 -0.5145 -0.4200  0.0500
  750POPS   C1B10819  17.155  13.824   6.231  0.3224 -0.2664 -0.2233
  750POPS   C2B10820  17.327  13.831   6.551  0.0157  0.2940  0.0020
  750POPS   C3B10821  17.516  13.648   6.947 -0.1117  0.2342 -0.1745
  750POPS   C4B10822  17.942  13.307   6.997 -0.2886 -0.0207  0.1230
  751POPS   CNO10823   7.829   0.106   5.050  0.3379  0.1912 -0.3848
  751POPS   PO410824   8.079   0.437   5.107  0.1141 -0.0993 -0.0356
  751POPS   GL110825   8.027   0.532   5.532  0.4361  0.0926 -0.2004
  751POPS   GL210826   8.219   0.782   5.765  0.1378 -0.0963 -0.2035
  751POPS   C1A10827   7.894   0.420   5.913 -0.1869  0.0196  0.2109
  751POPS   D2A10828   7.730   0.535   6.253 -0.1352 -0.2521 -0.0283
  751POPS   C3A10829   8.047   0.865   6.289 -0.0695  0.0261  0.0359
  751POPS   C4A10830   8.000   1.335   6.204  0.1438  0.0728  0.3315
  751POPS   C1B10831   8.411   1.134   5.982  0.2734 -0.2167  0.5152
  751POPS   C2B10832   8.481   1.259   6.351  0.0993  0.2642  0.4470
  751POPS   C3B10833   8.442   1.086   6.807 -0.0417  0.3044 -0.2047
  751POPS   C4B10834   8.558   1.053   7.153 -0.4093 -0.1069 -0.0330
  752POPS   CNO10835  17.423  17.634   5.442  0.0124  0.0050  0.1705
  752POPS   PO410836  17.370  17.828   5.839 -0.0714 -0.0302 -0.1728
  752POPS   GL110837  17.343  17.777   6.224  0.0070 -0.2799 -0.2281
  752POPS   GL210838  17.330  17.341   6.377 -0.2102 -0.0978  0.2961
  752POPS   C1A10839  17.384  17.754   6.784 -0.3485 -0.0077  0.0591
  752POPS   D2A10840  17.262  17.586   7.207 -0.2313 -0.2761  0.0824
  752POPS   C3A10841  17.506  17.740   7.600  0.3409 -0.3273 -0.0829
  752POPS   C4A10842  17.443  18.079   7.920 -0.2600 -0.1194  0.1194
  752POPS   C1B10843  17.434  17.161   6.684 -0.2543  0.0012  0.0844
  752POPS   C2B10844  17.574  17.185   7.029 -0.2394 -0.1373 -0.0193
  752POPS   C3B10845  17.786  17.358   7.357  0.3365  0.3547  0.3258
  752POPS   C4B10846  18.156  17.126   7.593  0.3975  0.0723 -0.2913
  753POPS   CNO10847   2.652  14.901   5.474 -0.1966  0.0856  0.4283
  753POPS   PO410848   3.003  14.436   5.449 -0.4418 -0.1442  0.1641
  753POPS   GL110849   3.162  14.495   5.871  0.5143  0.3590 -0.2935
  753POPS   GL210850   2.893  14.705   5.934 -0.0540 -0.2459 -0.2733
  753POPS   C1A10851   3.449  14.509   6.196  0.0901  0.0969  0.0721
  753POPS   D2A10852   3.772  14.143   6.104 -0.2129 -0.0530  0.4678
  753POPS   C3A10853   4.039  13.827   6.400  0.1761  0.3866 -0.2798
  753POPS   C4A10854   4.342  13.577   6.489 -0.2084  0.0798 -0.0386
  753POPS   C1B10855   3.115  14.981   6.227 -0.4041 -0.0866 -0.0998
  753POPS   C2B10856   3.522  14.974   6.403  0.2154  0.1053  0.3235
  753POPS   C3B10857   3.705  15.098   6.748 -0.4262 -0.1094  0.0504
  753POPS   C4B10858   3.943  15.192   7.103  0.0362 -0.0877  0.1014
  754POPS   CNO10859  10.577   5.651   5.007  0.0851  0.5100  0.1472
  754POPS   PO410860  10.352   6.013   4.903 -0.1555  0.1432 -0.0340
  754POPS   GL110861  10.342   6.138   5.263 -0.0049 -0.2779 -0.0430
  754POPS   GL210862  10.480   5.926   5.440  0.0613  0.3186  0.0425
  754POPS   C1A10863  10.157   6.249   5.703  0.2809 -0.3494 -0.0038
  754POPS   D2A10864  10.088   6.463   5.998  0.2342 -0.3406 -0.0619
  754POPS   C3A10865  10.009   6.412   6.318 -0.3690  0.2430  0.1352
  754POPS   C4A10866   9.796   6.449   6.678 -0.3097 -0.2812  0.2074
  754POPS   C1B10867  10.684   6.034   5.788  0.4742  0.0476 -0.2844
  754POPS   C2B10868  10.930   5.918   6.163 -0.2504 -0.1727  0.3101
  754POPS   C3B10869  11.193   6.071   6.483  0.0535 -0.0188  0.0264
  754POPS   C4B10870  11.277   6.002   6.853 -0.3735  0.1356  0.1096
  755POPS   CNO10871   8.541  11.544   4.884  0.0480 -0.3081  0.3491
  755POPS   PO410872   8.638  11.333   5.213 -0.0146  0.2339 -0.0935
  755POPS   GL110873   8.394  11.191   5.638 -0.1442  0.0646 -0.0088
  755POPS   GL210874   8.231  11.525   5.678 -0.2131 -0.2471 -0.1526
  755POPS   C1A10875   8.506  11.049   6.042  0.0309 -0.2810  0.2351
  755POPS   D2A10876   8.551  10.750   6.436 -0.1451 -0.0362  0.0468
  755POPS   C3A10877   8.645  10.405   6.251  0.0128 -0.0371  0.1420
  755POPS   C4A10878   8.912  10.073   5.991  0.0947 -0.1286  0.1082
  755POPS   C1B10879   8.270  11.748   6.091 -0.0817 -0.0669  0.1009
  755POPS   C2B10880   8.554  11.846   6.476 -0.2788  0.0545 -0.1503
  755POPS   C3B10881   8.671  12.166   6.790  0.0263  0.3550 -0.0461
  755POPS   C4B10882   8.781  12.687   6.725 -0.0106  0.1396 -0.0909
  756POPS   CNO10883  16.683  17.355   5.487 -0.3064  0.2896 -0.0440
  756POPS   PO410884  16.609  17.469   5.847 -0.1547 -0.1541 -0.1844
  756POPS   GL110885  16.519  17.298   6.213  0.2174 -0.2736  0.0485
  756POPS   GL210886  16.315  17.564   6.427  0.1444  0.2392 -0.2710
  756POPS   C1A10887  16.345  17.117   6.627 -0.1488 -0.1708  0.0531
  756POPS   D2A10888  16.198  16.852   7.017  0.0257  0.0138 -0.3406
  756POPS   C3A10889  16.334  16.825   7.400  0.3530  0.2243  0.0784
  756POPS   C4A10890  16.780  16.871   7.544 -0.2235 -0.1705  0.0236
  756POPS   C1B10891  16.801  17.676   6.464 -0.0711  0.0265  0.1889
  756POPS   C2B10892  16.937  17.895   6.853 -0.0078  0.1991 -0.1446
  756POPS   C3B10893  17.020  18.043   7.277 -0.1111 -0.3993 -0.0141
  756POPS   C4B10894  17.208  18.344   7.581  0.3047  0.1285  0.1604
  757POPS   CNO10895  10.715  12.225   5.413 -0.3900 -0.3344  0.1333
  757POPS   PO410896  11.051  12.580   5.521  0.1655  0.3733  0.2294
  757POPS   GL110897  11.092  12.264   5.891  0.1363  0.0418 -0.2259
  757POPS   GL210898  11.025  12.383   6.213  0.2334 -0.2608  0.1506
  757POPS   C1A10899  10.911  11.784   5.969  0.2479 -0.2360 -0.2431
  757POPS   D2A10900  10.764  11.374   6.280  0.1964 -0.1667 -0.1445
  757POPS   C3A10901  10.608  11.329   6.721  0.0420  0.2683 -0.4391
  757POPS   C4A10902  10.390  11.287   7.144 -0.4215  0.1406 -0.0504
  757POPS   C1B10903  11.105  12.017   6.324  0.0517  0.3000 -0.1697
  757POPS   C2B10904  11.394  11.977   6.525  0.1645 -0.1306  0.0548
  757POPS   C3B10905  11.535  11.587   6.736  0.1142 -0.3875 -0.0689
  757POPS   C4B10906  11.518  11.201   6.993  0.0733  0.1142 -0.1747
  758POPS   CNO10907  11.318   8.664   5.427  0.1210 -0.2371  0.1078
  758POPS   PO410908  11.540   9.149   5.288 -0.4795 -0.4202  0.2315
  758POPS   GL110909  11.425   9.099   5.761  0.2921 -0.1037  0.1114
  758POPS   GL210910  11.495   8.814   5.856  0.2460  0.4825 -0.2442
  758POPS   C1A10911  11.205   9.025   6.195  0.2006 -0.1703  0.1726
  758POPS   D2A10912  10.762   8.999   6.282 -0.1629  0.0901 -0.1585
  758POPS   C3A10913  10.804   8.958   6.725 -0.1072  0.0005  0.1172
  758POPS   C4A10914  10.823   8.997   7.193  0.0076  0.0039 -0.1433
  758POPS   C1B10915  11.315   8.510   6.204  0.0003  0.0669 -0.0006
  758POPS   C2B10916  11.346   8.574   6.744  0.2695 -0.1724 -0.2963
  758POPS   C3B10917  11.273   8.973   6.918  0.0013 -0.0142 -0.1877
  758POPS   C4B10918  11.617   9.194   7.101 -0.1106 -0.4659  0.0946
  759POPS   CNO10919   5.139   1.460   4.879  0.2297  0.0819 -0.0641
  759POPS   PO410920   4.917   1.570   5.170  0.1734  0.0309 -0.1700
  759POPS   GL110921   4.939   1.683   5.613 -0.1882  0.0367 -0.2843
  759POPS   GL210922   4.677   1.617   5.705 -0.2556 -0.0020  0.0123
  759POPS   C1A10923   5.105   2.110   5.933 -0.0309 -0.1607 -0.0310
  759POPS   D2A10924   5.261   2.359   6.276 -0.3437 -0.0470  0.3913
  759POPS   C3A10925   5.109   2.358   6.714  0.1982 -0.1391 -0.1044
  759POPS   C4A10926   4.772   2.383   6.849  0.2506 -0.2508 -0.0885
  759POPS   C1B10927   5.015   1.579   6.147 -0.2797 -0.0125 -0.1695
  759POPS   C2B10928   5.047   1.486   6.497  0.3724 -0.0648  0.1931
  759POPS   C3B10929   5.268   1.197   6.758 -0.5830  0.0545  0.0934
  759POPS   C4B10930   5.414   1.064   7.052 -0.1317  0.0626 -0.1090
  760POPS   CNO10931  18.000  15.094   5.412  0.2212 -0.0143  0.2824
  760POPS   PO410932  18.368  15.148   5.625 -0.2809  0.1065 -0.2019
  760POPS   GL110933  18.597  15.141   6.082 -0.1215 -0.1772  0.0419
  760POPS   GL210934  18.552  14.834   6.094  0.2455 -0.0041 -0.1135
  760POPS   C1A10935  18.493  15.274   6.517 -0.1523 -0.1371 -0.0070
  760POPS   D2A10936  18.549  15.531   6.811  0.2353  0.2087 -0.1607
  760POPS   C3A10937  18.464  15.765   7.061  0.0585  0.1396 -0.1726
  760POPS   C4A10938  18.120  15.844   7.266 -0.0079  0.0858  0.1464
  760POPS   C1B10939  18.262  14.833   6.377 -0.1677  0.1466 -0.0622
  760POPS   C2B10940  18.337  15.021   6.882  0.2841 -0.2011  0.2431
  760POPS   C3B10941  18.546  15.004   7.117 -0.1447  0.1823  0.0891
  760POPS   C4B10942  18.535  14.794   7.531  0.3504  0.0070 -0.1171
  761POPS   CNO10943  14.161   0.890   5.551 -0.1015 -0.0978  0.4719
  761POPS   PO410944  14.533   0.825   5.583  0.1588  0.0906 -0.2521
  761POPS   GL110945  14.712   0.715   5.995  0.2635  0.1741  0.0307
  761POPS   GL210946  14.589   0.464   5.954  0.1906 -0.0334  0.1951
  761POPS   C1A10947  14.625   0.874   6.335  0.2333 -0.0390 -0.2910
  761POPS   D2A10948  14.307   0.885   6.582  0.1048 -0.2758  0.1051
  761POPS   C3A10949  13.987   0.652   6.605 -0.1532  0.2507 -0.0213
  761POPS   C4A10950  13.721   0.611   7.035  0.1508 -0.1076  0.0914
  761POPS   C1B10951  14.417   0.317   6.312  0.1363  0.0928  0.3215
  761POPS   C2B10952  14.130   0.121   6.631  0.0664 -0.1865  0.2021
  761POPS   C3B10953  14.041   0.212   6.963  0.1032 -0.1952  0.0655
  761POPS   C4B10954  13.923   0.360   7.339 -0.0598  0.2554 -0.1381
  762POPS   CNO10955  16.831   5.922   5.036 -0.0407  0.0753 -0.0706
  762POPS   PO410956  17.172   5.745   5.262  0.2351  0.0624  0.2336
  762POPS   GL110957  17.178   5.544   5.588  0.0033  0.0436  0.1064
  762POPS   GL210958  17.352   5.306   5.380  0.0869  0.4427  0.4373
  762POPS   C1A10959  17.020   5.365   5.951  0.3249  0.1045 -0.0433
  762POPS   D2A10960  16.867   5.320   6.401  0.0736 -0.0560  0.0311
  762POPS   C3A10961  16.562   5.044   6.648  0.0135 -0.1186  0.1024
  762POPS   C4A10962  16.413   5.034   7.049 -0.2930  0.0180  0.0734
  762POPS   C1B10963  17.462   5.118   5.776  0.1969 -0.3161  0.2420
  762POPS   C2B10964  17.313   5.029   6.151  0.2629 -0.0550  0.1800
  762POPS   C3B10965  17.335   5.024   6.576 -0.2375  0.0198  0.0450
  762POPS   C4B10966  17.239   4.755   6.787 -0.1455  0.0078  0.2246
  763POPS   CNO10967  12.762   1.793   5.069 -0.0038 -0.2049  0.1940
  763POPS   PO410968  12.733   1.550   5.318  0.2284  0.1925 -0.1484
  763POPS   GL110969  12.494   1.718   5.697 -0.0310  0.4031  0.1102
  763POPS   GL210970  12.292   1.761   5.534  0.0543  0.0373  0.1668
  763POPS   C1A10971  12.284   1.664   6.032 -0.0224 -0.2392 -0.5913
  763POPS   D2A10972  12.134   1.455   6.343 -0.0252  0.0811  0.0739
  763POPS   C3A10973  11.799   1.608   6.657 -0.3658 -0.2071 -0.1670
  763POPS   C4A10974  11.750   1.800   7.098 -0.1067  0.0511 -0.0247
  763POPS   C1B10975  11.857   1.834   5.751  0.1045  0.1513  0.2406
  763POPS   C2B10976  11.861   1.878   6.244 -0.3090  0.1007 -0.1940
  763POPS   C3B10977  12.163   1.909   6.573  0.0238  0.0265  0.5163
  763POPS   C4B10978  12.447   1.908   6.896 -0.0592  0.1367 -0.0478
  764POPS   CNO10979  17.718   8.301   5.400  0.0069  0.2553  0.0477
  764POPS   PO410980  17.373   8.178   5.432  0.2037 -0.0120  0.0971
  764POPS   GL110981  17.040   8.430   5.685 -0.1384 -0.1580  0.0516
  764POPS   GL210982  17.111   8.132   5.875  0.0808 -0.1252 -0.0323
  764POPS   C1A10983  16.951   8.587   6.127 -0.1033 -0.4503  0.1624
  764POPS   D2A10984  16.867   8.418   6.547  0.1074  0.0529  0.2200
  764POPS   C3A10985  16.736   8.241   6.916  0.2007  0.1726 -0.2727
  764POPS   C4A10986  16.655   8.072   7.230 -0.0967 -0.0547  0.0390
  764POPS   C1B10987  17.265   8.221   6.231 -0.2402  0.0507  0.2164
  764POPS   C2B10988  17.590   8.350   6.398  0.1410 -0.1059 -0.3140
  764POPS   C3B10989  17.995   8.496   6.488  0.3752 -0.3161 -0.1050
  764POPS   C4B10990  18.280   8.795   6.446 -0.0521 -0.1103  0.0581
  765POPS   CNO10991  13.033  10.473   5.458  0.0233 -0.0867 -0.0597
  765POPS   PO410992  13.091  10.017   5.668  0.0607 -0.0712  0.1342
  765POPS   GL110993  12.769  10.098   5.891 -0.0604 -0.0289 -0.0446
  765POPS   GL210994  12.831   9.914   6.133 -0.0971  0.1269  0.3728
  765POPS   C1A10995  12.623  10.398   6.215 -0.0412  0.0900  0.0572
  765POPS   D2A10996  12.362  10.674   6.567  0.4905 -0.0526 -0.2262
  765POPS   C3A10997  12.326  11.083   6.703  0.3284  0.0454  0.0164
  765POPS   C4A10998  12.631  11.427   6.653 -0.0301 -0.2585 -0.1800
  765POPS   C1B10999  12.468   9.893   6.317  0.0629  0.0557 -0.1496
  765POPS   C2B11000  12.420  10.198   6.699  0.0445  0.1575 -0.2017
  765POPS   C3B11001  12.474  10.329   7.059 -0.3199 -0.0503 -0.0721
  765POPS   C4B11002  12.614  10.518   7.499  0.3474  0.2783 -0.0436
  766POPS   CNO11003  14.957  15.593   5.515  0.1101  0.0381  0.0851
  766POPS   PO411004  14.897  15.376   5.813 -0.0264  0.1740  0.0928
  766POPS   GL111005  14.959  15.451   6.207 -0.1600  0.1776  0.3932
  766POPS   GL211006  15.066  15.768   6.295 -0.1280  0.0066 -0.3240
  766POPS   C1A11007  14.798  15.464   6.655  0.1256 -0.0239 -0.2924
  766POPS   D2A11008  15.019  15.605   7.111  0.1973  0.0367 -0.1373
  766POPS   C3A11009  14.761  15.887   7.336 -0.2218 -0.1662  0.1636
  766POPS   C4A11010  14.536  16.027   7.598 -0.0221  0.1844 -0.0661
  766POPS   C1B11011  15.251  15.603   6.657 -0.2907  0.0274 -0.1351
  766POPS   C2B11012  15.530  15.617   7.003  0.3635 -0.1022  0.1701
  766POPS   C3B11013  15.799  15.438   7.389 -0.2738 -0.1565 -0.1695
  766POPS   C4B11014  15.935  15.337   7.735  0.0986 -0.2981  0.0751
  767POPS   CNO11015   4.487   3.825   5.233  0.1883  0.2996 -0.3519
  767POPS   PO411016   4.248   4.136   5.396  0.0563 -0.1723  0.1613
  767POPS   GL111017   4.207   3.985   5.797 -0.1250 -0.1431  0.4246
  767POPS   GL211018   4.359   3.688   5.758 -0.3214 -0.0842 -0.1383
  767POPS   C1A11019   3.906   4.149   6.137  0.2300 -0.0556  0.3496
  767POPS   D2A11020   3.637   4.312   6.408 -0.1211  0.1611 -0.3178
  767POPS   C3A11021   3.583   4.233   6.934  0.0724 -0.0418  0.0826
  767POPS   C4A11022   3.343   4.265   7.272  0.1487  0.0546  0.0338
  767POPS   C1B11023   4.282   3.803   6.233  0.2341 -0.0364 -0.1137
  767POPS   C2B11024   4.470   3.810   6.722 -0.2217  0.0612  0.1950
  767POPS   C3B11025   4.442   3.847   7.210 -0.1072 -0.1396  0.1995
  767POPS   C4B11026   4.387   4.153   7.511 -0.0136 -0.1341 -0.2341
  768POPS   CNO11027  13.654   5.019   5.072  0.1360 -0.0891 -0.0122
  768POPS   PO411028  13.549   4.647   4.963 -0.0647  0.2117 -0.0728
  768POPS   GL111029  13.482   4.605   5.375  0.1770  0.1403 -0.2078
  768POPS   GL211030  13.345   4.565   5.656  0.4001  0.0339  0.0449
  768POPS   C1A11031  13.869   4.601   5.654  0.1632  0.1583 -0.2132
  768POPS   D2A11032  13.940   4.709   6.067 -0.1918 -0.1577 -0.0416
  768POPS   C3A11033  13.710   4.703   6.383  0.3095 -0.1275 -0.0570
  768POPS   C4A11034  13.654   4.675   6.799 -0.1839 -0.0557 -0.2397
  768POPS   C1B11035  13.450   4.930   5.898  0.2739 -0.0530  0.1954
  768POPS   C2B11036  13.638   5.217   6.180 -0.2887 -0.2340 -0.0008
  768POPS   C3B11037  13.712   5.189   6.599 -0.1583 -0.2735  0.0840
  768POPS   C4B11038  13.675   5.386   6.941  0.0271  0.1782  0.1483
  769POPS   CNO11039  18.113  19.038   5.321 -0.4875  0.0759 -0.4073
  769POPS   PO411040  17.836  19.067   5.616 -0.1180 -0.0381  0.0662
  769POPS   GL111041  17.875  19.246   5.990  0.0589 -0.2693  0.1073
  769POPS   GL211042  18.079  19.594   6.017 -0.0557  0.2436 -0.3079
  769POPS   C1A11043  18.121  19.198   6.358 -0.2214  0.0846 -0.0268
  769POPS   D2A11044  18.405  19.231   6.696  0.2791  0.0520 -0.1256
  769POPS   C3A11045  18.645  18.853   6.791 -0.0423  0.1387 -0.1142
  769POPS   C4A11046  18.589  18.420   6.918  0.0847  0.1049  0.1475
  769POPS   C1B11047  18.036  20.089   6.142  0.0719 -0.0430  0.1126
  769POPS   C2B11048  18.316  20.427   6.111  0.0422 -0.1849 -0.0881
  769POPS   C3B11049  18.040  20.857   6.164  0.0862  0.1960 -0.2095
  769POPS   C4B11050  18.047  21.300   6.054 -0.2248 -0.1040 -0.0444
  770POPS   CNO11051   2.597   1.834   5.213 -0.2357  0.1756 -0.1107
  770POPS   PO411052   2.429   2.245   5.141  0.0546  0.0147  0.2392
  770POPS   GL111053   2.420   2.257   5.476 -0.3520  0.2011  0.1280
  770POPS   GL211054   2.056   2.091   5.522  0.0348  0.0010 -0.0341
  770POPS   C1A11055   2.340   2.353   5.973  0.0866 -0.0738 -0.0951
  770POPS   D2A11056   2.067   2.265   6.298 -0.0285 -0.4678 -0.3270
  770POPS   C3A11057   2.086   1.936   6.528 -0.1092 -0.1232 -0.0453
  770POPS   C4A11058   2.089   1.550   6.849 -0.1166 -0.1586  0.2060
  770POPS   C1B11059   1.763   2.383   5.854  0.2104 -0.0046 -0.0812
  770POPS   C2B11060   1.970   2.677   6.122  0.2963 -0.1222  0.3476
  770POPS   C3B11061   2.114   2.737   6.561  0.4760  0.0726 -0.0266
  770POPS   C4B11062   1.767   3.068   6.602  0.2166 -0.1585  0.2364
  771POPS   CNO11063  10.324   8.408   5.399  0.3697  0.2219 -0.1477
  771POPS   PO411064  10.464   8.328   5.762 -0.1248  0.0033  0.1438
  771POPS   GL111065  10.609   8.325   6.149 -0.1057 -0.3278  0.0116
  771POPS   GL211066  10.944   8.179   6.137  0.0510  0.2183 -0.1264
  771POPS   C1A11067  10.817   8.464   6.559 -0.0820  0.1190  0.0802
  771POPS   D2A11068  10.866   8.490   7.000 -0.0327  0.1256 -0.0964
  771POPS   C3A11069  10.994   8.144   7.314  0.1104  0.5327  0.0386
  771POPS   C4A11070  10.992   7.850   7.634 -0.0791 -0.1136  0.2666
  771POPS   C1B11071  11.001   7.958   6.492  0.1062 -0.1136 -0.0421
  771POPS   C2B11072  11.208   7.804   6.919 -0.0207 -0.1971  0.2035
  771POPS   C3B11073  11.296   7.678   7.289  0.0490  0.2204 -0.0470
  771POPS   C4B11074  11.499   7.585   7.713  0.0228 -0.1491 -0.0210
  772POPS   CNO11075   3.922  18.205   4.813  0.2789 -0.3290 -0.0865
  772POPS   PO411076   3.852  18.190   5.225  0.2865  0.2723 -0.0711
  772POPS   GL111077   3.999  18.301   5.655  0.3178  0.3008  0.1434
  772POPS   GL211078   3.869  18.572   5.610 -0.2451 -0.2572 -0.0389
  772POPS   C1A11079   4.012  18.398   6.079  0.1021 -0.1033 -0.0749
  772POPS   D2A11080   4.177  18.321   6.439 -0.0751 -0.0843 -0.1655
  772POPS   C3A11081   3.953  18.224   6.786  0.1108 -0.2981 -0.0047
  772POPS   C4A11082   3.769  18.314   7.112 -0.3082  0.1106 -0.4025
  772POPS   C1B11083   3.525  18.536   5.971  0.0808 -0.0279 -0.0884
  772POPS   C2B11084   3.250  18.270   6.254 -0.0529 -0.1629 -0.0872
  772POPS   C3B11085   3.217  17.925   6.317  0.2776  0.3222 -0.2427
  772POPS   C4B11086   3.002  17.790   6.756 -0.1000  0.2713 -0.2167
  773POPS   CNO11087  12.364   9.996   5.445 -0.0430 -0.1072  0.0736
  773POPS   PO411088  12.149  10.047   5.707 -0.2730  0.1145  0.1039
  773POPS   GL111089  11.937  10.014   5.961 -0.2257  0.1080 -0.1347
  773POPS   GL211090  11.757   9.786   5.996  0.3165 -0.0686  0.1647
  773POPS   C1A11091  11.928  10.175   6.470 -0.1448 -0.1991  0.0793
  773POPS   D2A11092  12.015  10.421   6.741  0.0143  0.0313  0.1578
  773POPS   C3A11093  11.982  10.186   7.072 -0.1985 -0.1233 -0.3589
  773POPS   C4A11094  12.008  10.010   7.441  0.0857  0.0058 -0.1201
  773POPS   C1B11095  11.908   9.709   6.413 -0.2018 -0.0128  0.1392
  773POPS   C2B11096  11.746   9.584   6.815 -0.2280  0.3470  0.2204
  773POPS   C3B11097  11.993   9.538   7.219  0.0727 -0.2330  0.1996
  773POPS   C4B11098  12.181   9.564   7.591  0.0866  0.3266 -0.1229
  774POPS   CNO11099   6.095   3.475   4.874  0.0735 -0.1143  0.0429
  774POPS   PO411100   6.110   3.685   5.311  0.0813 -0.5504 -0.1297
  774POPS   GL111101   5.932   3.699   5.706 -0.0276  0.1520  0.2054
  774POPS   GL211102   5.675   3.813   5.820 -0.1062  0.0682  0.0018
  774POPS   C1A11103   6.144   3.511   6.161  0.0105  0.3573  0.1203
  774POPS   D2A11104   6.173   3.623   6.564  0.0699  0.0915 -0.1151
  774POPS   C3A11105   6.432   3.955   6.598  0.0475  0.3221  0.2314
  774POPS   C4A11106   6.817   4.038   6.459 -0.0990 -0.0753  0.2620
  774POPS   C1B11107   5.822   3.905   6.240  0.2350  0.0980 -0.3183
  774POPS   C2B11108   5.841   4.009   6.740  0.1441 -0.1119  0.1697
  774POPS   C3B11109   6.220   3.904   7.085 -0.0509 -0.2469 -0.2795
  774POPS   C4B11110   6.435   4.132   7.373 -0.3410 -0.3015  0.0936
  775POPS   CNO11111   7.094  16.320   5.256  0.0718  0.0283 -0.0065
  775POPS   PO411112   6.715  16.302   5.534 -0.1205 -0.1196  0.1726
  775POPS   GL111113   6.899  16.181   5.942 -0.1380 -0.2380 -0.2879
  775POPS   GL211114   7.262  16.128   5.870 -0.1275 -0.2926 -0.2348
  775POPS   C1A11115   6.975  16.078   6.383  0.0186 -0.1572 -0.1522
  775POPS   D2A11116   7.003  16.327   6.696 -0.0513  0.0343 -0.0209
  775POPS   C3A11117   7.314  16.389   7.064  0.1247 -0.1270  0.2402
  775POPS   C4A11118   7.605  16.677   7.010 -0.0579 -0.1470  0.0694
  775POPS   C1B11119   7.334  15.854   6.205  0.3027  0.1431  0.0434
  775POPS   C2B11120   7.305  15.518   6.532 -0.1857  0.2598  0.1102
  775POPS   C3B11121   7.420  15.050   6.652 -0.1576  0.0583  0.1041
  775POPS   C4B11122   7.584  14.972   7.091  0.0218 -0.0815  0.1680
  776POPS   CNO11123   6.203   8.923   6.105  0.1661  0.3608 -0.0222
  776POPS   PO411124   5.851   9.092   5.821 -0.0017  0.1326 -0.1263
  776POPS   GL111125   5.743   9.088   6.175 -0.0929 -0.1201  0.0653
  776POPS   GL211126   5.450   9.124   6.241  0.2590 -0.3428 -0.1513
  776POPS   C1A11127   5.789   9.080   6.610  0.1994 -0.3492  0.1816
  776POPS   D2A11128   5.878   9.185   6.897  0.1139 -0.1664 -0.1515
  776POPS   C3A11129   5.463   9.118   7.202  0.0794  0.2056 -0.2598
  776POPS   C4A11130   5.390   8.966   7.587 -0.1365 -0.2029  0.1750
  776POPS   C1B11131   5.227   9.197   6.632  0.1788 -0.1202  0.1045
  776POPS   C2B11132   5.101   9.330   6.872  0.1212  0.1968 -0.1778
  776POPS   C3B11133   5.147   9.618   7.296 -0.2538 -0.1195 -0.2026
  776POPS   C4B11134   5.471   9.699   7.510  0.1127 -0.2730 -0.2147
  777POPS   CNO11135   3.370  11.521   5.792  0.0307  0.1099 -0.1735
  777POPS   PO411136   3.390  11.044   5.983  0.4972 -0.2387  0.0596
  777POPS   GL111137   3.798  11.162   6.058  0.1054 -0.0109 -0.2302
  777POPS   GL211138   4.049  11.004   5.869 -0.1815 -0.1371 -0.0589
  777POPS   C1A11139   4.150  11.338   6.349 -0.1796  0.0395 -0.2100
  777POPS   D2A11140   4.360  11.296   6.721  0.4165 -0.2138  0.1330
  777POPS   C3A11141   4.297  11.298   7.119 -0.1723 -0.0142 -0.1296
  777POPS   C4A11142   4.245  11.249   7.599 -0.0509 -0.1863  0.0037
  777POPS   C1B11143   4.212  10.873   6.279  0.3919  0.1881  0.0080
  777POPS   C2B11144   4.243  10.751   6.675 -0.0773  0.2218 -0.1433
  777POPS   C3B11145   3.980  10.871   7.081  0.1751 -0.2491 -0.2270
  777POPS   C4B11146   3.857  11.144   7.292 -0.0143 -0.0846  0.1478
  778POPS   CNO11147  14.404  17.232   5.800  0.3713 -0.0633 -0.0083
  778POPS   PO411148  14.144  17.708   5.654  0.0850 -0.0874 -0.0087
  778POPS   GL111149  14.249  17.636   6.135 -0.1109 -0.1350 -0.1377
  778POPS   GL211150  14.034  17.580   6.323 -0.3266 -0.0450  0.1627
  778POPS   C1A11151  14.411  17.937   6.378 -0.1398 -0.1592 -0.0353
  778POPS   D2A11152  14.410  18.262   6.689 -0.0696 -0.0040 -0.0784
  778POPS   C3A11153  14.621  18.184   7.128  0.1757  0.2741  0.0229
  778POPS   C4A11154  14.932  18.034   7.331 -0.3596  0.0638 -0.2699
  778POPS   C1B11155  14.070  17.681   6.796  0.3525 -0.2459  0.0819
  778POPS   C2B11156  14.239  17.688   7.198 -0.0141  0.1040 -0.1471
  778POPS   C3B11157  14.528  17.748   7.596  0.2704 -0.4389 -0.0498
  778POPS   C4B11158  14.709  18.069   7.930  0.3397 -0.2743 -0.2471
  779POPS   CNO11159   9.558   2.472   5.321 -0.1047 -0.0235 -0.1846
  779POPS   PO411160   9.270   2.336   5.159  0.1709 -0.0073 -0.3523
  779POPS   GL111161   9.083   2.573   5.469 -0.1070 -0.0559  0.0917
  779POPS   GL211162   8.947   2.837   5.692  0.0507  0.1372  0.0076
  779POPS   C1A11163   9.040   2.392   5.855  0.1214  0.0740  0.2976
  779POPS   D2A11164   9.098   1.973   5.919  0.0109 -0.0250  0.2430
  779POPS   C3A11165   9.349   1.649   5.841 -0.0375 -0.1989 -0.0366
  779POPS   C4A11166   9.376   1.309   5.787 -0.0364 -0.0138  0.0267
  779POPS   C1B11167   8.879   2.766   6.154 -0.0022  0.0280 -0.0630
  779POPS   C2B11168   8.745   2.759   6.619 -0.0186 -0.0817  0.0145
  779POPS   C3B11169   8.875   2.825   7.016  0.1963  0.1757 -0.0593
  779POPS   C4B11170   9.045   3.113   7.147  0.2101 -0.0578 -0.0335
  780POPS   CNO11171  13.940  11.927   5.475  0.0385 -0.1428  0.2122
  780POPS   PO411172  13.535  11.956   5.614  0.0732  0.1068 -0.1531
  780POPS   GL111173  13.481  11.997   5.982  0.0885 -0.1548  0.1405
  780POPS   GL211174  13.127  11.807   5.974  0.1450  0.0574  0.1665
  780POPS   C1A11175  13.429  12.085   6.334 -0.1118  0.2991 -0.1321
  780POPS   D2A11176  13.552  12.338   6.629  0.0797 -0.0024  0.2248
  780POPS   C3A11177  13.826  12.602   6.552  0.0124 -0.0267 -0.0074
  780POPS   C4A11178  14.209  12.543   6.488  0.2202  0.2061 -0.0486
  780POPS   C1B11179  13.358  11.600   6.334  0.0469 -0.0181  0.1450
  780POPS   C2B11180  13.143  11.336   6.681  0.0217  0.0298 -0.3935
  780POPS   C3B11181  12.898  11.251   6.996  0.1880 -0.1908 -0.0350
  780POPS   C4B11182  12.589  11.228   7.221 -0.0503  0.0531  0.1291
  781POPS   CNO11183   0.408  11.551   6.007 -0.0795  0.3020  0.3501
  781POPS   PO411184   0.225  11.197   5.673 -0.1678 -0.1979 -0.1875
  781POPS   GL111185   0.589  11.030   6.012 -0.1123  0.0438 -0.0116
  781POPS   GL211186   0.830  11.218   6.008 -0.0938  0.0305  0.2034
  781POPS   C1A11187   0.705  10.895   6.517  0.1362 -0.3338 -0.1917
  781POPS   D2A11188   0.613  11.016   6.870 -0.1230  0.1647 -0.0762
  781POPS   C3A11189   0.254  10.868   7.162  0.2000 -0.1532  0.2536
  781POPS   C4A11190  -0.038  10.882   7.508 -0.2070  0.1036 -0.0277
  781POPS   C1B11191   0.802  11.517   6.301 -0.4189  0.2649  0.0418
  781POPS   C2B11192   0.845  11.523   6.754 -0.1364  0.2033  0.3721
  781POPS   C3B11193   0.822  11.347   7.214 -0.2272 -0.1630  0.2931
  781POPS   C4B11194   0.586  11.087   7.454  0.1059  0.0028 -0.1733
  782POPS   CNO11195  17.226  12.983   4.974 -0.0089  0.0754  0.1563
  782POPS   PO411196  17.146  12.527   5.140  0.3398  0.2181  0.1064
  782POPS   GL111197  17.092  12.338   5.556  0.2136 -0.3784 -0.0111
  782POPS   GL211198  17.077  12.566   5.873 -0.1381 -0.2092  0.0041
  782POPS   C1A11199  17.153  12.030   5.883  0.1164  0.0602  0.0960
  782POPS   D2A11200  17.062  11.788   6.258  0.0567  0.1177 -0.1641
  782POPS   C3A11201  17.005  11.920   6.728 -0.0293  0.0519 -0.5550
  782POPS   C4A11202  16.732  11.826   7.234  0.4438  0.1086 -0.1768
  782POPS   C1B11203  17.246  12.397   6.149 -0.0329  0.0936 -0.0022
  782POPS   C2B11204  17.363  12.144   6.552 -0.0803 -0.0582 -0.1069
  782POPS   C3B11205  17.502  12.329   6.870  0.0691  0.0307  0.1426
  782POPS   C4B11206  17.589  12.313   7.379 -0.0667  0.2453  0.3971
  783POPS   CNO11207   7.946   6.053   4.845  0.3870 -0.1435 -0.1667
  783POPS   PO411208   8.198   6.118   5.260 -0.0309  0.3833  0.1392
  783POPS   GL111209   8.517   6.129   5.566  0.0332 -0.1505  0.0669
  783POPS   GL211210   8.393   6.077   5.898 -0.2393 -0.0057 -0.0566
  783POPS   C1A11211   8.803   6.364   5.674 -0.3388 -0.1372 -0.2634
  783POPS   D2A11212   9.250   6.525   5.672  0.1802 -0.1509  0.2785
  783POPS   C3A11213   9.217   6.833   5.973 -0.2599  0.0898 -0.0159
  783POPS   C4A11214   9.358   7.131   6.304  0.0408 -0.3179  0.1613
  783POPS   C1B11215   8.427   6.089   6.361  0.0590 -0.0220 -0.1878
  783POPS   C2B11216   8.685   6.135   6.678 -0.0884 -0.0677  0.0046
  783POPS   C3B11217   9.127   6.365   6.811 -0.0730 -0.4520 -0.2800
  783POPS   C4B11218   9.410   6.413   7.100  0.0556 -0.1169  0.0897
  784POPS   CNO11219  13.417  18.578   5.588 -0.0410 -0.3540 -0.1687
  784POPS   PO411220  13.883  18.621   5.746  0.3479  0.1030  0.1959
  784POPS   GL111221  13.900  18.648   6.195  0.0185  0.2372  0.1467
  784POPS   GL211222  13.705  18.912   6.290  0.1982 -0.2255 -0.1187
  784POPS   C1A11223  14.057  18.766   6.653 -0.2060  0.1619 -0.2176
  784POPS   D2A11224  14.003  18.852   7.105  0.0048 -0.1090  0.0574
  784POPS   C3A11225  14.128  18.533   7.339  0.0782  0.0938 -0.2166
  784POPS   C4A11226  14.390  18.283   7.629 -0.1854  0.2186 -0.1662
  784POPS   C1B11227  13.649  19.158   6.574 -0.1924  0.0814 -0.2196
  784POPS   C2B11228  13.544  19.241   7.000  0.5774  0.2245  0.2221
  784POPS   C3B11229  13.189  19.549   7.202 -0.0423 -0.2027 -0.0416
  784POPS   C4B11230  13.088  19.474   7.580  0.2571  0.2610  0.0454
  785POPS   CNO11231   3.993   1.063   5.071 -0.1095  0.5482 -0.0120
  785POPS   PO411232   4.314   0.734   4.860  0.4110  0.2451  0.4317
  785POPS   GL111233   4.238   0.756   5.429 -0.2998 -0.0116  0.1156
  785POPS   GL211234   4.479   1.006   5.471  0.1148 -0.0924 -0.0214
  785POPS   C1A11235   3.987   0.784   5.859  0.2895  0.0792 -0.4304
  785POPS   D2A11236   3.560   0.946   6.039 -0.2202 -0.3072 -0.0474
  785POPS   C3A11237   3.394   1.002   6.509 -0.2984  0.3595 -0.0343
  785POPS   C4A11238   3.318   0.925   6.892  0.3028 -0.1557 -0.2996
  785POPS   C1B11239   4.444   1.185   5.916  0.2150  0.1271 -0.2571
  785POPS   C2B11240   4.531   1.414   6.235  0.2752  0.0332 -0.0360
  785POPS   C3B11241   4.576   1.442   6.667  0.0298  0.0803  0.0670
  785POPS   C4B11242   4.464   1.686   7.050 -0.0311 -0.1354  0.0493
  786POPS   CNO11243   2.026  12.614   5.222  0.0878  0.0933  0.1762
  786POPS   PO411244   2.108  12.579   5.710  0.1338  0.0733 -0.0949
  786POPS   GL111245   2.060  12.783   6.065  0.4790 -0.1753  0.0488
  786POPS   GL211246   1.650  12.696   6.159  0.1536 -0.0971  0.3008
  786POPS   C1A11247   2.173  12.565   6.518  0.1763  0.1914  0.1830
  786POPS   D2A11248   2.110  12.754   6.997  0.2369 -0.3187  0.1672
  786POPS   C3A11249   1.687  12.879   7.231  0.0611 -0.0525  0.2152
  786POPS   C4A11250   1.393  12.985   7.510 -0.0903 -0.0988 -0.1240
  786POPS   C1B11251   1.941  12.981   6.470 -0.2796 -0.3130 -0.3768
  786POPS   C2B11252   1.976  13.226   6.837 -0.0907 -0.0351  0.1410
  786POPS   C3B11253   2.399  13.176   7.182  0.0487 -0.3304  0.0718
  786POPS   C4B11254   2.576  13.104   7.587 -0.4852 -0.1998 -0.1851
  787POPS   CNO11255   9.413  17.220   5.160 -0.1464 -0.1990  0.0370
  787POPS   PO411256   9.638  17.317   5.602 -0.0955 -0.2141 -0.1409
  787POPS   GL111257   9.646  17.621   5.945  0.0740 -0.3041  0.1795
  787POPS   GL211258   9.443  17.821   5.953 -0.1396 -0.2609  0.0866
  787POPS   C1A11259   9.761  17.464   6.286 -0.2088  0.5058 -0.1072
  787POPS   D2A11260   9.614  17.353   6.683  0.2450 -0.2913 -0.2911
  787POPS   C3A11261   9.558  17.727   6.972  0.0971  0.1893 -0.1236
  787POPS   C4A11262   9.595  18.189   6.898 -0.1889  0.2300 -0.0538
  787POPS   C1B11263   9.511  17.868   6.324  0.0131  0.0348  0.1732
  787POPS   C2B11264   9.841  17.931   6.540  0.0672 -0.2361 -0.5359
  787POPS   C3B11265  10.035  17.850   6.925  0.0325 -0.4129 -0.0261
  787POPS   C4B11266  10.293  17.673   7.179  0.0537 -0.1616 -0.3398
  788POPS   CNO11267  11.547  16.372   5.353 -0.1143  0.0704  0.5897
  788POPS   PO411268  11.528  16.707   5.496 -0.3055  0.1864  0.0552
  788POPS   GL111269  11.521  16.515   5.946  0.1218  0.1537  0.0790
  788POPS   GL211270  11.836  16.502   6.226 -0.0776  0.1932  0.0539
  788POPS   C1A11271  11.383  16.167   6.235  0.2799 -0.2027 -0.1134
  788POPS   D2A11272  11.095  16.060   6.553  0.1177 -0.0185 -0.1767
  788POPS   C3A11273  10.682  16.359   6.449  0.1883 -0.1714 -0.3553
  788POPS   C4A11274  10.316  16.461   6.672  0.2152  0.1931 -0.0635
  788POPS   C1B11275  11.905  16.461   6.681  0.2033  0.0229 -0.0580
  788POPS   C2B11276  11.793  16.310   6.933  0.1894  0.3284 -0.2588
  788POPS   C3B11277  11.623  16.483   7.309  0.2071  0.5007 -0.0813
  788POPS   C4B11278  11.741  16.591   7.688  0.0321  0.0161  0.2201
  789POPS   CNO11279   1.917   8.408   5.877 -0.0212  0.5108 -0.0628
  789POPS   PO411280   1.954   8.135   5.452 -0.1969 -0.1671  0.1391
  789POPS   GL111281   2.121   7.948   5.857  0.2541  0.1358 -0.0680
  789POPS   GL211282   2.461   7.842   5.753 -0.0597  0.0202  0.0971
  789POPS   C1A11283   2.196   7.910   6.356 -0.1075  0.1379  0.0257
  789POPS   D2A11284   2.332   7.683   6.667  0.2141 -0.0899  0.1628
  789POPS   C3A11285   2.240   7.546   6.990 -0.1968 -0.2289 -0.2552
  789POPS   C4A11286   2.484   7.265   7.300  0.1932 -0.0456  0.2149
  789POPS   C1B11287   2.647   8.041   6.127  0.0715  0.1891 -0.2529
  789POPS   C2B11288   2.556   8.138   6.585 -0.1872 -0.0289 -0.0483
  789POPS   C3B11289   2.632   7.947   7.023  0.1927  0.1312 -0.0519
  789POPS   C4B11290   2.784   7.626   7.194  0.1014  0.2247 -0.1771
  790POPS   CNO11291  17.441  13.924   5.744 -0.0109 -0.0253 -0.1999
  790POPS   PO411292  17.593  14.370   5.708  0.1303 -0.0172  0.2135
  790POPS   GL111293  17.623  14.367   6.042  0.0009 -0.0558 -0.1488
  790POPS   GL211294  17.833  14.608   6.192 -0.1857  0.3356  0.1089
  790POPS   C1A11295  17.419  14.457   6.418 -0.5082  0.0526  0.1073
  790POPS   D2A11296  17.043  14.244   6.670  0.1684 -0.2436  0.0948
  790POPS   C3A11297  16.853  14.250   7.117  0.0814  0.2643  0.1552
  790POPS   C4A11298  16.764  14.109   7.463 -0.0812 -0.1250  0.0280
  790POPS   C1B11299  17.808  14.800   6.626  0.2150 -0.1201  0.1687
  790POPS   C2B11300  17.855  14.717   7.143 -0.2271 -0.1486  0.1102
  790POPS   C3B11301  18.134  14.487   7.366  0.1305 -0.1211  0.1241
  790POPS   C4B11302  18.395  14.286   7.727  0.5613 -0.1888 -0.1507
  791POPS   CNO11303   9.959  12.277   5.275  0.2321 -0.1176 -0.2356
  791POPS   PO411304  10.289  12.503   5.551  0.1099  0.1437 -0.3777
  791POPS   GL111305  10.235  12.518   5.968 -0.0214  0.0973 -0.0384
  791POPS   GL211306  10.043  12.250   6.036 -0.1675 -0.0243  0.0570
  791POPS   C1A11307  10.217  12.417   6.478  0.0034 -0.0207 -0.0548
  791POPS   D2A11308  10.241  12.471   6.922 -0.1425 -0.0895  0.2755
  791POPS   C3A11309  10.348  12.198   7.292  0.1709  0.1759  0.1368
  791POPS   C4A11310  10.325  11.911   7.660  0.0362  0.2032  0.1304
  791POPS   C1B11311   9.977  11.958   6.417 -0.3304 -0.0492 -0.0063
  791POPS   C2B11312  10.065  11.992   6.851 -0.3709 -0.0034 -0.1505
  791POPS   C3B11313  10.146  11.739   7.139  0.0234  0.4243  0.0597
  791POPS   C4B11314   9.857  11.528   7.416 -0.1998 -0.1751  0.0248
  792POPS   CNO11315   3.097  13.425   5.239  0.0878  0.1087 -0.0940
  792POPS   PO411316   3.156  13.804   5.497 -0.1899  0.1030  0.1271
  792POPS   GL111317   3.318  13.899   5.866 -0.2741  0.0014  0.2090
  792POPS   GL211318   3.051  13.692   6.064 -0.1501  0.1079 -0.0154
  792POPS   C1A11319   3.567  13.670   6.121 -0.0648 -0.0098  0.1955
  792POPS   D2A11320   3.548  13.591   6.621  0.3286  0.0957 -0.0903
  792POPS   C3A11321   3.910  13.740   6.939  0.2038  0.0762  0.2390
  792POPS   C4A11322   4.181  13.889   7.305  0.0041  0.0495  0.0532
  792POPS   C1B11323   3.216  13.935   6.407  0.0220 -0.0755  0.2823
  792POPS   C2B11324   3.471  14.119   6.636 -0.2096 -0.1408 -0.1899
  792POPS   C3B11325   3.890  14.235   6.749 -0.2850  0.2270 -0.1344
  792POPS   C4B11326   4.166  14.270   6.513  0.1550 -0.3286 -0.0905
  793POPS   CNO11327   5.727   5.442   4.894 -0.0346  0.1106 -0.0054
  793POPS   PO411328   5.797   5.784   5.305 -0.0203  0.2783 -0.1708
  793POPS   GL111329   5.901   5.610   5.724  0.0454 -0.3632  0.0808
  793POPS   GL211330   6.031   5.400   5.825 -0.0017 -0.0951  0.0282
  793POPS   C1A11331   5.721   5.605   6.166  0.1002 -0.0099  0.0670
  793POPS   D2A11332   5.514   5.670   6.492 -0.3841  0.1298 -0.1308
  793POPS   C3A11333   5.529   6.129   6.651  0.2997 -0.0267  0.0453
  793POPS   C4A11334   5.629   6.384   6.890  0.0308 -0.2555  0.1860
  793POPS   C1B11335   6.231   5.718   6.098  0.4046  0.0941  0.0121
  793POPS   C2B11336   6.049   5.684   6.520 -0.0304  0.1640 -0.4049
  793POPS   C3B11337   5.966   5.782   6.789 -0.0227  0.0556 -0.0455
  793POPS   C4B11338   5.915   6.068   7.151 -0.0475  0.2168 -0.1329
  794POPS   CNO11339   2.962  12.764   5.896  0.0149  0.2001  0.4447
  794POPS   PO411340   3.072  13.067   5.618  0.1624 -0.1042  0.1248
  794POPS   GL111341   3.151  13.163   6.121 -0.1483  0.1702  0.3182
  794POPS   GL211342   3.461  13.189   6.222  0.0290  0.0843  0.3297
  794POPS   C1A11343   2.843  13.420   6.427  0.0892  0.1241  0.0867
  794POPS   D2A11344   2.975  13.662   6.804  0.1298 -0.2108  0.2577
  794POPS   C3A11345   3.209  13.920   6.987  0.2102  0.1095 -0.1742
  794POPS   C4A11346   3.591  14.227   7.094 -0.3095  0.0521  0.0050
  794POPS   C1B11347   3.259  13.204   6.615 -0.1751  0.0892  0.1672
  794POPS   C2B11348   3.072  13.205   7.003 -0.1442  0.0556 -0.1969
  794POPS   C3B11349   2.897  13.495   7.388  0.0263  0.0656 -0.1595
  794POPS   C4B11350   2.829  13.915   7.346  0.0204 -0.0223  0.4223
  795POPS   CNO11351  10.750  15.064   5.541 -0.0171  0.1167  0.1096
  795POPS   PO411352  10.619  14.632   5.563  0.1803 -0.0703 -0.3066
  795POPS   GL111353  10.841  14.682   5.903 -0.3061  0.0111  0.0914
  795POPS   GL211354  11.038  14.398   5.840  0.0458 -0.0632  0.2850
  795POPS   C1A11355  10.925  15.012   6.190  0.1624  0.3064 -0.1077
  795POPS   D2A11356  10.766  15.231   6.526  0.2007 -0.1699  0.2233
  795POPS   C3A11357  10.956  15.622   6.678 -0.0973 -0.0190  0.0202
  795POPS   C4A11358  10.992  15.965   7.045 -0.0970 -0.1192  0.1941
  795POPS   C1B11359  10.888  14.286   6.250  0.1141  0.0501 -0.1507
  795POPS   C2B11360  10.814  14.320   6.711 -0.2013  0.0485  0.3066
  795POPS   C3B11361  10.994  14.387   7.087  0.0623  0.2715  0.1905
  795POPS   C4B11362  11.410  14.474   7.173 -0.2027 -0.0306 -0.0452
  796POPS   CNO11363   2.427  17.986   5.154 -0.0200  0.1368 -0.0529
  796POPS   PO411364   2.857  18.202   5.047  0.1092 -0.1148 -0.0109
  796POPS   GL111365   2.850  18.146   5.437 -0.0752  0.1664  0.0397
  796POPS   GL211366   2.667  17.972   5.669  0.0726  0.0351 -0.0632
  796POPS   C1A11367   2.970  18.416   5.798  0.1060  0.1887 -0.2621
  796POPS   D2A11368   2.854  18.596   6.242 -0.3790  0.1726  0.0681
  796POPS   C3A11369   2.937  18.963   6.092 -0.0175 -0.0138 -0.3522
  796POPS   C4A11370   2.709  19.113   5.703 -0.0031 -0.0172  0.0076
  796POPS   C1B11371   3.120  17.870   5.756 -0.2129  0.2468  0.3168
  796POPS   C2B11372   3.404  17.602   5.947 -0.0052  0.1171  0.1130
  796POPS   C3B11373   3.284  17.376   6.323 -0.1154  0.1731 -0.0421
  796POPS   C4B11374   3.377  17.523   6.784  0.1092 -0.0892  0.2462
  797POPS   CNO11375  10.086   7.072   5.293 -0.2305 -0.3224  0.1711
  797POPS   PO411376  10.558   6.971   5.208  0.0435  0.0196  0.3085
  797POPS   GL111377  10.543   6.978   5.652  0.0384 -0.0597  0.2636
  797POPS   GL211378  10.220   7.130   5.823 -0.0192  0.2255 -0.1236
  797POPS   C1A11379  10.589   6.560   5.845  0.0410 -0.2038 -0.0185
  797POPS   D2A11380  10.912   6.449   6.198 -0.0757  0.0200  0.0996
  797POPS   C3A11381  10.709   6.204   6.507 -0.4575  0.0463  0.3671
  797POPS   C4A11382  10.597   5.720   6.501  0.0585 -0.1615 -0.0926
  797POPS   C1B11383  10.394   6.839   6.179 -0.1200  0.1930  0.2253
  797POPS   C2B11384  10.627   6.844   6.539  0.4412 -0.3155  0.4314
  797POPS   C3B11385  10.775   6.896   6.875  0.2214  0.0613  0.0901
  797POPS   C4B11386  10.914   7.200   7.013 -0.1170 -0.1194  0.3498
  798POPS   CNO11387  12.522   0.456   5.112  0.2237 -0.0185 -0.2140
  798POPS   PO411388  12.354   0.362   5.545  0.1088 -0.1203 -0.2176
  798POPS   GL111389  12.215   0.296   5.991  0.0602 -0.2722  0.3421
  798POPS   GL211390  12.513   0.400   6.015  0.0296  0.1578  0.1465
  798POPS   C1A11391  11.979   0.217   6.400 -0.1367 -0.1114  0.0039
  798POPS   D2A11392  11.540   0.418   6.370 -0.0274 -0.1829 -0.0064
  798POPS   C3A11393  11.568   0.542   6.772 -0.0211  0.0326  0.2253
  798POPS   C4A11394  11.406   0.760   7.101  0.1714  0.0588 -0.2009
  798POPS   C1B11395  12.355   0.573   6.357 -0.2915 -0.0522 -0.0619
  798POPS   C2B11396  12.131   0.365   6.839  0.0023 -0.2744  0.0757
  798POPS   C3B11397  12.301   0.301   7.280 -0.2484  0.0962 -0.1791
  798POPS   C4B11398  12.135   0.266   7.690 -0.1928  0.0088 -0.2126
  799POPS   CNO11399   4.832   3.539   4.943  0.0469  0.0613  0.1721
  799POPS   PO411400   5.193   3.329   5.224 -0.0470 -0.0394  0.0573
  799POPS   GL111401   5.180   3.455   5.635  0.1346  0.0864  0.2234
  799POPS   GL211402   5.460   3.340   5.701  0.2482  0.0389  0.0570
  799POPS   C1A11403   5.162   3.754   5.988 -0.0658  0.1268  0.0095
  799POPS   D2A11404   5.270   3.857   6.396  0.1638 -0.1155  0.2524
  799POPS   C3A11405   5.498   3.610   6.617 -0.1138 -0.0700 -0.0610
  799POPS   C4A11406   5.777   3.477   6.994  0.1273 -0.0242 -0.1917
  799POPS   C1B11407   5.574   3.326   6.145 -0.0140 -0.0439 -0.0555
  799POPS   C2B11408   5.729   3.176   6.465 -0.1406 -0.3651 -0.1015
  799POPS   C3B11409   5.666   3.028   6.938 -0.1974  0.1233 -0.1536
  799POPS   C4B11410   6.061   2.963   7.227 -0.1461  0.2583 -0.2319
  800POPS   CNO11411  18.370  13.084   5.258  0.0727 -0.1850  0.1786
  800POPS   PO411412  18.142  13.461   5.371  0.0055  0.0864 -0.2241
  800POPS   GL111413  18.267  13.399   5.858 -0.0281 -0.0818  0.0894
  800POPS   GL211414  18.348  13.124   5.887  0.0149 -0.0138 -0.1348
  800POPS   C1A11415  18.027  13.335   6.328 -0.3310  0.0630 -0.0164
  800POPS   D2A11416  17.810  12.943   6.602  0.0150 -0.1525  0.2398
  800POPS   C3A11417  17.746  12.810   6.990  0.0329  0.2846 -0.0369
  800POPS   C4A11418  17.827  12.812   7.473 -0.4726 -0.1354 -0.0809
  800POPS   C1B11419  18.015  12.777   6.148 -0.1611 -0.1832  0.0557
  800POPS   C2B11420  17.708  12.496   6.419  0.2021 -0.0017 -0.0751
  800POPS   C3B11421  17.905  12.099   6.558  0.0102 -0.0285  0.0084
  800POPS   C4B11422  18.144  11.700   6.523  0.1841 -0.0080  0.0987
  801POPS   CNO11423  12.147   5.829   5.625  0.0190 -0.0505  0.1251
  801POPS   PO411424  11.759   5.955   5.525 -0.1939  0.1016  0.0656
  801POPS   GL111425  11.836   5.818   6.010  0.0204 -0.0853  0.2369
  801POPS   GL211426  11.627   5.744   6.078 -0.0378 -0.1498  0.0181
  801POPS   C1A11427  11.977   5.803   6.463 -0.1343 -0.1412  0.1804
  801POPS   D2A11428  11.853   5.713   6.860 -0.0447 -0.1946  0.1437
  801POPS   C3A11429  11.475   5.577   7.034  0.2000 -0.3837  0.0676
  801POPS   C4A11430  11.248   5.695   7.361  0.1497  0.0540  0.2312
  801POPS   C1B11431  11.457   5.669   6.356 -0.1048 -0.3170 -0.1663
  801POPS   C2B11432  11.434   5.295   6.554  0.0201 -0.0149 -0.1839
  801POPS   C3B11433  11.714   5.124   6.860 -0.1582  0.1190 -0.1607
  801POPS   C4B11434  11.812   4.800   7.060 -0.2056 -0.3964 -0.0838
  802POPS   CNO11435   2.895   9.213   5.713 -0.0999  0.2317  0.0767
  802POPS   PO411436   2.606   8.930   5.774  0.2006 -0.0210 -0.2899
  802POPS   GL111437   2.754   8.876   6.101 -0.0722 -0.0656 -0.2377
  802POPS   GL211438   3.007   8.997   6.203 -0.3564  0.0184  0.1007
  802POPS   C1A11439   2.885   8.494   6.283 -0.0231 -0.2110 -0.0988
  802POPS   D2A11440   3.034   8.269   6.643  0.0102  0.0235  0.0027
  802POPS   C3A11441   3.228   8.415   7.085  0.1436  0.1943  0.1484
  802POPS   C4A11442   3.384   8.214   7.390 -0.2990  0.1139 -0.0703
  802POPS   C1B11443   2.741   8.935   6.552  0.3483  0.0478 -0.2287
  802POPS   C2B11444   2.562   9.015   6.916 -0.2467 -0.1292  0.0057
  802POPS   C3B11445   2.272   8.788   7.174  0.2758  0.1902 -0.2953
  802POPS   C4B11446   1.980   8.542   6.969 -0.1278 -0.1990 -0.2879
  803POPS   CNO11447  13.487   1.857   4.828  0.2275  0.0973  0.1350
  803POPS   PO411448  13.788   1.802   5.152 -0.2093 -0.0338  0.1744
  803POPS   GL111449  13.643   1.929   5.632  0.0207 -0.1820  0.0227
  803POPS   GL211450  13.690   1.765   5.965  0.0299  0.2056 -0.2722
  803POPS   C1A11451  13.359   2.167   5.898 -0.1379  0.0031 -0.1294
  803POPS   D2A11452  13.129   2.212   6.339  0.0512  0.0601 -0.1179
  803POPS   C3A11453  13.094   1.934   6.626 -0.4408 -0.1327 -0.1622
  803POPS   C4A11454  13.127   2.055   7.110  0.3181  0.3189  0.4359
  803POPS   C1B11455  13.611   1.477   6.288  0.2321 -0.3641 -0.1084
  803POPS   C2B11456  13.627   1.473   6.752  0.1214  0.1476  0.1175
  803POPS   C3B11457  13.794   1.538   7.183 -0.1456 -0.0285 -0.2592
  803POPS   C4B11458  13.836   1.417   7.563 -0.2287  0.0040  0.0361
  804POPS   CNO11459  12.681   6.373   5.268  0.1238 -0.4050 -0.0576
  804POPS   PO411460  12.591   5.922   5.446 -0.2527  0.0997  0.0127
  804POPS   GL111461  12.603   5.666   5.864  0.2298  0.1531  0.0901
  804POPS   GL211462  12.311   5.556   6.036  0.0769  0.1621 -0.0734
  804POPS   C1A11463  12.939   5.749   6.163 -0.2406  0.1687 -0.2268
  804POPS   D2A11464  13.218   6.060   6.254  0.1008 -0.3553 -0.0053
  804POPS   C3A11465  13.044   6.411   6.243  0.0282  0.0117  0.0792
  804POPS   C4A11466  12.716   6.546   5.911  0.1400  0.2919 -0.2420
  804POPS   C1B11467  12.440   5.581   6.386  0.3488 -0.2288 -0.1306
  804POPS   C2B11468  12.420   5.619   6.885  0.0540  0.1866 -0.0357
  804POPS   C3B11469  12.396   5.252   7.206  0.0510  0.0616  0.3012
  804POPS   C4B11470  12.234   4.884   7.304 -0.0503 -0.2827  0.0484
  805POPS   CNO11471   9.962  11.652   5.382  0.2594 -0.0542 -0.0143
  805POPS   PO411472  10.092  11.252   5.437 -0.2460  0.1419  0.1660
  805POPS   GL111473   9.893  11.344   5.804  0.0105  0.1531 -0.3692
  805POPS   GL211474  10.103  11.116   6.095 -0.3128 -0.1537 -0.2163
  805POPS   C1A11475   9.775  11.446   6.219 -0.2770 -0.1395 -0.1067
  805POPS   D2A11476   9.563  11.582   6.563  0.0534  0.0370 -0.1278
  805POPS   C3A11477   9.299  11.290   6.812 -0.0049  0.0879 -0.1070
  805POPS   C4A11478   9.071  11.276   7.237  0.3475 -0.1389 -0.1025
  805POPS   C1B11479  10.305  11.519   6.324  0.1105 -0.2609  0.3381
  805POPS   C2B11480  10.074  11.446   6.680  0.2512 -0.3017 -0.1018
  805POPS   C3B11481  10.012  10.965   7.000 -0.0252 -0.0788  0.0527
  805POPS   C4B11482   9.940  10.555   6.872  0.2011 -0.0206 -0.0966
  806POPS   CNO11483  16.509   3.929   4.814  0.0884  0.2797  0.1298
  806POPS   PO411484  16.421   4.077   5.202 -0.0407  0.0642 -0.1339
  806POPS   GL111485  16.417   4.269   5.577  0.0353  0.0879  0.1049
  806POPS   GL211486  16.605   4.573   5.579 -0.0646 -0.1466 -0.1249
  806POPS   C1A11487  16.117   4.135   5.882 -0.4086  0.1159  0.0962
  806POPS   D2A11488  16.040   3.820   6.264  0.1943  0.2007  0.2646
  806POPS   C3A11489  16.393   3.701   6.495  0.4510  0.0773 -0.3084
  806POPS   C4A11490  16.560   3.421   6.862 -0.2065 -0.0938  0.4959
  806POPS   C1B11491  16.408   4.512   5.988 -0.4214  0.1511  0.1025
  806POPS   C2B11492  16.128   4.399   6.298  0.1125  0.0173 -0.2383
  806POPS   C3B11493  15.918   4.271   6.680 -0.0562  0.4115  0.3482
  806POPS   C4B11494  15.890   4.057   7.104  0.0122 -0.1739 -0.0368
  807POPS   CNO11495  18.768   7.711   5.847  0.1824 -0.3146 -0.0349
  807POPS   PO411496  18.752   7.296   5.934  0.1643  0.1360  0.0900
  807POPS   GL111497  18.718   7.397   6.341 -0.3732 -0.1352  0.0223
  807POPS   GL211498  18.699   7.806   6.332  0.0113  0.1326 -0.1365
  807POPS   C1A11499  18.289   7.662   6.536 -0.0076 -0.0763 -0.0370
  807POPS   D2A11500  18.028   7.762   6.987  0.0717 -0.0781  0.0963
  807POPS   C3A11501  18.186   7.616   7.342  0.0859  0.0500 -0.1335
  807POPS   C4A11502  18.458   7.349   7.589 -0.1464  0.2671 -0.1132
  807POPS   C1B11503  18.856   7.718   6.663 -0.0181  0.0978  0.0595
  807POPS   C2B11504  19.113   7.448   6.769  0.0471  0.3345  0.2780
  807POPS   C3B11505  19.331   7.182   7.008 -0.0945  0.0893 -0.1978
  807POPS   C4B11506  19.520   6.850   7.319 -0.2967 -0.1893 -0.1350
  808POPS   CNO11507  15.425   6.150   5.160  0.1732 -0.1733  0.2198
  808POPS   PO411508  15.211   6.500   5.116 -0.1369 -0.2537 -0.1345
  808POPS   GL111509  15.061   6.498   5.558  0.2542 -0.1358  0.1716
  808POPS   GL211510  15.018   6.198   5.500 -0.3563  0.2002  0.2561
  808POPS   C1A11511  14.859   6.683   5.980  0.0249  0.0658  0.1102
  808POPS   D2A11512  14.643   7.036   6.049 -0.1226  0.6717 -0.1096
  808POPS   C3A11513  14.508   7.121   6.397 -0.1991 -0.2048  0.0144
  808POPS   C4A11514  14.531   7.399   6.690 -0.0787 -0.1996  0.1956
  808POPS   C1B11515  15.179   6.250   5.961 -0.1942 -0.0039 -0.0682
  808POPS   C2B11516  15.136   6.432   6.379  0.0593  0.0177  0.1921
  808POPS   C3B11517  15.057   6.412   6.790 -0.0511  0.1935  0.2090
  808POPS   C4B11518  14.895   6.615   7.132 -0.2198 -0.2653  0.0235
  809POPS   CNO11519   0.016   3.340   4.774  0.0958  0.2044 -0.2498
  809POPS   PO411520   0.327   3.515   5.010  0.1508 -0.0441  0.1589
  809POPS   GL111521   0.347   3.382   5.380 -0.1764 -0.2486 -0.1168
  809POPS   GL211522   0.065   3.506   5.639 -0.0106 -0.1201 -0.2899
  809POPS   C1A11523   0.709   3.221   5.567 -0.4098 -0.1560 -0.1687
  809POPS   D2A11524   1.196   2.979   5.510 -0.0529 -0.3185 -0.0229
  809POPS   C3A11525   1.638   2.955   5.693  0.1020  0.0089  0.1688
  809POPS   C4A11526   1.992   3.153   5.942  0.0695 -0.1656  0.1445
  809POPS   C1B11527   0.284   3.429   5.914 -0.3308  0.0517 -0.1295
  809POPS   C2B11528   0.541   3.210   6.199  0.0360 -0.1307  0.2111
  809POPS   C3B11529   0.330   3.160   6.641 -0.0426 -0.3965 -0.0628
  809POPS   C4B11530  -0.005   2.888   6.742  0.2018 -0.2590 -0.2235
  810POPS   CNO11531   2.856   6.294   5.156 -0.1900  0.1077 -0.0300
  810POPS   PO411532   2.555   6.281   5.363 -0.0264  0.3895  0.0954
  810POPS   GL111533   2.703   6.159   5.670  0.0551  0.0349  0.1690
  810POPS   GL211534   2.706   5.889   5.721  0.2339 -0.0572 -0.1533
  810POPS   C1A11535   2.827   6.094   6.165 -0.3691 -0.1225 -0.1954
  810POPS   D2A11536   2.508   6.180   6.470 -0.2837  0.0053 -0.1395
  810POPS   C3A11537   2.422   5.788   6.668  0.2970  0.0175  0.0017
  810POPS   C4A11538   2.681   5.393   6.871 -0.0765 -0.3662 -0.0765
  810POPS   C1B11539   2.591   5.694   6.181  0.2724  0.2938 -0.2234
  810POPS   C2B11540   2.458   5.285   6.335  0.2694  0.0150 -0.1017
  810POPS   C3B11541   2.075   4.966   6.382  0.1905  0.4258 -0.2581
  810POPS   C4B11542   1.990   4.694   6.686 -0.0566  0.0199 -0.1188
  811POPS   CNO11543  14.700   6.544   5.124  0.0599 -0.2357  0.3870
  811POPS   PO411544  14.516   6.147   5.323  0.0722  0.3091 -0.1591
  811POPS   GL111545  14.574   6.073   5.747 -0.1098 -0.0378 -0.3323
  811POPS   GL211546  14.455   5.770   5.794 -0.2325  0.0475 -0.2069
  811POPS   C1A11547  14.639   6.261   6.151 -0.2639  0.0680 -0.0404
  811POPS   D2A11548  14.621   6.556   6.551  0.0047  0.1229  0.3994
  811POPS   C3A11549  14.630   6.831   6.783  0.0681  0.2456  0.0492
  811POPS   C4A11550  14.622   7.076   7.135 -0.0826  0.0309  0.1067
  811POPS   C1B11551  14.161   6.054   6.037 -0.1871 -0.0368 -0.0825
  811POPS   C2B11552  13.732   6.213   5.947  0.1674 -0.3291  0.0251
  811POPS   C3B11553  13.554   6.450   6.261 -0.1565  0.2098 -0.1342
  811POPS   C4B11554  13.670   6.656   6.595 -0.0502  0.1754 -0.0548
  812YOPS   CNO11555  13.585  13.865   5.533  0.1043 -0.2909 -0.2023
  812YOPS   PO411556  13.768  14.149   5.539 -0.2726  0.1673  0.1876
  812YOPS   GL111557  13.719  13.993   5.985  0.0403 -0.2181  0.2616
  812YOPS   GL211558  13.424  13.757   6.028 -0.1081 -0.0927 -0.1404
  812YOPS   C1A11559  13.561  14.169   6.334 -0.0521 -0.1525  0.0475
  812YOPS   D2A11560  13.325  14.189   6.669 -0.0460  0.0953  0.3420
  812YOPS   C3A11561  13.210  14.093   7.063  0.5015  0.0900 -0.2066
  812YOPS   C4A11562  13.340  13.973   7.370  0.2001  0.0309 -0.1297
  812YOPS   C1B11563  13.571  13.576   6.451 -0.1764 -0.0806  0.2840
  812YOPS   C2B11564  13.816  13.243   6.546  0.2019 -0.1593  0.2146
  812YOPS   D3B11565  14.144  13.036   6.369  0.0714 -0.0031  0.3876
  812YOPS   C4B11566  14.441  13.290   6.176  0.2023  0.3456 -0.0157
  813YOPS   CNO11567   8.471   7.335   5.481  0.1621 -0.0869 -0.3345
  813YOPS   PO411568   8.130   6.887   5.586 -0.0739  0.0726 -0.1826
  813YOPS   GL111569   8.378   6.690   5.890  0.0597  0.1724 -0.2036
  813YOPS   GL211570   8.260   6.761   6.305  0.2892  0.2791  0.2161
  813YOPS   C1A11571   8.718   6.521   6.155  0.1134  0.2535  0.1620
  813YOPS   D2A11572   8.989   6.225   6.157 -0.2110 -0.2612 -0.2444
  813YOPS   C3A11573   9.219   6.033   6.498 -0.3738 -0.1060 -0.1318
  813YOPS   C4A11574   9.039   5.683   6.608 -0.0339 -0.0682 -0.4439
  813YOPS   C1B11575   8.211   6.839   6.709 -0.1224  0.2409 -0.0296
  813YOPS   C2B11576   8.259   6.855   7.257  0.4497  0.2735  0.5567
  813YOPS   D3B11577   8.213   6.687   7.691 -0.1056  0.2135 -0.0966
  813YOPS   C4B11578   8.424   6.312   7.824 -0.1039  0.4556 -0.1282
  814YOPS   CNO11579   0.128   1.213   5.087  0.3681  0.5335 -0.0333
  814YOPS   PO411580  -0.029   0.929   5.246  0.3448  0.1302 -0.1809
  814YOPS   GL111581   0.037   0.811   5.714  0.1413 -0.0347 -0.0778
  814YOPS   GL211582   0.106   0.558   5.980 -0.1312  0.2660  0.1443
  814YOPS   C1A11583  -0.348   0.969   6.065 -0.1259 -0.0616 -0.1046
  814YOPS   D2A11584  -0.293   1.222   6.397 -0.1542 -0.0669  0.2678
  814YOPS   C3A11585   0.012   1.343   6.763 -0.1082  0.0626 -0.2592
  814YOPS   C4A11586  -0.157   1.446   7.160 -0.1558 -0.1194  0.0756
  814YOPS   C1B11587  -0.140   0.537   6.315  0.1068  0.1472 -0.0188
  814YOPS   C2B11588  -0.140   0.790   6.728 -0.1943 -0.0129  0.1042
  814YOPS   D3B11589   0.218   0.935   6.997 -0.2810  0.2527 -0.1197
  814YOPS   C4B11590   0.262   0.779   7.446  0.2713 -0.0729 -0.1384
  815YOPS   CNO11591  13.072   0.662   5.279 -0.0262 -0.1633 -0.0195
  815YOPS   PO411592  12.847   0.467   5.495  0.2263 -0.0228 -0.4229
  815YOPS   GL111593  12.678   0.804   5.772  0.1032  0.0261  0.1779
  815YOPS   GL211594  12.620   1.227   5.743 -0.2024 -0.1069  0.1110
  815YOPS   C1A11595  12.396   1.070   6.176 -0.2909 -0.0714 -0.1415
  815YOPS   D2A11596  12.230   1.040   6.648  0.0302 -0.0366 -0.1272
  815YOPS   C3A11597  12.324   1.040   7.150  0.0102  0.1373  0.1139
  815YOPS   C4A11598  12.184   0.761   7.424  0.1202 -0.0330  0.1976
  815YOPS   C1B11599  12.684   1.437   6.087 -0.1090  0.0247  0.0821
  815YOPS   C2B11600  12.522   1.471   6.582 -0.0528 -0.2221 -0.2035
  815YOPS   D3B11601  12.667   1.405   7.057 -0.0984 -0.2449 -0.1171
  815YOPS   C4B11602  12.646   1.768   7.396  0.3153 -0.2757 -0.0923
  816YOPS   CNO11603  13.196  18.126   5.606 -0.1132 -0.2523  0.1306
  816YOPS   PO411604  13.249  17.739   5.854  0.0255  0.1014  0.3010
  816YOPS   GL111605  13.034  17.900   6.186  0.1633 -0.1497 -0.1174
  816YOPS   GL211606  13.285  17.922   6.326  0.1698 -0.1221 -0.1506
  816YOPS   C1A11607  12.767  17.968   6.568  0.0110  0.1554  0.1816
  816YOPS   D2A11608  12.859  17.934   7.055  0.1544  0.3892 -0.2935
  816YOPS   C3A11609  12.754  17.746   7.440 -0.1242  0.0965 -0.0038
  816YOPS   C4A11610  12.325  17.444   7.614 -0.0052  0.2408  0.0738
  816YOPS   C1B11611  13.291  17.798   6.786  0.2967 -0.1121 -0.1206
  816YOPS   C2B11612  13.301  17.624   7.242  0.1606 -0.2437  0.0672
  816YOPS   D3B11613  13.469  17.678   7.578 -0.0239 -0.5986 -0.0861
  816YOPS   C4B11614  13.155  17.823   7.860 -0.2085 -0.0403 -0.1615
  817YOPS   CNO11615   4.516   7.010   4.834  0.0955 -0.0001  0.0603
  817YOPS   PO411616   4.574   7.253   5.203 -0.0771  0.1051  0.1482
  817YOPS   GL111617   4.428   7.012   5.587 -0.2328  0.0257  0.0662
  817YOPS   GL211618   4.087   7.129   5.688  0.0027  0.1338  0.2684
  817YOPS   C1A11619   4.474   6.990   6.048 -0.3849 -0.2121 -0.3349
  817YOPS   D2A11620   4.704   7.381   6.306 -0.1583 -0.1459  0.0078
  817YOPS   C3A11621   4.693   7.610   6.643 -0.0650  0.2106 -0.1472
  817YOPS   C4A11622   4.707   7.514   7.009 -0.3322 -0.0687  0.1041
  817YOPS   C1B11623   4.057   6.790   5.989 -0.0087 -0.0769  0.2116
  817YOPS   C2B11624   3.992   6.764   6.392 -0.1367 -0.3293 -0.0448
  817YOPS   D3B11625   3.842   6.421   6.706  0.0011  0.2746  0.0159
  817YOPS   C4B11626   3.815   6.459   7.113 -0.2162 -0.2396 -0.0486
  818YOPS   CNO11627   3.179   7.202   4.971  0.0476 -0.1838  0.1042
  818YOPS   PO411628   2.938   6.848   5.127  0.0830  0.0896 -0.0653
  818YOPS   GL111629   2.909   6.615   5.521 -0.0150  0.2190 -0.3303
  818YOPS   GL211630   3.181   6.351   5.558  0.2827 -0.1923  0.3404
  818YOPS   C1A11631   2.743   6.551   5.951 -0.0797 -0.0672  0.2313
  818YOPS   D2A11632   2.781   6.728   6.431 -0.1813  0.1313  0.0077
  818YOPS   C3A11633   2.847   6.541   6.863  0.0077  0.1146  0.1333
  818YOPS   C4A11634   3.127   6.611   7.164  0.0456  0.1054 -0.0711
  818YOPS   C1B11635   3.299   6.142   5.835 -0.2000  0.0878  0.1892
  818YOPS   C2B11636   3.640   5.852   5.842 -0.2671  0.1234  0.0944
  818YOPS   D3B11637   3.950   5.812   5.660  0.0552 -0.5706 -0.3106
  818YOPS   C4B11638   4.249   5.387   5.713  0.3262 -0.0765  0.1316
  819YOPS   CNO11639   9.310   6.038   5.598  0.0852 -0.4048  0.3002
  819YOPS   PO411640   9.649   5.725   5.418 -0.1242  0.5117 -0.1576
  819YOPS   GL111641   9.901   5.816   5.676  0.1494 -0.3132 -0.2168
  819YOPS   GL211642  10.118   5.622   5.778 -0.2848  0.0015 -0.1619
  819YOPS   C1A11643   9.856   5.870   6.099  0.0984 -0.2868  0.0264
  819YOPS   D2A11644   9.723   5.918   6.419 -0.3461 -0.1826  0.0714
  819YOPS   C3A11645   9.660   5.961   6.850  0.0271  0.1089 -0.1674
  819YOPS   C4A11646   9.348   5.911   7.118 -0.1365  0.2386 -0.0267
  819YOPS   C1B11647  10.051   5.444   6.157 -0.1256  0.0279  0.3373
  819YOPS   C2B11648  10.059   5.541   6.625 -0.2369 -0.2537 -0.0920
  819YOPS   D3B11649  10.325   5.599   7.085 -0.0417 -0.5427 -0.2849
  819YOPS   C4B11650  10.164   5.849   7.489 -0.1335  0.3153 -0.0028
  820YOPS   CNO11651   2.326  15.411   4.502  0.5716 -0.0795  0.5072
  820YOPS   PO411652   2.197  15.335   4.958  0.0067 -0.2106 -0.0415
  820YOPS   GL111653   2.151  15.489   5.342 -0.1083  0.2319 -0.1695
  820YOPS   GL211654   2.338  15.698   5.621  0.0733  0.0968 -0.0372
  820YOPS   C1A11655   1.854  15.738   5.639  0.1160 -0.2515  0.3120
  820YOPS   D2A11656   1.552  15.704   5.932  0.0821 -0.2068 -0.1561
  820YOPS   C3A11657   1.529  15.551   6.310  0.0650 -0.0210  0.0160
  820YOPS   C4A11658   1.704  15.179   6.378  0.0547 -0.0346  0.0290
  820YOPS   C1B11659   2.424  15.313   5.793  0.2536 -0.2996  0.0094
  820YOPS   C2B11660   2.599  15.073   6.083 -0.4440 -0.0577 -0.1996
  820YOPS   D3B11661   2.749  14.817   6.464  0.3540 -0.0610  0.0861
  820YOPS   C4B11662   3.082  14.923   6.729 -0.2289  0.2521 -0.1850
  821YOPS   CNO11663   9.934  15.613   5.477  0.3117 -0.0532  0.3313
  821YOPS   PO411664   9.779  15.154   5.594  0.0317  0.3015  0.1037
  821YOPS   GL111665   9.399  15.415   5.559  0.0528  0.2380 -0.4262
  821YOPS   GL211666   9.136  15.378   5.759 -0.0138 -0.1922  0.0298
  821YOPS   C1A11667   9.391  15.726   6.000  0.1572 -0.2426  0.3550
  821YOPS   D2A11668   9.374  15.845   6.389 -0.2691  0.0948  0.2819
  821YOPS   C3A11669   9.516  16.071   6.742  0.0194  0.3824  0.2901
  821YOPS   C4A11670   9.401  16.343   7.086 -0.3057  0.0273 -0.2122
  821YOPS   C1B11671   8.810  15.449   5.920  0.0329 -0.0486  0.0386
  821YOPS   C2B11672   8.926  15.559   6.259 -0.2100 -0.2240 -0.2545
  821YOPS   D3B11673   8.906  15.878   6.589  0.0148 -0.0097  0.1045
  821YOPS   C4B11674   8.959  16.161   6.942  0.1282 -0.1289  0.1030
  822YOPS   CNO11675  18.513   4.348   5.386  0.3193 -0.1251 -0.2717
  822YOPS   PO411676  18.728   4.113   5.129 -0.5124 -0.0312  0.1502
  822YOPS   GL111677  18.802   3.984   5.504  0.1828  0.2674 -0.0247
  822YOPS   GL211678  18.597   3.775   5.590 -0.1722 -0.0190 -0.0469
  822YOPS   C1A11679  18.716   4.083   5.947  0.1911 -0.2299 -0.0685
  822YOPS   D2A11680  18.349   3.937   6.140  0.5019 -0.4172  0.0339
  822YOPS   C3A11681  18.049   4.186   6.231 -0.0278 -0.2187 -0.1239
  822YOPS   C4A11682  17.688   4.138   6.024 -0.2224 -0.1062  0.3450
  822YOPS   C1B11683  18.828   3.638   5.990 -0.0423  0.0683  0.2588
  822YOPS   C2B11684  18.882   3.405   6.345 -0.0527 -0.2271  0.0549
  822YOPS   D3B11685  18.766   3.419   6.863 -0.1409  0.2257 -0.0194
  822YOPS   C4B11686  19.184   3.285   7.100  0.0165 -0.2463 -0.2137
  823YOPS   CNO11687  10.878   3.122   5.057 -0.1752 -0.2310 -0.0195
  823YOPS   PO411688  10.992   3.487   5.075 -0.3246  0.1665 -0.1793
  823YOPS   GL111689  10.658   3.617   5.419 -0.0490 -0.1790 -0.0825
  823YOPS   GL211690  10.954   3.704   5.603  0.0379  0.1324  0.1482
  823YOPS   C1A11691  10.504   3.487   5.712  0.0007 -0.2672 -0.3283
  823YOPS   D2A11692  10.146   3.437   5.982 -0.0534  0.1384  0.3367
  823YOPS   C3A11693  10.127   3.280   6.370 -0.2350  0.3434  0.0004
  823YOPS   C4A11694  10.489   3.049   6.570  0.0282 -0.1156 -0.0689
  823YOPS   C1B11695  10.753   3.875   5.920  0.1497  0.0519  0.1641
  823YOPS   C2B11696  10.666   4.111   6.293  0.0330 -0.0758  0.0264
  823YOPS   D3B11697  10.574   4.248   6.756  0.1764 -0.4351  0.2069
  823YOPS   C4B11698  10.683   4.160   7.116 -0.1814  0.0882 -0.3033
  824YOPS   CNO11699   8.464   8.159   5.339  0.1433  0.2325 -0.0185
  824YOPS   PO411700   8.303   7.869   5.498 -0.0368 -0.3516  0.2111
  824YOPS   GL111701   8.258   7.718   5.926 -0.2816 -0.0679  0.3288
  824YOPS   GL211702   8.545   7.752   6.171 -0.2431 -0.0327 -0.1131
  824YOPS   C1A11703   8.189   7.560   6.397  0.2632 -0.2193 -0.1950
  824YOPS   D2A11704   8.434   7.341   6.698  0.1263 -0.4263  0.1768
  824YOPS   C3A11705   8.612   7.134   7.039 -0.0329  0.4350 -0.1912
  824YOPS   C4A11706   8.902   7.320   7.269  0.2572 -0.3748  0.0735
  824YOPS   C1B11707   8.540   7.859   6.595  0.1597 -0.4527  0.1100
  824YOPS   C2B11708   8.899   7.851   6.834 -0.1413  0.1678 -0.0258
  824YOPS   D3B11709   9.038   7.865   7.331 -0.1722  0.0845 -0.1967
  824YOPS   C4B11710   9.292   7.568   7.532 -0.0981  0.1813 -0.2321
  825YOPS   CNO11711  14.661   2.738   5.166 -0.0186  0.1562  0.1326
  825YOPS   PO411712  14.634   2.542   5.533  0.0490  0.0331  0.0049
  825YOPS   GL111713  14.581   2.454   5.903  0.0572 -0.5559  0.1059
  825YOPS   GL211714  14.386   2.589   6.001  0.0597  0.3122  0.5425
  825YOPS   C1A11715  14.679   2.717   6.345  0.1208  0.1124 -0.0974
  825YOPS   D2A11716  14.871   3.086   6.503  0.1937 -0.0126 -0.3423
  825YOPS   C3A11717  14.890   3.373   6.872 -0.1486  0.0076  0.2447
  825YOPS   C4A11718  14.770   3.215   7.397 -0.0271 -0.2133  0.2239
  825YOPS   C1B11719  14.267   2.463   6.404 -0.1305 -0.0281  0.1541
  825YOPS   C2B11720  14.006   2.465   6.642 -0.0624  0.0248  0.4700
  825YOPS   D3B11721  14.001   2.346   7.071 -0.3455  0.0052 -0.0137
  825YOPS   C4B11722  14.381   2.288   7.228 -0.4260 -0.0437  0.1065
  826YOPS   CNO11723   9.952   1.037   4.482  0.0273 -0.3008 -0.0911
  826YOPS   PO411724  10.068   1.387   4.683 -0.0191  0.1817 -0.3043
  826YOPS   GL111725  10.222   1.473   5.041 -0.1156 -0.1275  0.3476
  826YOPS   GL211726  10.043   1.583   5.419  0.1179 -0.1047  0.0529
  826YOPS   C1A11727  10.552   1.593   5.416  0.1718  0.0966 -0.0985
  826YOPS   D2A11728  10.813   1.476   5.730  0.2532 -0.0119 -0.0912
  826YOPS   C3A11729  11.086   1.450   5.872  0.0721  0.1326  0.2536
  826YOPS   C4A11730  11.354   1.704   5.743 -0.1603 -0.0217  0.1910
  826YOPS   C1B11731  10.315   1.582   5.868 -0.1732 -0.1758  0.0862
  826YOPS   C2B11732  10.420   1.238   6.167 -0.2635 -0.1303  0.0284
  826YOPS   D3B11733  10.825   1.344   6.385 -0.0446 -0.1829 -0.2504
  826YOPS   C4B11734  11.066   1.766   6.215  0.0110 -0.1319 -0.0879
  827YOPS   CNO11735  10.198  16.482   5.671  0.1558  0.0078  0.1393
  827YOPS   PO411736   9.907  16.049   5.646 -0.0620 -0.0817  0.2222
  827YOPS   GL111737  10.080  15.901   5.983  0.2302  0.1334  0.0805
  827YOPS   GL211738  10.027  15.595   5.939  0.1798 -0.0981 -0.1089
  827YOPS   C1A11739  10.107  15.994   6.385 -0.2599  0.2353 -0.7587
  827YOPS   D2A11740  10.047  16.072   6.877  0.0287  0.3232 -0.0829
  827YOPS   C3A11741   9.807  16.009   7.275 -0.0793 -0.3100 -0.0135
  827YOPS   C4A11742   9.710  16.369   7.556 -0.4711  0.1478  0.0120
  827YOPS   C1B11743   9.796  15.546   6.340 -0.1626  0.0694 -0.0183
  827YOPS   C2B11744   9.768  15.577   6.754 -0.1238  0.1189 -0.1390
  827YOPS   D3B11745   9.681  15.484   7.141  0.1788  0.1832  0.2059
  827YOPS   C4B11746   9.315  15.223   7.163  0.2369 -0.0733  0.1083
  828YOPS   CNO11747   5.032   3.939   5.300 -0.2480 -0.1736  0.0538
  828YOPS   PO411748   5.393   4.190   5.154  0.0629  0.3335  0.1166
  828YOPS   GL111749   5.531   4.265   5.614 -0.1483  0.0041 -0.1086
  828YOPS   GL211750   5.219   4.135   5.707 -0.3177  0.1966  0.0623
  828YOPS   C1A11751   5.911   4.325   5.986 -0.1650 -0.2274 -0.0268
  828YOPS   D2A11752   6.216   4.206   6.107 -0.1391 -0.4830  0.1465
  828YOPS   C3A11753   6.462   3.922   6.076  0.1163 -0.2171 -0.0353
  828YOPS   C4A11754   6.804   4.175   5.954  0.0791 -0.2148 -0.1030
  828YOPS   C1B11755   5.439   4.274   6.085 -0.1989  0.1846 -0.2080
  828YOPS   C2B11756   5.542   4.321   6.509  0.1386 -0.1998  0.1283
  828YOPS   D3B11757   5.211   4.492   6.771 -0.2786  0.1036  0.0944
  828YOPS   C4B11758   4.941   4.757   6.629  0.1100  0.0373 -0.0822
  829YOPS   CNO11759  13.902  13.397   5.384 -0.1268  0.0559  0.0337
  829YOPS   PO411760  13.772  13.422   5.823 -0.1767  0.3137  0.3186
  829YOPS   GL111761  14.032  13.582   6.183  0.2498 -0.0311  0.3744
  829YOPS   GL211762  14.153  13.959   6.310  0.1988 -0.1875  0.0367
  829YOPS   C1A11763  14.368  13.534   6.568  0.1895 -0.4763 -0.1692
  829YOPS   D2A11764  14.558  13.437   7.031  0.1695 -0.1257 -0.1796
  829YOPS   C3A11765  14.974  13.425   7.317 -0.0021  0.1449 -0.1099
  829YOPS   C4A11766  15.409  13.439   7.455  0.1878 -0.2864  0.1288
  829YOPS   C1B11767  13.955  13.985   6.545  0.2046  0.1245 -0.5363
  829YOPS   C2B11768  13.764  14.008   6.963  0.0838  0.0605 -0.3271
  829YOPS   D3B11769  13.668  14.317   7.358 -0.0344 -0.0603  0.0789
  829YOPS   C4B11770  13.880  14.428   7.622  0.3815 -0.5030  0.2260
  830YOPS   CNO11771   1.919  17.841   5.199  0.0023  0.3122  0.2975
  830YOPS   PO411772   2.005  18.254   5.284 -0.0555 -0.2596  0.3558
  830YOPS   GL111773   2.189  18.240   5.641 -0.1143 -0.2591 -0.2849
  830YOPS   GL211774   2.057  18.000   5.938 -0.3123  0.0000 -0.2482
  830YOPS   C1A11775   2.433  18.202   6.086  0.1195  0.0514 -0.1981
  830YOPS   D2A11776   2.573  18.272   6.452  0.2252 -0.0868 -0.2232
  830YOPS   C3A11777   2.367  18.440   6.819  0.2916 -0.1370  0.1819
  830YOPS   C4A11778   2.278  18.137   7.169 -0.0816  0.0764 -0.3972
  830YOPS   C1B11779   1.616  18.146   6.046 -0.2185  0.1329 -0.2919
  830YOPS   C2B11780   1.494  18.532   6.269  0.1616  0.1226 -0.1282
  830YOPS   D3B11781   1.503  18.566   6.680 -0.0948  0.0062  0.1500
  830YOPS   C4B11782   1.185  18.798   6.993 -0.1011 -0.1394 -0.3165
  831YOPS   CNO11783   4.451  17.062   5.385  0.2043  0.0136  0.2215
  831YOPS   PO411784   4.089  17.314   5.173 -0.1071  0.1523  0.0071
  831YOPS   GL111785   3.936  17.786   5.484 -0.1948  0.1677 -0.0848
  831YOPS   GL211786   4.179  17.812   5.771  0.1250 -0.0238  0.0765
  831YOPS   C1A11787   3.621  18.027   5.806  0.1159 -0.1777  0.2717
  831YOPS   D2A11788   3.728  18.120   6.319 -0.1099  0.2665 -0.0959
  831YOPS   C3A11789   3.482  18.218   6.704 -0.2970 -0.2006 -0.0565
  831YOPS   C4A11790   2.996  18.386   6.678  0.0097  0.0690 -0.0898
  831YOPS   C1B11791   4.192  17.906   6.219  0.2587 -0.2321  0.2385
  831YOPS   C2B11792   4.326  17.864   6.662 -0.0363 -0.0504  0.3991
  831YOPS   D3B11793   4.438  18.216   6.912 -0.1338  0.3405  0.4122
  831YOPS   C4B11794   4.225  18.599   7.071 -0.0810  0.1228  0.4588
  832YOPS   CNO11795  11.490   0.599   5.302 -0.3319 -0.0128 -0.0492
  832YOPS   PO411796  11.259   0.925   5.192  0.2196 -0.1890  0.2528
  832YOPS   GL111797  11.167   0.985   5.676 -0.2118 -0.1406 -0.1099
  832YOPS   GL211798  11.220   0.642   5.761 -0.2159 -0.3485  0.0700
  832YOPS   C1A11799  10.835   0.927   5.995 -0.1137  0.1304 -0.0008
  832YOPS   D2A11800  10.672   0.679   6.221 -0.1710 -0.1811 -0.0228
  832YOPS   C3A11801  10.312   0.445   6.280  0.1379  0.1593  0.2449
  832YOPS   C4A11802  10.120   0.082   6.125  0.0671  0.2825  0.1218
  832YOPS   C1B11803  11.268   0.805   6.283 -0.0772 -0.2975 -0.2612
  832YOPS   C2B11804  11.206   0.941   6.638  0.0818 -0.0839 -0.2530
  832YOPS   D3B11805  10.810   0.930   6.597 -0.5618  0.4472 -0.2630
  832YOPS   C4B11806  10.545   0.548   6.716 -0.1119 -0.3368 -0.0981
  833YOPS   CNO11807  15.216  13.040   5.115 -0.4340 -0.0464  0.0679
  833YOPS   PO411808  14.969  13.237   5.382  0.0904 -0.3726 -0.0439
  833YOPS   GL111809  14.799  13.052   5.765 -0.1174  0.0352  0.0079
  833YOPS   GL211810  15.166  13.072   5.827  0.0182 -0.2295 -0.0889
  833YOPS   C1A11811  14.718  12.852   6.103 -0.1621 -0.1299  0.0012
  833YOPS   D2A11812  14.620  12.798   6.510 -0.0599  0.1700 -0.0052
  833YOPS   C3A11813  14.438  12.913   6.768 -0.4851  0.1613 -0.4045
  833YOPS   C4A11814  14.156  13.015   7.013 -0.0797  0.0312  0.0159
  833YOPS   C1B11815  15.207  12.940   6.269 -0.0345 -0.4927  0.1090
  833YOPS   C2B11816  15.456  12.929   6.666  0.0036  0.0522  0.0723
  833YOPS   D3B11817  15.807  12.882   7.050  0.1637  0.2408 -0.1176
  833YOPS   C4B11818  15.959  12.493   7.177 -0.0553  0.0562  0.0076
  834YOPS   CNO11819   6.518   8.962   5.221  0.2141  0.0993  0.2654
  834YOPS   PO411820   6.795   8.830   5.513 -0.1184  0.0454 -0.0459
  834YOPS   GL111821   6.977   8.840   5.909  0.1532  0.2177 -0.0722
  834YOPS   GL211822   6.675   8.951   5.986 -0.0572  0.3036  0.1317
  834YOPS   C1A11823   7.176   8.734   6.297  0.3191  0.2019  0.0285
  834YOPS   D2A11824   7.155   8.633   6.751  0.0766  0.0592 -0.1258
  834YOPS   C3A11825   6.821   8.753   6.912  0.1710 -0.0148  0.0747
  834YOPS   C4A11826   6.734   9.181   7.038 -0.2432  0.1056 -0.2662
  834YOPS   C1B11827   6.635   8.797   6.393 -0.1092  0.1572 -0.2273
  834YOPS   C2B11828   6.295   9.208   6.601  0.0251 -0.4039  0.4441
  834YOPS   D3B11829   6.059   9.612   6.516  0.2361 -0.2408 -0.2115
  834YOPS   C4B11830   5.652   9.498   6.449 -0.0918 -0.1916 -0.0417
  835YOPS   CNO11831  16.055  13.823   5.752  0.0274 -0.0333 -0.1798
  835YOPS   PO411832  15.551  13.951   5.693 -0.2046  0.1080 -0.2954
  835YOPS   GL111833  15.663  13.501   5.850  0.2801  0.1863 -0.2548
  835YOPS   GL211834  15.904  13.318   5.849 -0.0410  0.0665  0.2536
  835YOPS   C1A11835  15.611  13.250   6.254  0.0583 -0.1995  0.3604
  835YOPS   D2A11836  15.844  13.334   6.670 -0.0775  0.2883  0.3071
  835YOPS   C3A11837  16.250  13.215   7.076  0.0318  0.2774 -0.1878
  835YOPS   C4A11838  16.538  13.611   7.053  0.5132  0.2533 -0.0629
  835YOPS   C1B11839  16.262  13.472   6.020 -0.0151 -0.1805 -0.0075
  835YOPS   C2B11840  16.704  13.453   6.183 -0.3705  0.0899 -0.1718
  835YOPS   D3B11841  16.953  13.449   6.579 -0.0753 -0.1942  0.2330
  835YOPS   C4B11842  17.043  13.811   6.928  0.1532  0.2546 -0.0782
  836YOPS   CNO11843  14.368   4.765   5.602  0.0913  0.1772 -0.0361
  836YOPS   PO411844  14.510   5.145   5.298 -0.2398 -0.2072  0.1330
  836YOPS   GL111845  14.688   5.269   5.682 -0.3837 -0.3038 -0.2439
  836YOPS   GL211846  15.089   5.142   5.785  0.2182 -0.1503 -0.0099
  836YOPS   C1A11847  14.813   5.337   6.196  0.2058 -0.1695 -0.1711
  836YOPS   D2A11848  14.648   5.372   6.566  0.1099  0.0422 -0.1944
  836YOPS   C3A11849  14.515   5.284   6.875 -0.3361 -0.1420 -0.1538
  836YOPS   C4A11850  14.184   5.539   7.018  0.0652 -0.2942  0.0194
  836YOPS   C1B11851  14.709   4.806   5.961 -0.0474  0.1878  0.0493
  836YOPS   C2B11852  14.410   4.587   6.045  0.0611  0.2153  0.1847
  836YOPS   D3B11853  14.186   4.482   6.432  0.1950 -0.2558 -0.1712
  836YOPS   C4B11854  14.150   4.391   6.851 -0.1456 -0.1000  0.0653
  837YOPS   CNO11855  12.409  17.376   5.462  0.0334  0.0565 -0.1982
  837YOPS   PO411856  12.537  16.940   5.652  0.1929 -0.3896 -0.1895
  837YOPS   GL111857  12.359  16.686   6.054  0.0092  0.1007 -0.0527
  837YOPS   GL211858  12.267  16.269   6.050  0.4274 -0.1621 -0.3589
  837YOPS   C1A11859  12.306  16.555   6.468  0.4265 -0.1547  0.0190
  837YOPS   D2A11860  12.294  16.672   6.948 -0.1469  0.2462 -0.2624
  837YOPS   C3A11861  12.155  16.525   7.315 -0.0890 -0.0585  0.1249
  837YOPS   C4A11862  12.073  16.155   7.371  0.2674  0.1611 -0.2309
  837YOPS   C1B11863  12.117  16.078   6.346  0.3309  0.1453 -0.2751
  837YOPS   C2B11864  11.900  15.883   6.616  0.2920 -0.1538  0.3630
  837YOPS   D3B11865  11.484  15.991   6.855  0.0463 -0.0698  0.2412
  837YOPS   C4B11866  11.204  16.377   6.948 -0.0310 -0.0460  0.1021
  838YOPS   CNO11867  11.031   4.404   5.477  0.1052  0.0343 -0.0123
  838YOPS   PO411868  11.136   4.816   5.446  0.0155 -0.1547 -0.2088
  838YOPS   GL111869  11.163   4.915   5.866  0.2778  0.0598 -0.0019
  838YOPS   GL211870  11.191   4.544   5.936  0.1134  0.0751 -0.3581
  838YOPS   C1A11871  11.251   4.885   6.251 -0.0142 -0.2250  0.0567
  838YOPS   D2A11872  11.404   4.695   6.690  0.4933 -0.0662  0.1978
  838YOPS   C3A11873  11.546   4.406   7.031  0.1473  0.0566  0.0378
  838YOPS   C4A11874  11.795   4.508   7.452  0.0243 -0.1938 -0.3248
  838YOPS   C1B11875  11.101   4.364   6.394 -0.1355 -0.1197 -0.1050
  838YOPS   C2B11876  11.080   4.225   6.695 -0.2823  0.2137  0.1048
  838YOPS   D3B11877  11.148   4.038   6.996 -0.2314 -0.1458  0.0293
  838YOPS   C4B11878  11.459   3.730   7.164 -0.1100  0.1487 -0.1622
  839YOPS   CNO11879  15.140   1.819   5.285  0.1384  0.1925 -0.2235
  839YOPS   PO411880  15.323   1.488   5.359  0.0583 -0.1382 -0.0167
  839YOPS   GL111881  15.344   1.698   5.761 -0.0252  0.1792 -0.4511
  839YOPS   GL211882  15.125   1.618   5.932 -0.0524 -0.1038 -0.0031
  839YOPS   C1A11883  15.448   1.526   6.252  0.2276 -0.4077  0.1291
  839YOPS   D2A11884  15.558   1.626   6.659 -0.4455 -0.1289  0.0223
  839YOPS   C3A11885  15.962   1.937   6.811 -0.1314 -0.2941  0.0742
  839YOPS   C4A11886  16.109   1.765   7.072  0.4917 -0.1732 -0.2255
  839YOPS   C1B11887  15.026   1.801   6.331  0.3239  0.1102 -0.2976
  839YOPS   C2B11888  15.073   1.688   6.805  0.1297 -0.1874 -0.0456
  839YOPS   D3B11889  15.076   1.869   7.148  0.1075 -0.0108 -0.2207
  839YOPS   C4B11890  14.704   1.979   7.378  0.2589  0.1596 -0.3997
  840YOPS   CNO11891   7.448   6.749   5.147  0.2159  0.0627 -0.1698
  840YOPS   PO411892   7.584   6.718   5.544 -0.1891  0.0564 -0.1506
  840YOPS   GL111893   7.437   6.628   5.987 -0.3137 -0.2516  0.2915
  840YOPS   GL211894   7.298   6.861   6.106 -0.0742 -0.1245 -0.0862
  840YOPS   C1A11895   7.493   6.403   6.377 -0.1085  0.0689  0.2094
  840YOPS   D2A11896   7.294   6.365   6.744  0.3756  0.3569  0.1917
  840YOPS   C3A11897   7.223   6.441   7.209  0.0090 -0.1480 -0.0965
  840YOPS   C4A11898   7.482   6.219   7.426  0.0559  0.0305 -0.1454
  840YOPS   C1B11899   7.273   6.857   6.501  0.0930  0.0844 -0.0733
  840YOPS   C2B11900   7.182   6.908   6.855 -0.0725 -0.1036  0.0849
  840YOPS   D3B11901   7.407   6.894   7.217  0.0238 -0.1792  0.1887
  840YOPS   C4B11902   7.767   6.724   7.389  0.2641  0.3101  0.0569
  841YOPS   CNO11903  17.290  16.576   5.308 -0.0831  0.0897  0.0256
  841YOPS   PO411904  17.004  16.814   5.482  0.0395  0.2627 -0.1620
  841YOPS   GL111905  17.291  16.695   5.883 -0.0012  0.3370  0.2969
  841YOPS   GL211906  17.545  16.840   6.065 -0.1587  0.1389 -0.1329
  841YOPS   C1A11907  17.130  16.603   6.290 -0.2093 -0.1183  0.1749
  841YOPS   D2A11908  17.093  16.533   6.700  0.2486  0.2341 -0.0301
  841YOPS   C3A11909  17.280  16.291   6.932  0.1434 -0.1287  0.0111
  841YOPS   C4A11910  17.597  16.324   7.206 -0.0451 -0.0829 -0.0245
  841YOPS   C1B11911  17.590  16.762   6.489  0.0573  0.1335 -0.1068
  841YOPS   C2B11912  18.045  16.664   6.538  0.1471 -0.3550  0.0276
  841YOPS   D3B11913  18.518  16.581   6.779 -0.0568 -0.3491  0.3542
  841YOPS   C4B11914  18.767  16.996   6.776 -0.4235 -0.0003  0.1058
  842POPE   NH311915  13.914   7.893   5.273  0.4908  0.2867  0.1180
  842POPE   PO411916  14.215   7.833   5.583 -0.2065 -0.0324  0.1145
  842POPE   GL111917  14.498   8.119   5.766 -0.1760 -0.0371 -0.1385
  842POPE   GL211918  14.563   8.501   5.793 -0.0665 -0.1268  0.0127
  842POPE   C1A11919  14.928   7.976   6.061  0.3122 -0.1488  0.0627
  842POPE   D2A11920  15.247   8.210   6.325  0.0869 -0.0910  0.1647
  842POPE   C3A11921  15.398   8.153   6.757  0.3024  0.1138  0.0475
  842POPE   C4A11922  15.286   7.925   7.151  0.2041  0.1830  0.0943
  842POPE   C1B11923  14.288   8.551   6.058  0.0073  0.0783 -0.2949
  842POPE   C2B11924  14.115   8.474   6.426 -0.0716 -0.3864 -0.3061
  842POPE   C3B11925  14.101   8.675   6.784  0.2451 -0.1571  0.1561
  842POPE   C4B11926  14.132   8.732   7.187  0.2744  0.1225  0.0918
  843POPE   NH311927   8.217   0.928   5.243 -0.0553 -0.1908 -0.0527
  843POPE   PO411928   7.966   1.240   5.100  0.2726 -0.0985  0.0442
  843POPE   GL111929   7.827   1.195   5.509  0.1344 -0.2605 -0.2920
  843POPE   GL211930   7.814   1.404   5.720  0.0896  0.0874 -0.3177
  843POPE   C1A11931   7.715   0.916   5.897 -0.2727  0.2098 -0.0579
  843POPE   D2A11932   7.528   1.126   6.209  0.0730 -0.2906  0.0274
  843POPE   C3A11933   7.544   0.981   6.606 -0.0056  0.1767 -0.2298
  843POPE   C4A11934   7.573   0.633   6.873 -0.0220 -0.0470 -0.2113
  843POPE   C1B11935   7.876   1.774   5.929 -0.3479 -0.2122 -0.1830
  843POPE   C2B11936   7.898   1.857   6.310 -0.0721  0.2643 -0.0176
  843POPE   C3B11937   7.988   2.201   6.652  0.0724 -0.1055  0.2456
  843POPE   C4B11938   7.763   2.492   6.931 -0.0093  0.0580 -0.1634
  844POPE   NH311939   2.748  16.361   5.499 -0.0455  0.2839  0.3746
  844POPE   PO411940   3.108  16.234   5.548  0.0504 -0.2802  0.0916
  844POPE   GL111941   2.889  16.155   5.958 -0.1105 -0.0997 -0.1390
  844POPE   GL211942   2.594  15.987   5.959 -0.0662 -0.3573  0.0798
  844POPE   C1A11943   2.731  16.140   6.411 -0.0761  0.0580  0.0947
  844POPE   D2A11944   2.591  16.259   6.815  0.0975 -0.1405 -0.1495
  844POPE   C3A11945   2.246  16.490   6.929 -0.1367 -0.1813 -0.0359
  844POPE   C4A11946   2.250  16.772   7.232  0.1060 -0.1658  0.2026
  844POPE   C1B11947   2.426  15.780   6.208 -0.1526 -0.1664  0.3724
  844POPE   C2B11948   2.361  15.400   6.433 -0.0457 -0.4243  0.1156
  844POPE   C3B11949   2.615  15.190   6.755 -0.2450 -0.0927  0.2164
  844POPE   C4B11950   2.751  14.806   7.075  0.0660  0.5324 -0.1653
  845POPE   NH311951  17.445  15.744   5.553  0.1211 -0.0217  0.1341
  845POPE   PO411952  17.742  15.435   5.680  0.2950  0.0084 -0.0200
  845POPE   GL111953  17.665  15.469   6.058  0.2220  0.0983  0.2785
  845POPE   GL211954  17.413  15.320   6.071 -0.0039  0.3714  0.0896
  845POPE   C1A11955  17.691  15.698   6.425 -0.0416  0.4806  0.0384
  845POPE   D2A11956  17.943  15.683   6.722 -0.1277  0.0850 -0.1851
  845POPE   C3A11957  18.099  15.418   7.057  0.0263  0.1162 -0.0281
  845POPE   C4A11958  18.049  15.105   7.385  0.5362 -0.2156  0.1850
  845POPE   C1B11959  17.317  15.353   6.425 -0.2180  0.1435  0.3940
  845POPE   C2B11960  17.196  15.478   6.772  0.1975 -0.0615  0.3636
  845POPE   C3B11961  17.633  15.224   6.773 -0.0106  0.1029  0.1978
  845POPE   C4B11962  17.910  15.242   6.504 -0.0806 -0.1536  0.1780
  846POPE   NH311963  14.614  12.912   5.254  0.1122 -0.0062  0.0478
  846POPE   PO411964  14.661  12.381   5.301  0.0644 -0.0010  0.5828
  846POPE   GL111965  14.653  12.557   5.714 -0.1334 -0.2289 -0.0802
  846POPE   GL211966  14.352  12.510   5.957  0.1183 -0.1870  0.1560
  846POPE   C1A11967  14.887  12.439   6.158  0.0155  0.4030  0.4435
  846POPE   D2A11968  15.043  12.530   6.632 -0.3407  0.1893  0.0249
  846POPE   C3A11969  15.003  12.579   7.014 -0.4195 -0.0628 -0.2520
  846POPE   C4A11970  14.890  12.607   7.477  0.1086  0.0453  0.1634
  846POPE   C1B11971  14.494  12.208   6.340 -0.1471 -0.1591  0.1543
  846POPE   C2B11972  14.647  12.299   6.732 -0.1420  0.2656  0.0746
  846POPE   C3B11973  14.510  12.429   7.186  0.0772  0.0668 -0.4315
  846POPE   C4B11974  14.422  12.767   7.344  0.0605  0.0310 -0.0322
  847POPE   NH311975   8.069  11.444   5.228 -0.3172 -0.1214 -0.1382
  847POPE   PO411976   7.814  11.791   5.382  0.4885  0.2750 -0.0031
  847POPE   GL111977   7.723  11.759   5.778  0.1455  0.2972 -0.1465
  847POPE   GL211978   7.746  11.492   5.933  0.2275 -0.1058 -0.0400
  847POPE   C1A11979   7.853  12.056   6.225 -0.2529 -0.0324  0.2019
  847POPE   D2A11980   7.868  12.365   6.568  0.0947 -0.0433  0.1470
  847POPE   C3A11981   8.129  12.087   6.872  0.1366  0.2163 -0.0618
  847POPE   C4A11982   8.439  11.903   7.102 -0.1305 -0.2561 -0.1362
  847POPE   C1B11983   8.070  11.266   6.123  0.1403 -0.0461  0.0604
  847POPE   C2B11984   8.429  11.304   6.474 -0.1894  0.0970  0.1279
  847POPE   C3B11985   8.420  11.423   6.941 -0.0635 -0.1988 -0.0646
  847POPE   C4B11986   8.607  11.577   7.424 -0.0121  0.2252  0.0899
  848POPE   NH311987   7.210   9.656   5.314  0.0222 -0.0541 -0.3201
  848POPE   PO411988   6.933   9.800   5.646 -0.0273  0.1641  0.3472
  848POPE   GL111989   6.653  10.015   5.958 -0.0724 -0.0915  0.2635
  848POPE   GL211990   6.804  10.388   6.100 -0.0011  0.2291 -0.1736
  848POPE   C1A11991   6.549   9.937   6.393  0.4971  0.0662  0.0731
  848POPE   D2A11992   6.278  10.075   6.622  0.0961  0.0482  0.1549
  848POPE   C3A11993   6.459  10.220   7.042  0.1993 -0.3215  0.0860
  848POPE   C4A11994   6.538  10.454   7.356 -0.0318 -0.1960  0.3525
  848POPE   C1B11995   7.028  10.053   6.305 -0.1327  0.4273  0.0928
  848POPE   C2B11996   6.926   9.935   6.744  0.1259  0.0540 -0.0491
  848POPE   C3B11997   6.458   9.669   6.831  0.0032 -0.0296 -0.2387
  848POPE   C4B11998   6.009   9.564   7.164  0.1927 -0.1341 -0.0452
  849POPE   NH311999  13.218  15.829   5.591 -0.0705  0.3574  0.4934
  849POPE   PO412000  13.478  16.094   5.646 -0.0411 -0.1362  0.5617
  849POPE   GL112001  13.635  15.932   6.051  0.1973 -0.0500  0.1999
  849POPE   GL212002  13.439  15.772   6.098 -0.1184 -0.2598 -0.1427
  849POPE   C1A12003  13.554  16.215   6.308  0.2664  0.1400  0.0744
  849POPE   D2A12004  13.212  16.363   6.599  0.0965  0.1809  0.1626
  849POPE   C3A12005  12.884  16.259   6.998  0.2185  0.1401 -0.0712
  849POPE   C4A12006  12.818  16.510   7.391  0.1044  0.2305  0.2670
  849POPE   C1B12007  13.601  15.735   6.524  0.0223 -0.1273  0.1410
  849POPE   C2B12008  13.704  15.595   6.939  0.1874 -0.0817  0.2222
  849POPE   C3B12009  13.613  15.433   7.242 -0.0126  0.2400  0.2596
  849POPE   C4B12010  13.477  15.490   7.704  0.0501  0.0657  0.0490
  850POPE   NH312011  13.230  14.133   5.721  0.2880 -0.0565 -0.4879
  850POPE   PO412012  12.996  14.444   5.447  0.1682  0.0938 -0.5340
  850POPE   GL112013  12.806  14.485   5.847 -0.1526 -0.0374  0.0981
  850POPE   GL212014  12.453  14.696   5.989 -0.0322  0.0720  0.2962
  850POPE   C1A12015  12.575  14.343   6.313  0.2645 -0.0144  0.4238
  850POPE   D2A12016  12.802  14.181   6.688 -0.1037 -0.1456 -0.0947
  850POPE   C3A12017  12.688  14.185   7.145 -0.0064 -0.2104 -0.2336
  850POPE   C4A12018  12.549  14.286   7.607  0.3382 -0.0475 -0.2620
  850POPE   C1B12019  12.261  14.890   6.396 -0.2635  0.4767  0.2610
  850POPE   C2B12020  12.079  14.865   6.860 -0.0624 -0.0443 -0.1420
  850POPE   C3B12021  11.986  15.296   7.145  0.0647 -0.1819  0.0469
  850POPE   C4B12022  11.871  15.718   7.098  0.0373 -0.0431 -0.1674
  851POPE   NH312023   0.073   7.202   5.816 -0.0370  0.2430  0.0409
  851POPE   PO412024   0.450   7.394   5.878 -0.3206  0.2846 -0.2190
  851POPE   GL112025   0.521   7.530   6.246 -0.1360 -0.0012  0.3002
  851POPE   GL212026   0.567   7.838   6.317  0.0199 -0.0584 -0.1847
  851POPE   C1A12027   0.553   7.456   6.659 -0.2985  0.0411 -0.0455
  851POPE   D2A12028   0.715   7.277   7.058 -0.1072  0.2544  0.0231
  851POPE   C3A12029   0.758   7.570   7.410  0.1432 -0.0136  0.2848
  851POPE   C4A12030   0.554   7.773   7.770  0.2005  0.0364  0.4323
  851POPE   C1B12031   0.218   7.786   6.640  0.0688  0.1838 -0.0207
  851POPE   C2B12032   0.086   7.812   7.062 -0.2453  0.2249  0.2897
  851POPE   C3B12033   0.192   7.949   7.505  0.1845  0.4076  0.0328
  851POPE   C4B12034  -0.193   8.127   7.775 -0.0157 -0.1029  0.1736
  852POPE   NH312035   7.102   5.842   5.705  0.1149 -0.2550 -0.1275
  852POPE   PO412036   6.765   5.633   5.443 -0.2374  0.0300  0.3662
  852POPE   GL112037   6.630   5.356   5.821  0.0660  0.3733  0.1062
  852POPE   GL212038   6.893   5.148   5.894 -0.2329  0.2243 -0.0251
  852POPE   C1A12039   6.459   5.169   6.130 -0.0251  0.3333  0.1669
  852POPE   D2A12040   6.059   5.195   6.294  0.0675  0.0424  0.0693
  852POPE   C3A12041   5.781   5.279   6.509  0.0714 -0.0742  0.1727
  852POPE   C4A12042   5.407   5.311   6.803  0.2371 -0.2756  0.2768
  852POPE   C1B12043   6.925   5.087   6.236  0.1912  0.0540 -0.0467
  852POPE   C2B12044   6.834   4.986   6.738 -0.1712 -0.1126  0.2809
  852POPE   C3B12045   7.106   4.875   6.981 -0.0475 -0.0322 -0.1527
  852POPE   C4B12046   7.445   4.843   7.198  0.4644  0.1081  0.3143
  853POPE   NH312047   3.249   7.003   5.465 -0.3870 -0.1965 -0.1851
  853POPE   PO412048   3.619   7.267   5.711  0.0447 -0.0701  0.0141
  853POPE   GL112049   3.790   7.265   6.089 -0.0333 -0.0606  0.1715
  853POPE   GL212050   4.101   7.382   6.205  0.1345  0.0643 -0.1105
  853POPE   C1A12051   3.807   7.167   6.583  0.0064  0.2609 -0.3019
  853POPE   D2A12052   4.013   6.854   6.915 -0.2050 -0.0532  0.0917
  853POPE   C3A12053   3.954   6.985   7.288 -0.1677 -0.2598 -0.0027
  853POPE   C4A12054   3.654   7.139   7.781  0.3066 -0.0700 -0.2836
  853POPE   C1B12055   4.222   7.630   6.545  0.0219 -0.1177 -0.0465
  853POPE   C2B12056   4.356   7.935   6.890  0.1940  0.0294  0.1315
  853POPE   C3B12057   4.777   8.084   7.007 -0.1171 -0.0588  0.0144
  853POPE   C4B12058   5.262   8.243   6.937  0.2037  0.1299 -0.2963
  854POPE   NH312059   3.725  12.456   5.770 -0.1991  0.2205 -0.0685
  854POPE   PO412060   4.183  12.497   5.954 -0.0343 -0.0868  0.1096
  854POPE   GL112061   3.875  12.699   6.226 -0.3435  0.2200 -0.0479
  854POPE   GL212062   3.936  12.743   6.510 -0.1090 -0.1899  0.2847
  854POPE   C1A12063   3.519  12.556   6.541 -0.1930  0.2475  0.0853
  854POPE   D2A12064   3.438  12.372   7.021  0.3803  0.0518  0.1423
  854POPE   C3A12065   3.103  12.119   7.263 -0.2018 -0.1869 -0.2047
  854POPE   C4A12066   3.000  11.823   7.603 -0.1903  0.2005  0.1821
  854POPE   C1B12067   4.328  12.964   6.594  0.0740  0.0340 -0.1460
  854POPE   C2B12068   4.626  12.743   6.853  0.0260 -0.0218 -0.2048
  854POPE   C3B12069   4.712  12.681   7.287 -0.0530 -0.1038 -0.1554
  854POPE   C4B12070   4.672  12.674   7.696  0.1473  0.1259  0.0078
  855POPE   NH312071   6.345   3.262   5.374  0.0581 -0.0636 -0.2423
  855POPE   PO412072   6.745   3.091   5.398 -0.2532  0.1234  0.1625
  855POPE   GL112073   6.613   2.986   5.770  0.1733 -0.0093  0.3395
  855POPE   GL212074   6.797   2.666   5.680 -0.0737  0.0262 -0.2775
  855POPE   C1A12075   6.633   2.950   6.260  0.1145 -0.2669  0.1294
  855POPE   D2A12076   6.903   3.010   6.595  0.3808  0.2698  0.1563
  855POPE   C3A12077   6.532   3.072   6.910 -0.0913  0.5443  0.1655
  855POPE   C4A12078   6.148   3.216   6.811 -0.0892  0.0754  0.0298
  855POPE   C1B12079   6.954   2.638   6.151  0.0462 -0.0369  0.1550
  855POPE   C2B12080   6.667   2.416   6.441  0.2243 -0.2804 -0.1285
  855POPE   C3B12081   6.189   2.244   6.573 -0.3329 -0.2399  0.0145
  855POPE   C4B12082   5.765   2.086   6.481 -0.1289  0.0560  0.1792
  856POPE   NH312083  18.283   5.167   5.101 -0.1234 -0.0764  0.0877
  856POPE   PO412084  18.086   4.818   4.992 -0.3022 -0.0369 -0.1337
  856POPE   GL112085  18.336   4.806   5.392  0.0190  0.3669 -0.0145
  856POPE   GL212086  18.692   4.878   5.438  0.0320  0.1503 -0.1204
  856POPE   C1A12087  18.440   4.535   5.796  0.2065 -0.1199  0.1031
  856POPE   D2A12088  18.511   4.379   6.264  0.1342  0.3335 -0.0722
  856POPE   C3A12089  18.775   4.284   6.706 -0.1293  0.1235 -0.2325
  856POPE   C4A12090  18.650   3.950   6.993  0.2087 -0.4018 -0.0690
  856POPE   C1B12091  18.877   4.709   5.832 -0.0956  0.4685 -0.1002
  856POPE   C2B12092  19.021   4.672   6.336 -0.1712  0.1886  0.1060
  856POPE   C3B12093  19.021   4.720   6.797  0.1843  0.0396 -0.0416
  856POPE   C4B12094  19.256   4.521   7.127  0.2697 -0.0009  0.3311
  857POPE   NH312095  18.663   8.654   5.724  0.1576  0.0898 -0.1128
  857POPE   PO412096  18.962   8.936   5.727  0.1157  0.1284  0.2796
  857POPE   GL112097  18.714   8.902   6.203  0.0467  0.0894 -0.0444
  857POPE   GL212098  18.618   9.183   6.404 -0.2128 -0.2665  0.1497
  857POPE   C1A12099  18.688   8.722   6.665 -0.4386  0.0952  0.0429
  857POPE   D2A12100  18.509   8.717   7.028  0.0058  0.1274 -0.1578
  857POPE   C3A12101  18.155   8.724   7.046  0.2714  0.1361 -0.0496
  857POPE   C4A12102  17.855   8.608   7.363  0.0399  0.1024 -0.3705
  857POPE   C1B12103  18.431   9.138   6.796  0.0751  0.1165  0.2146
  857POPE   C2B12104  18.239   9.127   7.235  0.0070 -0.2421  0.1498
  857POPE   C3B12105  17.984   9.437   7.474 -0.2336  0.2238 -0.0441
  857POPE   C4B12106  18.095   9.617   7.875  0.2870 -0.1222 -0.2296
  858POPE   NH312107  19.097   7.071   5.015  0.0909  0.4559 -0.2089
  858POPE   PO412108  19.220   6.886   5.432  0.3175  0.0238 -0.2539
  858POPE   GL112109  19.258   6.673   5.879 -0.4491  0.2476  0.1034
  858POPE   GL212110  19.248   6.326   5.816 -0.1520  0.3640 -0.1649
  858POPE   C1A12111  19.618   6.610   6.192 -0.5323  0.2182 -0.4022
  858POPE   D2A12112  19.973   6.390   6.411  0.2633 -0.2521 -0.1121
  858POPE   C3A12113  19.913   6.191   6.833  0.0600  0.1513 -0.2456
  858POPE   C4A12114  19.628   6.350   7.122 -0.1922 -0.1872  0.0218
  858POPE   C1B12115  19.111   6.290   6.230 -0.1530 -0.3050 -0.2965
  858POPE   C2B12116  19.184   6.585   6.563 -0.0877 -0.1049 -0.0170
  858POPE   C3B12117  19.209   6.675   6.956  0.2132  0.0786 -0.2744
  858POPE   C4B12118  19.222   6.515   7.425  0.0205  0.1126  0.0077
  859POPE   NH312119   9.083   9.151   5.652 -0.2061  0.0212 -0.0892
  859POPE   PO412120   9.497   9.077   5.827  0.0459  0.1137 -0.2955
  859POPE   GL112121   9.716   8.611   5.946 -0.0609  0.1358  0.0754
  859POPE   GL212122  10.034   8.570   5.874 -0.0960 -0.1339  0.2542
  859POPE   C1A12123   9.891   8.440   6.318 -0.0399  0.1509 -0.3055
  859POPE   D2A12124  10.152   8.325   6.638 -0.0902  0.0071  0.0452
  859POPE   C3A12125  10.456   8.119   6.541 -0.1263 -0.0023 -0.0720
  859POPE   C4A12126  10.676   7.872   6.899  0.1396 -0.2214 -0.1482
  859POPE   C1B12127  10.294   8.748   6.269 -0.0089 -0.0475  0.0479
  859POPE   C2B12128  10.356   8.748   6.633 -0.0071  0.1434 -0.1318
  859POPE   C3B12129  10.365   8.961   7.140 -0.3318 -0.1506  0.0771
  859POPE   C4B12130  10.470   8.982   7.577 -0.2136 -0.0498 -0.1992
  860POPE   NH312131   8.986   3.310   5.356 -0.0459 -0.1656  0.2115
  860POPE   PO412132   9.237   3.578   5.422  0.1609  0.1836 -0.0199
  860POPE   GL112133   9.257   3.487   5.780 -0.3313  0.2204  0.2157
  860POPE   GL212134   9.172   3.779   5.905 -0.2193  0.1235  0.1179
  860POPE   C1A12135   9.304   3.074   5.982 -0.1398  0.0111  0.1939
  860POPE   D2A12136   9.429   2.773   6.278  0.1421 -0.0929 -0.1878
  860POPE   C3A12137   9.221   2.612   6.539 -0.1073 -0.1085  0.2757
  860POPE   C4A12138   8.965   2.383   6.820 -0.0523 -0.0583  0.1931
  860POPE   C1B12139   9.183   3.662   6.325 -0.2172  0.0300  0.0166
  860POPE   C2B12140   9.406   3.641   6.662  0.1256  0.0789 -0.2647
  860POPE   C3B12141   9.792   3.391   6.795  0.2808  0.6000  0.1920
  860POPE   C4B12142  10.286   3.293   6.998  0.0224  0.0939 -0.4488
  861POPE   NH312143  11.457  18.737   5.441 -0.0185 -0.0260 -0.1039
  861POPE   PO412144  11.095  18.964   5.348 -0.5440  0.3023  0.0704
  861POPE   GL112145  11.113  18.800   5.767 -0.1360 -0.2576  0.1262
  861POPE   GL212146  10.977  18.622   5.864  0.2848 -0.1264  0.0854
  861POPE   C1A12147  11.096  19.091   5.990 -0.0006 -0.1700 -0.1190
  861POPE   D2A12148  11.081  19.513   6.156  0.4032  0.1359 -0.1564
  861POPE   C3A12149  11.040  19.602   6.552  0.3482  0.1773 -0.1146
  861POPE   C4A12150  10.924  19.784   7.018 -0.2862  0.1731 -0.1656
  861POPE   C1B12151  11.123  18.657   6.186  0.0821 -0.0599 -0.1638
  861POPE   C2B12152  11.264  18.597   6.632  0.0099 -0.2502  0.0719
  861POPE   C3B12153  11.118  18.841   7.036 -0.0426 -0.0902  0.0924
  861POPE   C4B12154  11.016  18.769   7.418 -0.0432 -0.1570 -0.2711
  862POPE   NH312155  18.226  17.512   5.876 -0.1752 -0.2352 -0.0565
  862POPE   PO412156  18.071  16.982   5.792 -0.0114  0.1391  0.0695
  862POPE   GL112157  17.988  17.118   6.182  0.0099  0.0597  0.4346
  862POPE   GL212158  18.128  17.383   6.320 -0.2569 -0.2722 -0.0429
  862POPE   C1A12159  18.025  17.158   6.741 -0.0356  0.4404 -0.1839
  862POPE   D2A12160  18.313  17.011   7.034  0.0427 -0.1144  0.1940
  862POPE   C3A12161  18.470  16.751   7.417 -0.0633  0.1642  0.0797
  862POPE   C4A12162  18.724  16.485   7.748  0.2114 -0.1147 -0.0081
  862POPE   C1B12163  17.804  17.601   6.599 -0.4060 -0.1659  0.3730
  862POPE   C2B12164  17.786  17.768   7.066  0.2246  0.1095 -0.1084
  862POPE   C3B12165  17.491  18.073   7.209 -0.0367  0.1681 -0.0238
  862POPE   C4B12166  17.395  18.404   7.146 -0.2438 -0.0330  0.1963
  863POPE   NH312167   0.088   8.488   5.570 -0.0197 -0.3818 -0.0985
  863POPE   PO412168  -0.061   8.158   5.696 -0.1338  0.1322  0.0262
  863POPE   GL112169  -0.144   8.113   6.088  0.1284 -0.0839 -0.1737
  863POPE   GL212170  -0.111   8.447   6.080  0.1832  0.0302  0.1519
  863POPE   C1A12171  -0.121   8.216   6.516 -0.1627 -0.1420 -0.0568
  863POPE   D2A12172  -0.195   8.245   6.960  0.1060 -0.2255  0.0020
  863POPE   C3A12173  -0.432   8.320   7.203 -0.1944  0.2173 -0.1430
  863POPE   C4A12174  -0.631   8.627   7.537  0.1885 -0.1088  0.3036
  863POPE   C1B12175  -0.041   8.723   6.401 -0.1571  0.1881 -0.0874
  863POPE   C2B12176   0.012   8.782   6.930 -0.2632  0.2732 -0.0965
  863POPE   C3B12177  -0.168   8.733   7.227 -0.0915 -0.1852  0.2537
  863POPE   C4B12178  -0.016   8.429   7.408 -0.4490  0.2897 -0.0190
  864POPE   NH312179   6.699   7.627   5.470 -0.2193  0.2263 -0.3450
  864POPE   PO412180   6.741   7.105   5.506 -0.0984 -0.2415  0.3258
  864POPE   GL112181   6.859   7.042   5.872 -0.2722 -0.1227 -0.1742
  864POPE   GL212182   6.707   6.798   5.949 -0.0129 -0.3884  0.1807
  864POPE   C1A12183   6.878   7.271   6.275  0.3734  0.2271  0.2276
  864POPE   D2A12184   6.840   7.430   6.697 -0.0886 -0.0432  0.0466
  864POPE   C3A12185   7.020   7.689   6.953  0.1354 -0.1194  0.1948
  864POPE   C4A12186   7.344   8.000   7.184 -0.0094  0.1265  0.0267
  864POPE   C1B12187   6.885   6.618   6.320 -0.3261 -0.1984 -0.1508
  864POPE   C2B12188   6.763   6.510   6.707  0.1778  0.1654  0.1033
  864POPE   C3B12189   6.756   6.659   7.139 -0.1934 -0.4169  0.2219
  864POPE   C4B12190   6.541   6.777   7.482 -0.0703 -0.1100 -0.1905
  865POPE   NH312191   7.422  14.978   5.233 -0.0725  0.0838 -0.2551
  865POPE   PO412192   7.159  15.318   5.275  0.0284  0.2130 -0.0567
  865POPE   GL112193   7.208  15.411   5.624  0.2485 -0.0506 -0.4353
  865POPE   GL212194   7.447  15.591   5.741  0.2444 -0.0411 -0.3650
  865POPE   C1A12195   6.864  15.055   5.981 -0.3707 -0.1316 -0.0936
  865POPE   D2A12196   6.945  14.816   6.326 -0.3271  0.0567 -0.1583
  865POPE   C3A12197   6.659  14.573   6.456 -0.0460 -0.2717 -0.0303
  865POPE   C4A12198   6.555  14.307   6.261 -0.2712 -0.4521 -0.0676
  865POPE   C1B12199   7.371  15.240   6.074  0.1254  0.1817  0.3164
  865POPE   C2B12200   7.468  14.833   6.062  0.3074 -0.0869  0.2069
  865POPE   C3B12201   7.288  14.535   6.371 -0.0457 -0.1733 -0.1800
  865POPE   C4B12202   7.234  14.467   6.828  0.0526 -0.0689  0.1338
  866POPE   NH312203   0.493   9.941   5.873  0.0579  0.0384  0.1284
  866POPE   PO412204   0.715  10.299   5.550 -0.3091 -0.2086 -0.1490
  866POPE   GL112205   0.932  10.391   5.994 -0.0769 -0.1764  0.0385
  866POPE   GL212206   0.721  10.216   6.238 -0.0175 -0.0477  0.1751
  866POPE   C1A12207   1.195  10.709   6.227 -0.0755 -0.1185  0.2433
  866POPE   D2A12208   1.244  11.129   6.367 -0.2156 -0.0757  0.2035
  866POPE   C3A12209   1.096  11.122   6.819 -0.0441  0.0032  0.1059
  866POPE   C4A12210   1.437  11.473   6.906 -0.0425  0.2503  0.0930
  866POPE   C1B12211   0.915  10.462   6.586 -0.0638  0.1163 -0.2306
  866POPE   C2B12212   0.853  10.645   7.065  0.0038 -0.0097  0.0704
  866POPE   C3B12213   1.044  10.882   7.308  0.2691 -0.3051  0.1054
  866POPE   C4B12214   1.086  11.210   7.610  0.1040 -0.4027 -0.1291
  867POPE   NH312215   7.710   1.707   5.247 -0.2525  0.2470 -0.3718
  867POPE   PO412216   7.381   1.916   5.226  0.0147  0.2067  0.3516
  867POPE   GL112217   7.375   1.676   5.618 -0.2006  0.3727  0.0861
  867POPE   GL212218   7.063   1.848   5.703  0.1792 -0.3632 -0.0571
  867POPE   C1A12219   7.414   1.673   6.078  0.2618  0.1297  0.2546
  867POPE   D2A12220   7.551   1.566   6.418  0.1846  0.1264  0.1918
  867POPE   C3A12221   7.625   1.628   6.780  0.2143  0.2332 -0.2200
  867POPE   C4A12222   7.986   1.772   6.873 -0.0565  0.1438 -0.6132
  867POPE   C1B12223   6.941   1.564   5.902  0.0386  0.0578 -0.2098
  867POPE   C2B12224   6.986   1.181   6.170  0.1115 -0.1426 -0.0980
  867POPE   C3B12225   6.997   0.928   6.499  0.2172 -0.0834 -0.2729
  867POPE   C4B12226   7.018   0.645   6.825 -0.1374 -0.1304 -0.3534
  868POPE   NH312227   0.023  15.657   5.571  0.0534  0.1075  0.0297
  868POPE   PO412228  -0.332  15.802   5.364  0.3134  0.0238 -0.2299
  868POPE   GL112229  -0.356  16.094   5.694 -0.0122 -0.1048 -0.2458
  868POPE   GL212230  -0.088  16.075   5.926 -0.0763 -0.0248  0.2491
  868POPE   C1A12231  -0.490  16.440   6.023 -0.2540 -0.0928  0.0133
  868POPE   D2A12232  -0.442  16.678   6.305  0.0164 -0.2783 -0.3183
  868POPE   C3A12233  -0.754  17.004   6.480  0.0947  0.0171 -0.1346
  868POPE   C4A12234  -0.659  17.453   6.681  0.4159  0.2322 -0.1440
  868POPE   C1B12235   0.006  16.155   6.342  0.2215  0.0755  0.2354
  868POPE   C2B12236  -0.123  16.336   6.636 -0.0811  0.0159  0.0302
  868POPE   C3B12237  -0.405  16.189   7.009  0.0670 -0.1065  0.0573
  868POPE   C4B12238  -0.629  16.157   7.390  0.0477  0.1610 -0.3831
  869POPE   NH312239   4.212  10.040   5.652  0.1235 -0.3839 -0.0015
  869POPE   PO412240   4.488  10.358   5.620  0.2170 -0.1620  0.1593
  869POPE   GL112241   4.380  10.430   6.115 -0.2774 -0.1031  0.2133
  869POPE   GL212242   4.084  10.443   5.943 -0.0303  0.0702 -0.0139
  869POPE   C1A12243   4.695  10.409   6.470  0.1661 -0.3054  0.1187
  869POPE   D2A12244   4.844  10.434   6.897 -0.2307  0.0725 -0.4489
  869POPE   C3A12245   4.944  10.576   7.340 -0.0491 -0.1602 -0.0690
  869POPE   C4A12246   5.174  10.793   7.680 -0.2795  0.0778 -0.2649
  869POPE   C1B12247   3.886  10.427   6.315  0.3047 -0.0775 -0.0108
  869POPE   C2B12248   3.893  10.435   6.773  0.2474  0.0873  0.3282
  869POPE   C3B12249   4.301  10.454   7.075 -0.1717 -0.1194 -0.2115
  869POPE   C4B12250   4.511  10.817   7.162 -0.3455 -0.0428 -0.2227
  870POPE   NH312251   5.433  16.801   5.266 -0.3560  0.1232 -0.0425
  870POPE   PO412252   5.244  16.317   5.347 -0.1845 -0.1635 -0.1710
  870POPE   GL112253   5.318  16.558   5.684 -0.2104 -0.0604 -0.1461
  870POPE   GL212254   5.257  16.922   5.769 -0.3170  0.0058 -0.0493
  870POPE   C1A12255   5.739  16.816   6.016 -0.0396  0.1604 -0.0463
  870POPE   D2A12256   5.949  17.013   6.492  0.0806 -0.0610  0.0059
  870POPE   C3A12257   6.284  16.962   6.728  0.1665  0.5873 -0.1890
  870POPE   C4A12258   6.195  16.654   7.043 -0.2095  0.1525  0.0455
  870POPE   C1B12259   5.445  17.186   6.041  0.1199  0.0139 -0.0689
  870POPE   C2B12260   5.541  17.297   6.569 -0.2906  0.3123  0.1578
  870POPE   C3B12261   5.741  17.510   6.944 -0.3118 -0.1054 -0.2917
  870POPE   C4B12262   6.054  17.843   7.110  0.0964 -0.0876  0.3029
  871POPE   NH312263   0.844  12.680   5.762  0.2161 -0.1215 -0.1348
  871POPE   PO412264   0.918  13.105   5.793  0.2441  0.2718  0.1556
  871POPE   GL112265   1.000  13.079   6.123 -0.0291  0.0836 -0.1593
  871POPE   GL212266   0.772  12.959   6.353 -0.0490  0.0051 -0.0087
  871POPE   C1A12267   1.280  12.916   6.482  0.3539 -0.0400  0.0241
  871POPE   D2A12268   1.489  12.951   6.811  0.2082  0.1154 -0.1306
  871POPE   C3A12269   1.637  12.491   6.921  0.2564 -0.0285 -0.1419
  871POPE   C4A12270   2.079  12.195   6.873  0.0271  0.0218 -0.0079
  871POPE   C1B12271   0.960  12.653   6.773  0.2595  0.0545 -0.1131
  871POPE   C2B12272   1.163  12.551   7.169 -0.0412 -0.0691 -0.1412
  871POPE   C3B12273   1.478  12.456   7.416 -0.2925  0.0154 -0.0078
  871POPE   C4B12274   1.718  12.661   7.684  0.0785 -0.0786  0.0555
  872YOPE   NH312275   5.525   0.922   5.007  0.1251  0.1742  0.1250
  872YOPE   PO412276   5.227   0.579   4.829  0.0844 -0.0653  0.3594
  872YOPE   GL112277   5.105   0.708   5.210 -0.3847 -0.2837 -0.0607
  872YOPE   GL212278   5.368   0.793   5.513 -0.3884  0.4519 -0.1772
  872YOPE   C1A12279   4.941   0.627   5.476 -0.0886  0.0066  0.0517
  872YOPE   D2A12280   4.638   0.615   5.806  0.0935 -0.1691 -0.1528
  872YOPE   C3A12281   4.441   0.660   6.105 -0.0624  0.0120 -0.0145
  872YOPE   C4A12282   4.439   0.775   6.538 -0.0764  0.3395 -0.1073
  872YOPE   C1B12283   5.609   0.560   5.775 -0.3091  0.0462 -0.2905
  872YOPE   C2B12284   5.605   0.280   6.181  0.2830 -0.0429 -0.2001
  872YOPE   D3B12285   5.225   0.106   6.332  0.0261 -0.0558 -0.0238
  872YOPE   C4B12286   4.844  -0.044   6.608  0.0882 -0.0920  0.1158
  873YOPE   NH312287  17.425   7.711   5.648 -0.0449 -0.1542 -0.0617
  873YOPE   PO412288  17.878   7.609   5.638 -0.1708 -0.0942  0.0138
  873YOPE   GL112289  17.774   7.545   6.090 -0.1252  0.0067 -0.0115
  873YOPE   GL212290  17.911   7.089   6.168 -0.0147  0.0611 -0.0494
  873YOPE   C1A12291  17.815   7.465   6.538  0.0233  0.1489 -0.1787
  873YOPE   D2A12292  17.530   7.589   6.858 -0.0387  0.0858 -0.0753
  873YOPE   C3A12293  17.236   7.352   7.017 -0.2137  0.1597 -0.3486
  873YOPE   C4A12294  16.999   7.246   7.309  0.0013 -0.0912  0.0427
  873YOPE   C1B12295  17.931   6.860   6.586  0.2185  0.3298 -0.1443
  873YOPE   C2B12296  17.963   6.753   7.024  0.0332 -0.1059  0.3992
  873YOPE   D3B12297  18.103   6.474   7.429  0.4187 -0.4877 -0.2577
  873YOPE   C4B12298  18.010   6.568   7.882 -0.0603 -0.2933  0.1600
  874YOPE   NH312299   2.458  18.450   5.173  0.0915  0.0970 -0.1167
  874YOPE   PO412300   2.526  18.926   5.141  0.1073  0.1630  0.0084
  874YOPE   GL112301   2.357  18.799   5.535 -0.1647  0.2036  0.1337
  874YOPE   GL212302   2.034  18.903   5.516 -0.2045  0.1997  0.0192
  874YOPE   C1A12303   2.478  18.700   5.953 -0.2374 -0.1978 -0.2217
  874YOPE   D2A12304   2.472  18.820   6.332 -0.1088 -0.0692  0.0224
  874YOPE   C3A12305   2.652  18.797   6.585  0.2596 -0.1856  0.0826
  874YOPE   C4A12306   2.751  18.786   6.974  0.1060  0.0570  0.1172
  874YOPE   C1B12307   2.135  19.037   5.929  0.2803 -0.0969 -0.0034
  874YOPE   C2B12308   2.024  19.292   6.390 -0.2446 -0.1186 -0.3848
  874YOPE   D3B12309   2.058  19.427   6.890 -0.2722 -0.0112 -0.1721
  874YOPE   C4B12310   1.855  19.283   7.315 -0.0401  0.2393 -0.4061
  875YOPE   NH312311   6.574   6.669   5.397  0.1143  0.1451 -0.1699
  875YOPE   PO412312   6.247   6.731   5.631 -0.0578  0.1884  0.2929
  875YOPE   GL112313   6.270   6.366   5.869 -0.0639  0.2001 -0.1804
  875YOPE   GL212314   6.056   6.106   5.803  0.0672  0.2553 -0.1622
  875YOPE   C1A12315   6.407   6.215   6.279 -0.2650 -0.0936 -0.1207
  875YOPE   D2A12316   6.486   5.903   6.547  0.2057  0.1219  0.3024
  875YOPE   C3A12317   6.422   5.847   7.041  0.1473  0.0453  0.1735
  875YOPE   C4A12318   6.150   5.629   7.347 -0.1169 -0.1051 -0.3227
  875YOPE   C1B12319   5.833   6.032   6.269 -0.0336 -0.0771  0.0042
  875YOPE   C2B12320   6.012   6.338   6.565  0.0797 -0.2841  0.0549
  875YOPE   D3B12321   6.339   6.340   6.961 -0.1952 -0.5508  0.0548
  875YOPE   C4B12322   6.184   6.452   7.282 -0.0109 -0.2063 -0.2206
  876YOPE   NH312323  13.821  17.381   5.885  0.2785 -0.1200  0.0382
  876YOPE   PO412324  14.048  16.923   5.655 -0.3342  0.2726  0.0824
  876YOPE   GL112325  13.856  16.878   6.105  0.0592 -0.2316 -0.2674
  876YOPE   GL212326  13.989  17.050   6.181 -0.2317  0.0408  0.0034
  876YOPE   C1A12327  13.634  16.669   6.449  0.1074 -0.2102  0.2549
  876YOPE   D2A12328  13.816  16.504   6.790 -0.0620  0.4519  0.1595
  876YOPE   C3A12329  13.817  16.540   7.144  0.2613  0.0092 -0.1363
  876YOPE   C4A12330  13.615  16.701   7.480  0.1601 -0.1506 -0.0578
  876YOPE   C1B12331  13.855  17.073   6.660 -0.1980  0.0907  0.1819
  876YOPE   C2B12332  13.719  17.350   7.055  0.0836  0.2673  0.1279
  876YOPE   D3B12333  13.846  17.347   7.443 -0.1754 -0.0858 -0.3074
  876YOPE   C4B12334  13.554  17.196   7.769  0.0121  0.1819  0.0982
  877YOPE   NH312335  14.196  12.458   5.481 -0.0231  0.0867 -0.1261
  877YOPE   PO412336  14.453  12.092   5.658  0.0444 -0.0136  0.0971
  877YOPE   GL112337  14.222  12.054   5.991  0.0153 -0.2741 -0.2683
  877YOPE   GL212338  14.024  11.823   5.964  0.0478  0.0027  0.1127
  877YOPE   C1A12339  13.923  12.195   6.265  0.0762  0.0884 -0.0957
  877YOPE   D2A12340  14.043  12.122   6.734 -0.0689  0.1356  0.0671
  877YOPE   C3A12341  14.077  12.413   7.042  0.0769 -0.0663 -0.2750
  877YOPE   C4A12342  13.732  12.693   7.182 -0.4098 -0.0436 -0.1443
  877YOPE   C1B12343  13.893  11.645   6.313  0.0889  0.3979  0.2736
  877YOPE   C2B12344  13.691  11.771   6.701  0.0990 -0.3231  0.0210
  877YOPE   D3B12345  13.720  11.899   7.086  0.0774  0.0766 -0.2020
  877YOPE   C4B12346  14.035  12.100   7.414 -0.0657  0.0595 -0.0202
  878YOPE   NH312347   3.361  16.062   5.152 -0.0154 -0.0814  0.0028
  878YOPE   PO412348   3.095  16.537   5.157  0.0952  0.2412  0.0777
  878YOPE   GL112349   3.253  16.714   5.638 -0.2379 -0.2884 -0.0371
  878YOPE   GL212350   3.057  16.889   5.635  0.1829 -0.1296  0.2450
  878YOPE   C1A12351   3.286  16.934   6.053 -0.1086  0.0090 -0.0633
  878YOPE   D2A12352   3.600  16.929   6.346  0.1835 -0.1794 -0.3726
  878YOPE   C3A12353   3.464  17.051   6.727  0.0092  0.3534  0.2321
  878YOPE   C4A12354   3.353  16.918   7.136 -0.3603 -0.0537 -0.3238
  878YOPE   C1B12355   2.809  16.862   5.999  0.0361  0.0567 -0.1136
  878YOPE   C2B12356   2.877  17.109   6.375  0.0165  0.0227  0.0790
  878YOPE   D3B12357   2.937  17.202   6.858  0.2146  0.0725 -0.0383
  878YOPE   C4B12358   3.087  17.494   7.263 -0.0245 -0.1938  0.0888
  879YOPE   NH312359  11.893   6.884   5.208  0.1208 -0.0047  0.0008
  879YOPE   PO412360  11.787   6.547   5.346  0.3184 -0.1669 -0.2531
  879YOPE   GL112361  11.641   6.530   5.773  0.0517  0.1901 -0.2653
  879YOPE   GL212362  11.959   6.320   5.853  0.0253 -0.0143  0.0712
  879YOPE   C1A12363  11.464   6.210   6.147 -0.1939 -0.3242  0.0524
  879YOPE   D2A12364  11.669   6.174   6.570 -0.0623  0.1798  0.0281
  879YOPE   C3A12365  11.500   6.445   6.957  0.0220 -0.1080  0.0179
  879YOPE   C4A12366  11.251   6.854   7.069 -0.2031  0.1422  0.0283
  879YOPE   C1B12367  12.025   6.335   6.259 -0.1687  0.1191 -0.0661
  879YOPE   C2B12368  11.939   6.638   6.620  0.1728 -0.1669  0.0439
  879YOPE   D3B12369  11.795   6.865   7.015  0.0051 -0.1885  0.1611
  879YOPE   C4B12370  11.514   6.941   7.474 -0.3079  0.0977 -0.0849
  880YOPE   NH312371   5.631   2.684   4.729  0.0581 -0.1016 -0.1932
  880YOPE   PO412372   5.662   2.835   5.183  0.1214  0.1523 -0.0110
  880YOPE   GL112373   5.855   2.677   5.527  0.0279 -0.1230 -0.1608
  880YOPE   GL212374   6.052   2.943   5.614  0.3471 -0.2252  0.3294
  880YOPE   C1A12375   5.834   2.511   5.949  0.1154 -0.1172  0.1568
  880YOPE   D2A12376   5.865   2.609   6.428 -0.1305  0.1849 -0.1349
  880YOPE   C3A12377   5.744   2.449   6.836 -0.2625  0.1305  0.1842
  880YOPE   C4A12378   5.915   2.123   7.014 -0.2162  0.1787 -0.0009
  880YOPE   C1B12379   5.948   3.083   5.905 -0.1274 -0.0634  0.0567
  880YOPE   C2B12380   6.126   2.997   6.225  0.1162 -0.2260  0.3277
  880YOPE   D3B12381   6.334   2.776   6.579 -0.0334 -0.1647  0.1961
  880YOPE   C4B12382   6.226   2.588   6.969 -0.2034 -0.1282  0.1343
  881YOPE   NH312383   9.463   3.987   4.591  0.0234  0.5761  0.1871
  881YOPE   PO412384   9.593   3.936   5.060 -0.2541  0.1157  0.0534
  881YOPE   GL112385   9.677   3.784   5.479 -0.0406 -0.0568  0.1766
  881YOPE   GL212386   9.674   3.440   5.263  0.2388 -0.1179 -0.0075
  881YOPE   C1A12387   9.707   3.762   5.864 -0.1101  0.0196  0.3048
  881YOPE   D2A12388   9.762   3.583   6.269  0.0279  0.1355  0.0882
  881YOPE   C3A12389   9.569   3.238   6.423 -0.3549  0.0772  0.0684
  881YOPE   C4A12390   9.295   3.081   6.727 -0.2048 -0.3768 -0.0304
  881YOPE   C1B12391   9.707   3.298   5.649 -0.4074 -0.0219  0.1713
  881YOPE   C2B12392   9.850   3.066   6.014 -0.0740 -0.3119  0.1879
  881YOPE   D3B12393  10.023   2.707   6.274 -0.1814  0.2237 -0.1752
  881YOPE   C4B12394   9.895   2.279   6.496  0.0252  0.1623  0.0705
  882YOPE   NH312395  15.127  18.299   5.782  0.1232  0.0311  0.2453
  882YOPE   PO412396  15.362  18.076   5.485  0.1302  0.1620 -0.2351
  882YOPE   GL112397  15.528  18.047   5.964 -0.1148 -0.0223 -0.0226
  882YOPE   GL212398  15.902  17.956   6.077 -0.2879 -0.1776  0.0334
  882YOPE   C1A12399  15.462  18.203   6.414 -0.0028 -0.1340  0.1535
  882YOPE   D2A12400  15.565  18.287   6.853 -0.0533  0.0302  0.0391
  882YOPE   C3A12401  15.374  18.418   7.249 -0.2122  0.1260  0.0010
  882YOPE   C4A12402  15.336  18.683   7.510 -0.0114 -0.1487 -0.0733
  882YOPE   C1B12403  15.904  18.023   6.437 -0.2951 -0.0602 -0.1131
  882YOPE   C2B12404  15.911  17.746   6.790  0.0374 -0.0875 -0.1973
  882YOPE   D3B12405  16.054  18.004   7.097  0.4206  0.0928 -0.1839
  882YOPE   C4B12406  16.136  18.104   7.543  0.1096 -0.0461 -0.1346
  883YOPE   NH312407  15.088   4.754   5.450 -0.0296 -0.2747  0.0506
  883YOPE   PO412408  15.482   4.469   5.240 -0.1219 -0.1253  0.1348
  883YOPE   GL112409  15.489   4.308   5.668 -0.0252 -0.0718 -0.1090
  883YOPE   GL212410  15.337   4.456   5.744 -0.0111 -0.0972 -0.1714
  883YOPE   C1A12411  15.642   4.054   6.098  0.0703  0.0850  0.1875
  883YOPE   D2A12412  15.478   4.078   6.512 -0.1437  0.1014 -0.2350
  883YOPE   C3A12413  15.450   4.244   6.903 -0.0510  0.3214  0.0611
  883YOPE   C4A12414  15.137   4.215   7.227 -0.2554  0.0987 -0.4970
  883YOPE   C1B12415  15.122   4.403   6.066 -0.0216 -0.0051  0.2310
  883YOPE   C2B12416  15.092   4.482   6.518 -0.0400 -0.0440  0.2450
  883YOPE   D3B12417  15.049   4.586   6.882  0.0677 -0.1108  0.1681
  883YOPE   C4B12418  15.243   4.753   7.205  0.2037  0.2525  0.1371
  884YOPE   NH312419  12.988  18.418   6.096  0.1563 -0.1910 -0.1362
  884YOPE   PO412420  13.546  18.303   6.055 -0.1232  0.1368  0.2802
  884YOPE   GL112421  13.855  18.224   6.432  0.1672  0.3322  0.1982
  884YOPE   GL212422  13.717  18.056   6.633 -0.0146 -0.2035  0.0380
  884YOPE   C1A12423  13.913  18.364   6.939 -0.0550  0.1072  0.3379
  884YOPE   D2A12424  13.903  18.037   7.181  0.3019 -0.1674  0.1864
  884YOPE   C3A12425  13.913  17.991   7.557 -0.1454  0.3262  0.3094
  884YOPE   C4A12426  14.017  17.708   7.768  0.2432  0.1290  0.1999
  884YOPE   C1B12427  13.428  18.207   6.971 -0.2145 -0.0396 -0.0462
  884YOPE   C2B12428  13.273  18.082   7.363 -0.2199 -0.0660  0.1272
  884YOPE   D3B12429  12.826  18.239   7.589  0.2246 -0.5974 -0.0144
  884YOPE   C4B12430  12.613  18.621   7.560 -0.2585 -0.4003 -0.1131
  885YOPE   NH312431  15.381  14.463   5.771  0.0591  0.0875  0.2404
  885YOPE   PO412432  15.013  14.117   5.753 -0.0709  0.0394  0.1410
  885YOPE   GL112433  15.067  14.254   6.211 -0.0350  0.1510 -0.1115
  885YOPE   GL212434  15.018  14.499   6.180 -0.2384  0.2669 -0.1906
  885YOPE   C1A12435  15.271  14.119   6.561  0.3574  0.0962  0.1383
  885YOPE   D2A12436  15.608  14.056   6.803  0.1235 -0.0357 -0.1047
  885YOPE   C3A12437  15.776  13.807   6.963 -0.0817 -0.3728 -0.1582
  885YOPE   C4A12438  16.096  13.664   6.847 -0.2174  0.1525  0.0235
  885YOPE   C1B12439  14.896  14.537   6.613  0.2373 -0.3283  0.0219
  885YOPE   C2B12440  14.793  14.342   6.949  0.2325 -0.0689  0.1647
  885YOPE   D3B12441  14.670  13.953   7.124  0.1129 -0.1152 -0.1053
  885YOPE   C4B12442  14.570  13.753   7.497 -0.0121  0.0813 -0.0622
  886YOPE   NH312443   1.227   3.093   4.962 -0.1516 -0.0026  0.2815
  886YOPE   PO412444   1.103   2.777   4.872 -0.0720  0.0943 -0.2670
  886YOPE   GL112445   1.286   2.592   5.174  0.1388 -0.2049 -0.1089
  886YOPE   GL212446   1.184   2.493   5.348 -0.0099 -0.1437  0.2591
  886YOPE   C1A12447   1.687   2.572   5.353 -0.4720  0.0249 -0.0289
  886YOPE   D2A12448   2.064   2.661   5.614 -0.1522 -0.0122  0.0600
  886YOPE   C3A12449   2.451   2.914   5.805  0.2774 -0.3130  0.2253
  886YOPE   C4A12450   2.603   3.316   5.948 -0.2277  0.2321  0.3015
  886YOPE   C1B12451   1.335   2.570   5.746 -0.3101  0.2187  0.4622
  886YOPE   C2B12452   1.371   2.351   6.090 -0.0312  0.0753  0.1308
  886YOPE   D3B12453   1.622   2.094   6.364 -0.2490  0.0449  0.2208
  886YOPE   C4B12454   1.554   1.673   6.517  0.0477 -0.2221 -0.0699
  887YOPE   NH312455   0.457  17.796   5.783 -0.0298  0.0406 -0.1697
  887YOPE   PO412456   0.362  18.212   5.596 -0.0148 -0.1076  0.0022
  887YOPE   GL112457   0.382  18.234   6.038 -0.3688  0.0832  0.1205
  887YOPE   GL212458   0.731  18.089   6.062  0.0696  0.1343  0.0748
  887YOPE   C1A12459   0.052  18.292   6.315 -0.0526  0.1064 -0.0617
  887YOPE   D2A12460   0.061  18.130   6.682  0.2403 -0.1555  0.1322
  887YOPE   C3A12461   0.291  18.292   7.025  0.0596 -0.3237  0.0915
  887YOPE   C4A12462   0.552  18.585   7.278  0.2208 -0.0969  0.1130
  887YOPE   C1B12463   0.951  17.785   6.302 -0.2393  0.0224  0.1804
  887YOPE   C2B12464   1.286  17.603   6.587 -0.1604  0.1931  0.2304
  887YOPE   D3B12465   1.509  17.546   6.913 -0.0013  0.1557 -0.0472
  887YOPE   C4B12466   1.840  17.690   7.197  0.0985 -0.1671 -0.1673
  888YOPE   NH312467  11.164   2.540   5.260  0.0045 -0.2432  0.0833
  888YOPE   PO412468  10.748   2.563   5.087 -0.2153  0.5193 -0.3876
  888YOPE   GL112469  10.418   2.603   5.393 -0.1712  0.1781  0.0076
  888YOPE   GL212470  10.095   2.700   5.323 -0.2610 -0.0817 -0.1102
  888YOPE   C1A12471  10.139   2.473   5.772 -0.0188 -0.1251 -0.0825
  888YOPE   D2A12472  10.177   2.198   6.081 -0.4472  0.0694 -0.1338
  888YOPE   C3A12473  10.410   2.133   6.513 -0.2982 -0.2215 -0.0084
  888YOPE   C4A12474  10.827   1.900   6.797  0.3235  0.0275  0.0853
  888YOPE   C1B12475   9.808   2.859   5.555 -0.0479  0.1190  0.0072
  888YOPE   C2B12476   9.502   2.561   5.781 -0.0357  0.1216 -0.1280
  888YOPE   D3B12477   9.460   2.255   6.139 -0.0189 -0.0705  0.0118
  888YOPE   C4B12478   9.361   1.801   6.318 -0.2033  0.0083  0.2484
  889YOPE   NH312479  12.730  19.107   5.628  0.0568  0.0283 -0.2661
  889YOPE   PO412480  12.344  18.761   5.501 -0.2252  0.0463  0.2636
  889YOPE   GL112481  12.312  18.972   5.829 -0.4330  0.5086 -0.0642
  889YOPE   GL212482  12.093  18.936   6.009  0.2248 -0.0216 -0.2056
  889YOPE   C1A12483  12.272  18.976   6.457  0.1823 -0.0903  0.1191
  889YOPE   D2A12484  12.121  18.997   6.867  0.0015 -0.0616 -0.0501
  889YOPE   C3A12485  11.803  19.213   7.121 -0.2018 -0.4017 -0.1594
  889YOPE   C4A12486  11.840  19.627   7.221 -0.5038  0.2436 -0.0205
  889YOPE   C1B12487  12.089  18.611   6.189  0.0961 -0.3378 -0.0370
  889YOPE   C2B12488  12.172  18.540   6.671  0.1754 -0.2253 -0.0113
  889YOPE   D3B12489  12.310  18.585   7.113 -0.2279 -0.0492  0.0351
  889YOPE   C4B12490  12.131  18.944   7.367  0.1860 -0.0359  0.1558
  890YOPE   NH312491   7.289   4.379   5.191  0.1566  0.0210  0.2975
  890YOPE   PO412492   7.764   4.514   5.329  0.1983 -0.1256  0.1678
  890YOPE   GL112493   7.527   4.439   5.677 -0.0752  0.0202  0.2284
  890YOPE   GL212494   7.381   4.240   5.684 -0.1071  0.2163  0.0014
  890YOPE   C1A12495   7.613   4.546   6.148 -0.0168 -0.1114 -0.1000
  890YOPE   D2A12496   7.650   4.219   6.431  0.3720 -0.2042 -0.3199
  890YOPE   C3A12497   7.690   4.360   6.904  0.0289  0.1994 -0.5045
  890YOPE   C4A12498   7.875   4.702   7.080  0.2033  0.1026  0.3153
  890YOPE   C1B12499   7.306   4.137   6.119 -0.1169  0.1907 -0.0167
  890YOPE   C2B12500   7.292   3.818   6.384 -0.3381 -0.0011  0.0454
  890YOPE   D3B12501   7.146   3.831   6.744 -0.2276  0.1474 -0.0294
  890YOPE   C4B12502   6.715   4.003   6.973 -0.2861  0.0370 -0.0007
  891YOPE   NH312503   4.996   9.512   5.439 -0.0635  0.1797  0.0271
  891YOPE   PO412504   5.141   9.858   5.681 -0.2815 -0.0508  0.0311
  891YOPE   GL112505   5.234   9.957   5.997  0.0326  0.0229 -0.1693
  891YOPE   GL212506   5.271   9.570   6.142 -0.1696  0.2578  0.1705
  891YOPE   C1A12507   5.173  10.125   6.380 -0.0267 -0.1872 -0.0211
  891YOPE   D2A12508   5.292  10.302   6.825 -0.0204  0.2253  0.2654
  891YOPE   C3A12509   5.176  10.088   7.138 -0.0314  0.0189 -0.1573
  891YOPE   C4A12510   5.082  10.174   7.609  0.3693  0.2366  0.0666
  891YOPE   C1B12511   5.020   9.556   6.386 -0.2469  0.0429  0.0645
  891YOPE   C2B12512   4.656   9.430   6.661  0.0065 -0.4608 -0.1346
  891YOPE   D3B12513   4.662   9.463   7.066 -0.1172 -0.0910 -0.0720
  891YOPE   C4B12514   4.685   9.578   7.553 -0.0051 -0.0928  0.2496
  892YOPE   NH312515  15.470  15.413   5.864  0.1798 -0.2899 -0.0164
  892YOPE   PO412516  15.434  15.802   5.973  0.0233  0.1519 -0.2204
  892YOPE   GL112517  15.592  15.622   6.318 -0.5023  0.0744  0.1752
  892YOPE   GL212518  15.827  15.338   6.256  0.1040 -0.0426 -0.1383
  892YOPE   C1A12519  15.913  15.705   6.603  0.1116 -0.0047  0.0472
  892YOPE   D2A12520  15.988  15.946   7.119  0.0379 -0.0475 -0.0630
  892YOPE   C3A12521  15.753  16.043   7.516  0.1244 -0.1980 -0.4578
  892YOPE   C4A12522  15.844  15.852   7.820  0.2269 -0.0292 -0.0593
  892YOPE   C1B12523  15.808  15.060   6.483  0.5030 -0.0633  0.0036
  892YOPE   C2B12524  15.750  14.770   6.910 -0.3375  0.3844  0.1476
  892YOPE   D3B12525  15.745  14.466   7.184  0.2542 -0.0121 -0.0146
  892YOPE   C4B12526  15.806  14.518   7.566  0.0527 -0.2469  0.1626
  893YOPE   NH312527   9.174  10.507   5.538  0.1581 -0.0159 -0.1392
  893YOPE   PO412528   8.802  10.761   5.529 -0.0586 -0.1389  0.3804
  893YOPE   GL112529   8.987  11.176   5.807 -0.0061 -0.1856  0.1245
  893YOPE   GL212530   9.309  11.412   5.676  0.0747  0.1148 -0.1271
  893YOPE   C1A12531   8.706  11.502   6.041  0.1773  0.1092 -0.3046
  893YOPE   D2A12532   8.664  12.063   5.954  0.1086 -0.0632 -0.1053
  893YOPE   C3A12533   8.711  12.404   6.305 -0.1843  0.1644  0.2246
  893YOPE   C4A12534   9.171  12.525   6.484 -0.0147 -0.1121 -0.0738
  893YOPE   C1B12535   9.259  11.670   5.954 -0.2191  0.1918 -0.0644
  893YOPE   C2B12536   9.106  11.848   6.259 -0.2117 -0.0546 -0.1646
  893YOPE   D3B12537   8.988  11.645   6.576 -0.0419 -0.0218 -0.1566
  893YOPE   C4B12538   8.868  11.639   6.958 -0.0139 -0.2437  0.5214
  894YOPE   NH312539  15.814  16.148   5.832  0.5255 -0.1001  0.0298
  894YOPE   PO412540  15.673  16.496   6.033  0.1059  0.0571 -0.0761
  894YOPE   GL112541  16.046  16.160   6.267  0.1494 -0.1107 -0.0365
  894YOPE   GL212542  16.328  16.079   5.941  0.0285  0.0071 -0.4050
  894YOPE   C1A12543  16.128  16.289   6.711  0.3101  0.1220 -0.2218
  894YOPE   D2A12544  16.393  16.358   7.019  0.0136 -0.0010  0.1366
  894YOPE   C3A12545  16.684  16.598   7.029 -0.0653 -0.2505 -0.0953
  894YOPE   C4A12546  16.703  17.029   7.085 -0.0363 -0.0294 -0.4992
  894YOPE   C1B12547  16.450  16.505   6.135  0.4244  0.0636  0.2094
  894YOPE   C2B12548  16.617  16.726   6.480  0.0969 -0.0895 -0.2726
  894YOPE   D3B12549  16.931  17.050   6.566 -0.1631 -0.1514  0.1680
  894YOPE   C4B12550  17.033  17.369   6.805 -0.2295  0.3704 -0.2510
  895YOPE   NH312551   2.895  10.716   5.824 -0.2434  0.2659 -0.0055
  895YOPE   PO412552   2.488  10.671   5.945 -0.1533 -0.2191  0.3125
  895YOPE   GL112553   2.136  10.499   6.173  0.0748  0.1157  0.0049
  895YOPE   GL212554   2.192  10.674   6.453  0.1952 -0.0626  0.1810
  895YOPE   C1A12555   1.788  10.251   6.494  0.1104 -0.2186  0.1622
  895YOPE   D2A12556   1.661  10.141   6.905 -0.2942  0.1143  0.2074
  895YOPE   C3A12557   1.807  10.269   7.182 -0.1044 -0.0911 -0.0076
  895YOPE   C4A12558   1.952  10.595   7.336 -0.0329 -0.0235 -0.3578
  895YOPE   C1B12559   2.107  10.544   6.782  0.3663 -0.0551 -0.3009
  895YOPE   C2B12560   2.360  10.359   7.123  0.3100  0.3189 -0.2549
  895YOPE   D3B12561   2.647  10.484   7.425 -0.0537  0.0596  0.1162
  895YOPE   C4B12562   2.868  10.914   7.467 -0.1587 -0.2395  0.1670
  896YOPE   NH312563  13.178  17.327   5.582  0.1298 -0.3141  0.0532
  896YOPE   PO412564  13.451  17.055   5.763 -0.0103  0.0887 -0.1384
  896YOPE   GL112565  13.387  17.096   6.162 -0.1958  0.1572 -0.0070
  896YOPE   GL212566  13.604  17.338   6.344 -0.3789  0.0728  0.0605
  896YOPE   C1A12567  13.025  16.874   6.411 -0.1800 -0.0213  0.0870
  896YOPE   D2A12568  12.514  17.009   6.552 -0.2770  0.0395 -0.1873
  896YOPE   C3A12569  12.365  17.224   6.850 -0.0958  0.1874 -0.3314
  896YOPE   C4A12570  12.361  17.684   7.150  0.2542 -0.2069  0.1563
  896YOPE   C1B12571  13.398  17.140   6.635 -0.2673  0.2515 -0.0970
  896YOPE   C2B12572  13.401  16.979   6.922 -0.1769  0.0817  0.1346
  896YOPE   D3B12573  13.287  16.567   7.113  0.1904  0.0752 -0.1631
  896YOPE   C4B12574  13.384  16.274   7.450 -0.0619 -0.0167 -0.1817
  897YOPE   NH312575  16.008   3.807   5.136  0.0106 -0.1986 -0.2078
  897YOPE   PO412576  15.726   3.571   5.138  0.0548  0.2851 -0.1242
  897YOPE   GL112577  15.552   3.310   5.593 -0.0846 -0.1360 -0.1390
  897YOPE   GL212578  15.552   3.041   5.806  0.1075 -0.0121  0.3000
  897YOPE   C1A12579  15.429   3.515   5.976  0.1059 -0.1428 -0.2967
  897YOPE   D2A12580  15.453   3.501   6.375 -0.1011 -0.0070  0.1607
  897YOPE   C3A12581  15.364   3.129   6.629  0.1669 -0.0510  0.1330
  897YOPE   C4A12582  15.611   3.250   6.960  0.0846 -0.2430 -0.1715
  897YOPE   C1B12583  15.713   3.081   6.241  0.0682 -0.2445  0.1265
  897YOPE   C2B12584  15.844   3.265   6.499 -0.0637 -0.2309  0.1220
  897YOPE   D3B12585  16.064   3.083   6.875 -0.1462 -0.1500 -0.0656
  897YOPE   C4B12586  16.242   3.123   7.203  0.2816  0.0202  0.2446
  898YOPE   NH312587  15.614  12.085   5.154  0.0989  0.1108  0.3036
  898YOPE   PO412588  15.661  12.092   5.617 -0.0285 -0.3840 -0.1527
  898YOPE   GL112589  15.861  12.258   5.930 -0.0714  0.2210  0.2543
  898YOPE   GL212590  15.997  12.534   5.971 -0.0296  0.0022 -0.1357
  898YOPE   C1A12591  15.913  12.089   6.388  0.1739  0.3079  0.3342
  898YOPE   D2A12592  15.945  12.154   6.799 -0.0245  0.3712  0.2546
  898YOPE   C3A12593  16.256  11.903   6.955 -0.2594 -0.3168  0.0310
  898YOPE   C4A12594  16.483  11.494   6.927 -0.1494  0.1261  0.1249
  898YOPE   C1B12595  16.284  12.631   6.184  0.2942  0.2977  0.2344
  898YOPE   C2B12596  16.572  12.829   6.416 -0.3196  0.0876 -0.1888
  898YOPE   D3B12597  16.744  13.021   6.816  0.2184  0.3674  0.1087
  898YOPE   C4B12598  16.951  13.255   7.067 -0.0545 -0.3408 -0.0764
  899YOPE   NH312599  12.399   5.378   5.507  0.1322  0.3497  0.6659
  899YOPE   PO412600  12.760   5.153   5.241  0.1322 -0.1712 -0.4419
  899YOPE   GL112601  12.876   5.089   5.710  0.3651  0.1776  0.2899
  899YOPE   GL212602  12.645   5.114   5.975 -0.0675  0.4427  0.3064
  899YOPE   C1A12603  12.951   4.651   6.002 -0.2012 -0.2255  0.1876
  899YOPE   D2A12604  13.257   4.573   6.161 -0.0360  0.1127 -0.1121
  899YOPE   C3A12605  13.249   4.909   6.453 -0.1523  0.0956  0.2738
  899YOPE   C4A12606  13.286   5.009   6.879 -0.3926  0.1968  0.1651
  899YOPE   C1B12607  12.752   5.141   6.397 -0.1360  0.0167 -0.1034
  899YOPE   C2B12608  12.772   5.023   6.779 -0.0156  0.0315 -0.0540
  899YOPE   D3B12609  12.828   5.031   7.251 -0.1749  0.3767 -0.0482
  899YOPE   C4B12610  12.966   5.230   7.692 -0.1315 -0.1452  0.1433
  900YOPE   NH312611   2.223  11.033   6.086 -0.0019 -0.1076  0.0595
  900YOPE   PO412612   2.353  11.376   5.911 -0.0834 -0.3409  0.0924
  900YOPE   GL112613   2.428  11.378   6.339  0.1803  0.2866 -0.1981
  900YOPE   GL212614   2.206  11.180   6.541  0.1750 -0.1579  0.0335
  900YOPE   C1A12615   2.700  11.474   6.517  0.1695  0.0364 -0.3180
  900YOPE   D2A12616   3.113  11.390   6.404  0.1496  0.0932  0.2453
  900YOPE   C3A12617   3.405  11.122   6.631 -0.3846 -0.1573  0.0709
  900YOPE   C4A12618   3.797  11.058   6.602 -0.1221  0.1191 -0.0300
  900YOPE   C1B12619   2.404  10.903   6.866  0.1048 -0.0396  0.1503
  900YOPE   C2B12620   2.283  11.006   7.251 -0.1567 -0.1945 -0.2338
  900YOPE   D3B12621   2.311  10.749   7.663  0.0608  0.1718 -0.1273
  900YOPE   C4B12622   2.747  10.741   7.942 -0.0742 -0.2052 -0.0188
  901YOPE   NH312623   8.399   5.611   5.465  0.1800 -0.3582 -0.1448
  901YOPE   PO412624   8.217   5.227   5.357 -0.2919  0.2724 -0.1954
  901YOPE   GL112625   8.266   5.092   5.725  0.1026 -0.1173 -0.1157
  901YOPE   GL212626   8.118   5.163   5.978 -0.1487 -0.3860  0.2183
  901YOPE   C1A12627   8.550   4.956   6.129  0.1228  0.1280  0.2159
  901YOPE   D2A12628   8.488   4.827   6.546  0.0897 -0.0085 -0.0019
  901YOPE   C3A12629   8.171   4.975   6.811  0.2049  0.3946 -0.1461
  901YOPE   C4A12630   8.008   5.156   7.131  0.1022 -0.3839 -0.1904
  901YOPE   C1B12631   7.980   4.890   6.254  0.1376  0.0448 -0.1383
  901YOPE   C2B12632   7.979   4.599   6.522  0.0811 -0.0654 -0.2610
  901YOPE   D3B12633   8.311   4.502   6.866 -0.0552 -0.0472 -0.3494
  901YOPE   C4B12634   8.601   4.644   7.171 -0.1070 -0.0568  0.1808
  902YOPE   NH312635   9.491  13.381   5.401 -0.1185 -0.0770  0.0468
  902YOPE   PO412636   9.225  13.594   5.552 -0.0425 -0.0611 -0.1706
  902YOPE   GL112637   8.975  13.726   5.917  0.1948 -0.1090 -0.0393
  902YOPE   GL212638   8.898  13.987   5.983 -0.3352 -0.0513 -0.4704
  902YOPE   C1A12639   8.904  13.730   6.390 -0.1338  0.2412  0.2456
  902YOPE   D2A12640   8.787  13.665   6.749 -0.2011 -0.1193 -0.1521
  902YOPE   C3A12641   8.759  13.844   7.120 -0.2103 -0.1364  0.0069
  902YOPE   C4A12642   8.973  14.141   7.158  0.0524  0.0523 -0.0772
  902YOPE   C1B12643   8.584  14.110   6.155 -0.0151 -0.1730  0.1455
  902YOPE   C2B12644   8.501  14.001   6.567  0.1481 -0.1879 -0.3665
  902YOPE   D3B12645   8.246  13.691   6.876  0.2352 -0.0447  0.1505
  902YOPE   C4B12646   7.967  13.381   6.784 -0.2610  0.0137 -0.0053
  903YOPE   NH312647   1.185   1.654   4.616 -0.1093  0.1276 -0.0943
  903YOPE   PO412648   0.882   1.796   4.926  0.1107 -0.2943  0.1893
  903YOPE   GL112649   0.912   1.875   5.363  0.0362 -0.4020 -0.0476
  903YOPE   GL212650   1.130   1.977   5.390  0.0625  0.0198 -0.0135
  903YOPE   C1A12651   0.741   1.902   5.808  0.4077  0.2592 -0.2502
  903YOPE   D2A12652   0.869   2.224   6.030 -0.1125  0.1157  0.4634
  903YOPE   C3A12653   0.573   2.374   6.418  0.0940  0.0797 -0.0641
  903YOPE   C4A12654   0.665   2.650   6.820 -0.0083  0.2747 -0.4447
  903YOPE   C1B12655   1.227   1.922   5.842  0.1220  0.0401  0.0640
  903YOPE   C2B12656   1.172   1.812   6.222  0.1604  0.0244  0.0119
  903YOPE   D3B12657   1.113   2.043   6.579 -0.1808 -0.2800  0.0526
  903YOPE   C4B12658   1.399   2.201   6.796  0.0286 -0.0501 -0.0991
  904YOPE   NH312659   1.555   8.760   5.761  0.0873 -0.2914 -0.0230
  904YOPE   PO412660   1.141   8.994   5.764 -0.2165  0.2063  0.0406
  904YOPE   GL112661   1.263   8.853   6.163 -0.2128 -0.2349 -0.1326
  904YOPE   GL212662   1.228   9.096   6.322 -0.2998  0.1831  0.0288
  904YOPE   C1A12663   1.111   8.564   6.362 -0.2905 -0.1732 -0.0949
  904YOPE   D2A12664   1.188   8.276   6.697  0.2070  0.1096  0.0971
  904YOPE   C3A12665   1.484   8.213   6.987 -0.2221  0.3459 -0.0097
  904YOPE   C4A12666   1.419   7.904   7.347  0.0049  0.3032  0.1925
  904YOPE   C1B12667   0.927   9.105   6.563  0.1561 -0.3096  0.0940
  904YOPE   C2B12668   0.767   9.239   6.936 -0.1151 -0.2282  0.0449
  904YOPE   D3B12669   0.381   9.246   7.106 -0.2608  0.1704  0.0477
  904YOPE   C4B12670   0.106   9.117   7.367 -0.0135  0.4074 -0.1992
  905YOPE   NH312671  11.427   3.711   5.011 -0.0271 -0.1700  0.0971
  905YOPE   PO412672  11.354   4.141   5.168 -0.1262 -0.2026  0.1464
  905YOPE   GL112673  11.518   3.934   5.591 -0.0812  0.0581 -0.1317
  905YOPE   GL212674  11.505   4.224   5.710  0.3322  0.2031 -0.0325
  905YOPE   C1A12675  11.660   3.725   6.009 -0.1519  0.1555  0.1735
  905YOPE   D2A12676  11.779   3.364   6.226 -0.0481 -0.4117 -0.0783
  905YOPE   C3A12677  11.450   2.985   6.298 -0.0458  0.0724  0.5235
  905YOPE   C4A12678  11.423   2.570   6.405  0.1892 -0.0169 -0.0007
  905YOPE   C1B12679  11.191   4.033   5.927  0.1213  0.1448 -0.2532
  905YOPE   C2B12680  11.062   3.888   6.275 -0.0087  0.4143  0.2939
  905YOPE   D3B12681  11.089   3.389   6.437  0.0246  0.1492 -0.0915
  905YOPE   C4B12682  11.009   2.907   6.386 -0.2268 -0.1842 -0.0301
  906YOPE   NH312683  11.339  17.635   5.770 -0.0002  0.0413  0.1383
  906YOPE   PO412684  11.085  17.463   5.412 -0.1649 -0.3266 -0.1210
  906YOPE   GL112685  10.765  17.458   5.785  0.1931 -0.1237 -0.3127
  906YOPE   GL212686  10.615  17.242   5.791 -0.1835  0.0205 -0.1063
  906YOPE   C1A12687  10.919  17.518   6.309 -0.0190 -0.1230  0.0357
  906YOPE   D2A12688  10.819  17.489   6.734 -0.0527 -0.0333 -0.0426
  906YOPE   C3A12689  10.485  17.363   6.762  0.0644 -0.1558  0.2572
  906YOPE   C4A12690  10.164  17.378   6.652  0.1002 -0.0307  0.2770
  906YOPE   C1B12691  10.507  17.184   6.235 -0.1728  0.4369 -0.1995
  906YOPE   C2B12692  10.527  16.934   6.562  0.1320 -0.2106 -0.0287
  906YOPE   D3B12693  10.242  16.897   6.832  0.2178  0.1016 -0.2261
  906YOPE   C4B12694  10.019  17.243   7.119 -0.1110 -0.0504  0.3747
  907YOPE   NH312695   0.475  10.789   5.569  0.3624 -0.3704 -0.3188
  907YOPE   PO412696   0.477  10.517   5.919  0.0362  0.1404  0.3135
  907YOPE   GL112697   0.364  10.631   6.321  0.0787 -0.2665  0.1224
  907YOPE   GL212698   0.027  10.789   6.279  0.1052 -0.2430 -0.3225
  907YOPE   C1A12699   0.408  10.523   6.823 -0.0699 -0.0175 -0.3023
  907YOPE   D2A12700   0.432  10.379   7.129  0.3849  0.1114 -0.0142
  907YOPE   C3A12701   0.219  10.085   7.045 -0.0685  0.0052 -0.3266
  907YOPE   C4A12702  -0.173   9.895   6.769  0.0702  0.0268 -0.0647
  907YOPE   C1B12703   0.112  10.895   6.682  0.3137 -0.3265  0.2747
  907YOPE   C2B12704  -0.168  11.009   6.978 -0.3863 -0.0032 -0.2052
  907YOPE   D3B12705  -0.426  11.363   7.121  0.2961 -0.1720  0.1712
  907YOPE   C4B12706  -0.587  11.620   7.429  0.2894 -0.0671  0.3526
  908YOPE   NH312707   9.198   8.118   5.721 -0.0553  0.1038 -0.0729
  908YOPE   PO412708   8.898   8.155   6.132  0.1176 -0.1170  0.0634
  908YOPE   GL112709   9.359   8.283   6.172 -0.1147 -0.2575  0.1508
  908YOPE   GL212710   9.484   8.053   6.225  0.2345 -0.1937 -0.0306
  908YOPE   C1A12711   9.404   8.644   6.351  0.0847  0.0464  0.2235
  908YOPE   D2A12712   9.319   8.819   6.764  0.0288 -0.2924  0.1420
  908YOPE   C3A12713   9.425   9.223   7.104  0.1859 -0.3550  0.5573
  908YOPE   C4A12714   9.792   9.513   7.104  0.1408  0.2063  0.1388
  908YOPE   C1B12715   9.503   8.225   6.661  0.2860 -0.0740  0.0417
  908YOPE   C2B12716   9.303   8.264   6.918 -0.0538  0.1772 -0.0186
  908YOPE   D3B12717   9.330   8.327   7.403  0.1833  0.1499 -0.2004
  908YOPE   C4B12718   9.550   8.378   7.808 -0.0694  0.2628  0.0713
  909YOPE   NH312719   4.110   4.499   5.020 -0.0493  0.3145  0.0958
  909YOPE   PO412720   4.329   4.788   5.188  0.0368  0.1114  0.0307
  909YOPE   GL112721   4.448   4.711   5.451  0.4971  0.1283  0.2312
  909YOPE   GL212722   4.273   4.592   5.660  0.0763  0.2709  0.0247
  909YOPE   C1A12723   4.765   4.613   5.806 -0.1959  0.0441  0.0068
  909YOPE   D2A12724   4.761   4.698   6.135  0.0604  0.0453  0.2309
  909YOPE   C3A12725   4.458   4.704   6.489  0.3185 -0.0226  0.1652
  909YOPE   C4A12726   4.053   4.644   6.681  0.6312  0.0956 -0.0167
  909YOPE   C1B12727   4.326   4.440   6.066  0.0048  0.1360 -0.4283
  909YOPE   C2B12728   4.297   4.236   6.481  0.0569  0.2057  0.0742
  909YOPE   D3B12729   3.990   3.888   6.685 -0.1602  0.1307  0.1388
  909YOPE   C4B12730   4.132   3.544   7.010 -0.0188  0.0953  0.0766
  910YOPE   NH312731   0.349  16.942   5.664  0.1898 -0.0211 -0.0955
  910YOPE   PO412732   0.667  17.281   5.599  0.3632  0.1754 -0.1634
  910YOPE   GL112733   0.820  17.455   5.988 -0.1805 -0.0565  0.1011
  910YOPE   GL212734   0.576  17.467   6.160 -0.3990 -0.3429  0.5574
  910YOPE   C1A12735   0.997  17.239   6.325 -0.0649 -0.2526  0.0877
  910YOPE   D2A12736   0.997  17.270   6.819 -0.0569  0.0258 -0.2050
  910YOPE   C3A12737   0.568  17.287   7.032  0.1317  0.1539 -0.2510
  910YOPE   C4A12738   0.059  17.087   7.097 -0.0439 -0.0402  0.2847
  910YOPE   C1B12739   0.420  17.580   6.593 -0.1554  0.0266  0.1942
  910YOPE   C2B12740   0.321  17.736   7.090 -0.0399 -0.2382 -0.2257
  910YOPE   D3B12741   0.392  17.958   7.396 -0.2394  0.3522 -0.1943
  910YOPE   C4B12742   0.881  18.012   7.415  0.0429  0.1923  0.0347
  911YOPE   NH312743   8.314   2.496   4.987 -0.6110  0.0342  0.1159
  911YOPE   PO412744   8.119   2.823   4.879  0.1058 -0.1673  0.5836
  911YOPE   GL112745   8.243   2.892   5.300 -0.1246 -0.0834  0.0597
  911YOPE   GL212746   8.141   2.638   5.459  0.0343  0.0784 -0.1224
  911YOPE   C1A12747   7.990   3.095   5.702  0.0396 -0.0453 -0.0641
  911YOPE   D2A12748   7.751   3.406   5.941 -0.0250  0.0946 -0.3058
  911YOPE   C3A12749   7.345   3.616   5.932 -0.0120  0.3210  0.0400
  911YOPE   C4A12750   7.025   3.738   5.846  0.0063  0.0709 -0.2848
  911YOPE   C1B12751   7.885   2.665   5.846  0.0914  0.1715  0.0897
  911YOPE   C2B12752   7.861   2.968   6.196 -0.1291 -0.0500 -0.2251
  911YOPE   D3B12753   7.985   3.091   6.540 -0.4273  0.2440  0.1115
  911YOPE   C4B12754   7.806   2.956   6.932 -0.1447  0.1331 -0.0966
  912YOPE   NH312755   9.108   4.577   5.412  0.0698  0.0552  0.1561
  912YOPE   PO412756   9.090   4.964   5.443  0.1371 -0.1524  0.0014
  912YOPE   GL112757   9.061   5.048   5.924  0.2888 -0.2470 -0.1720
  912YOPE   GL212758   9.082   5.341   5.976 -0.1008 -0.1834  0.2325
  912YOPE   C1A12759   8.966   4.716   6.269 -0.2395  0.1166 -0.0678
  912YOPE   D2A12760   9.306   4.421   6.479 -0.4109 -0.2383 -0.1421
  912YOPE   C3A12761   9.779   4.403   6.576  0.1090  0.3180  0.1964
  912YOPE   C4A12762  10.057   4.328   6.783 -0.3858  0.0718 -0.1642
  912YOPE   C1B12763   9.230   5.152   6.389 -0.3005  0.2383 -0.1115
  912YOPE   C2B12764   9.310   4.963   6.823  0.1954 -0.0483 -0.1314
  912YOPE   D3B12765   9.646   4.951   7.052  0.0331  0.1322  0.3453
  912YOPE   C4B12766   9.850   4.576   7.174  0.0363 -0.0702 -0.2539
  913YOPE   NH312767   4.689   5.009   4.944  0.1368 -0.2030 -0.0676
  913YOPE   PO412768   4.821   4.785   5.065 -0.2130  0.1087 -0.0686
  913YOPE   GL112769   4.948   5.012   5.459  0.1024  0.0405 -0.0996
  913YOPE   GL212770   5.200   5.061   5.528 -0.1142 -0.1692 -0.0503
  913YOPE   C1A12771   4.708   5.103   5.731  0.2341  0.0439  0.2413
  913YOPE   D2A12772   4.434   5.039   6.019 -0.0823 -0.2318 -0.2676
  913YOPE   C3A12773   4.384   5.283   6.324 -0.2386  0.1485 -0.2981
  913YOPE   C4A12774   4.393   5.694   6.529 -0.2202 -0.0805 -0.2223
  913YOPE   C1B12775   5.256   4.790   5.815  0.2414 -0.0014 -0.2593
  913YOPE   C2B12776   5.359   4.719   6.266 -0.0542 -0.0130 -0.1338
  913YOPE   D3B12777   5.531   4.852   6.637 -0.1446  0.0210 -0.2169
  913YOPE   C4B12778   5.487   4.891   7.098 -0.3185  0.1312 -0.1800
  914YOPE   NH312779   5.826   0.090   4.742 -0.0727  0.1346 -0.1170
  914YOPE   PO412780   6.097   0.093   4.978  0.2273  0.1126 -0.1766
  914YOPE   GL112781   6.418   0.031   5.257  0.0525  0.0952  0.2091
  914YOPE   GL212782   6.807   0.226   5.308  0.2115 -0.0151 -0.0676
  914YOPE   C1A12783   6.607  -0.071   5.711 -0.0520  0.0135 -0.0438
  914YOPE   D2A12784   6.711  -0.115   6.039  0.0983  0.3132  0.0407
  914YOPE   C3A12785   7.082  -0.046   6.278  0.1561  0.1890  0.0797
  914YOPE   C4A12786   7.400   0.256   6.381  0.2285  0.0888 -0.0787
  914YOPE   C1B12787   7.083   0.122   5.645  0.0739  0.0971  0.0724
  914YOPE   C2B12788   7.346   0.321   5.925  0.1464  0.1844  0.2658
  914YOPE   D3B12789   7.550  -0.072   6.028 -0.0093 -0.1350 -0.0705
  914YOPE   C4B12790   7.777  -0.373   5.728 -0.3642  0.1194  0.1803
  915YOPE   NH312791  15.185   3.921   5.458 -0.1357  0.0403 -0.0210
  915YOPE   PO412792  14.891   4.327   5.419 -0.2653 -0.0602  0.2356
  915YOPE   GL112793  14.814   4.063   5.771  0.0765  0.1852 -0.0984
  915YOPE   GL212794  15.073   3.924   5.986 -0.1899  0.2063 -0.1234
  915YOPE   C1A12795  14.689   4.200   6.253 -0.1980  0.3301  0.3143
  915YOPE   D2A12796  14.688   4.256   6.701 -0.1824  0.0623  0.0280
  915YOPE   C3A12797  14.799   3.878   6.948 -0.2777 -0.0008  0.1670
  915YOPE   C4A12798  14.896   3.681   7.294  0.1892 -0.3661 -0.1669
  915YOPE   C1B12799  15.058   3.818   6.363 -0.0141 -0.3249  0.0500
  915YOPE   C2B12800  15.296   3.675   6.810 -0.0157 -0.2862  0.0956
  915YOPE   D3B12801  15.422   3.744   7.188 -0.2436 -0.0303  0.1043
  915YOPE   C4B12802  15.405   3.885   7.593  0.0137 -0.1915 -0.5077
  916YOPE   NH312803   8.058   3.327   4.966  0.0239 -0.2249 -0.2335
  916YOPE   PO412804   8.134   3.702   5.072 -0.0778 -0.1472  0.3007
  916YOPE   GL112805   8.220   3.810   5.452  0.4849  0.0261  0.0663
  916YOPE   GL212806   8.015   4.146   5.552  0.5913 -0.0407  0.2306
  916YOPE   C1A12807   8.131   3.620   5.762 -0.0355  0.0971 -0.0030
  916YOPE   D2A12808   8.266   3.358   6.050 -0.0231 -0.2001  0.0975
  916YOPE   C3A12809   8.514   3.256   6.387  0.2112 -0.0992 -0.1023
  916YOPE   C4A12810   9.004   3.223   6.345  0.1654 -0.3859  0.3075
  916YOPE   C1B12811   7.782   3.982   5.997  0.1440  0.0355  0.3561
  916YOPE   C2B12812   7.822   3.737   6.371  0.0370  0.2348 -0.0306
  916YOPE   D3B12813   8.110   3.575   6.680  0.0188 -0.0834 -0.2278
  916YOPE   C4B12814   8.436   3.653   7.044 -0.1772  0.2332 -0.1462
  917YOPE   NH312815  14.233   7.215   4.547  0.0396 -0.1557 -0.2192
  917YOPE   PO412816  14.577   7.245   4.874 -0.0709 -0.0563  0.0751
  917YOPE   GL112817  14.584   7.016   5.311  0.0199 -0.0277 -0.1440
  917YOPE   GL212818  14.310   7.068   5.547  0.0808 -0.1188  0.1264
  917YOPE   C1A12819  14.990   7.057   5.624  0.0738 -0.2321 -0.2133
  917YOPE   D2A12820  15.326   6.813   5.821  0.0168  0.1410  0.0322
  917YOPE   C3A12821  15.503   6.750   6.233 -0.1300  0.2773 -0.1042
  917YOPE   C4A12822  15.664   6.326   6.444  0.2403 -0.1378 -0.2623
  917YOPE   C1B12823  14.165   7.160   6.043 -0.0737 -0.5000 -0.3163
  917YOPE   C2B12824  14.051   7.183   6.484 -0.3291 -0.0421 -0.0446
  917YOPE   D3B12825  13.619   7.174   6.777 -0.3775 -0.0498 -0.0491
  917YOPE   C4B12826  13.371   7.477   7.025 -0.2036  0.0829  0.2670
  918YOPE   NH312827   1.732   1.129   5.241 -0.3333 -0.1790  0.1803
  918YOPE   PO412828   1.914   0.747   5.386 -0.1498 -0.0921  0.0377
  918YOPE   GL112829   1.801   0.786   5.756 -0.1206 -0.0373  0.0828
  918YOPE   GL212830   1.590   1.034   5.680 -0.1911 -0.0269 -0.2861
  918YOPE   C1A12831   1.689   0.518   6.101 -0.0832  0.0537 -0.2550
  918YOPE   D2A12832   1.725   0.502   6.520 -0.0001  0.1827 -0.1235
  918YOPE   C3A12833   1.727   0.818   6.930 -0.0257  0.0872  0.0352
  918YOPE   C4A12834   2.011   1.110   7.039 -0.0057 -0.1278  0.0911
  918YOPE   C1B12835   1.314   0.828   6.025 -0.3374 -0.1621  0.0294
  918YOPE   C2B12836   1.248   0.607   6.329 -0.2129  0.1748 -0.2162
  918YOPE   D3B12837   1.275   0.651   6.772 -0.0325 -0.0508 -0.1878
  918YOPE   C4B12838   1.444   0.464   7.124 -0.0630 -0.5683  0.0254
  919YOPE   NH312839   1.436   4.749   5.146  0.0553  0.2695  0.1245
  919YOPE   PO412840   1.403   4.309   5.160  0.0221  0.1093 -0.0147
  919YOPE   GL112841   1.564   4.392   5.579 -0.1268  0.3091 -0.1502
  919YOPE   GL212842   1.556   4.786   5.648 -0.1117 -0.0015 -0.1062
  919YOPE   C1A12843   1.496   4.464   6.064 -0.0182 -0.4902  0.0336
  919YOPE   D2A12844   1.588   4.629   6.398 -0.2730 -0.0376 -0.0225
  919YOPE   C3A12845   1.489   4.691   6.907  0.0943 -0.1167  0.1086
  919YOPE   C4A12846   1.401   4.432   7.306  0.0984  0.0872 -0.1421
  919YOPE   C1B12847   1.707   5.031   6.015 -0.1001 -0.1355  0.2509
  919YOPE   C2B12848   1.635   5.123   6.468 -0.1167  0.0819  0.2163
  919YOPE   D3B12849   1.617   5.308   6.889  0.0210 -0.0381  0.0453
  919YOPE   C4B12850   1.315   5.526   7.174  0.1726 -0.0182  0.2756
  920YOPE   NH312851  16.406  15.546   5.736 -0.1764  0.2428 -0.0581
  920YOPE   PO412852  16.026  15.699   5.963 -0.0470 -0.0245 -0.1502
  920YOPE   GL112853  16.382  15.560   6.259  0.0579  0.1187 -0.1076
  920YOPE   GL212854  16.400  15.814   6.383  0.1418 -0.4128 -0.1036
  920YOPE   C1A12855  16.208  15.279   6.602 -0.1392 -0.0818 -0.1346
  920YOPE   D2A12856  15.894  15.212   6.946 -0.2636 -0.0815  0.1389
  920YOPE   C3A12857  16.035  14.958   7.381 -0.2455  0.0794 -0.0068
  920YOPE   C4A12858  16.239  14.821   7.783 -0.3356 -0.1981 -0.1420
  920YOPE   C1B12859  16.369  15.869   6.776 -0.1865 -0.0889 -0.0070
  920YOPE   C2B12860  16.279  15.538   7.045  0.0550  0.0494  0.0554
  920YOPE   D3B12861  16.584  15.399   7.364 -0.2229  0.1573  0.1429
  920YOPE   C4B12862  16.658  15.003   7.537  0.1637 -0.0393 -0.1154
  921YOPE   NH312863  13.004   9.172   5.618 -0.2904  0.2110  0.0331
  921YOPE   PO412864  12.794   8.808   5.672  0.1668  0.2138  0.0582
  921YOPE   GL112865  12.743   8.685   6.184  0.1244 -0.0982  0.3313
  921YOPE   GL212866  12.691   8.392   6.045 -0.5043 -0.2297  0.0365
  921YOPE   C1A12867  12.647   8.474   6.623 -0.1665  0.2260 -0.0189
  921YOPE   D2A12868  12.707   8.593   7.048 -0.0203  0.1534  0.0819
  921YOPE   C3A12869  12.442   8.740   7.420  0.3510 -0.0879 -0.1617
  921YOPE   C4A12870  12.506   9.211   7.369  0.0189  0.0925 -0.0584
  921YOPE   C1B12871  12.293   8.417   6.259 -0.1912 -0.0990  0.2800
  921YOPE   C2B12872  12.232   8.279   6.723 -0.1557 -0.1198 -0.2043
  921YOPE   D3B12873  12.116   8.216   7.166  0.3666 -0.0462 -0.2211
  921YOPE   C4B12874  11.940   8.402   7.613 -0.0261 -0.0958 -0.0314
  922YOPE   NH312875  18.286  18.625   5.610  0.0003  0.0180  0.3556
  922YOPE   PO412876  18.730  18.828   5.649  0.1453 -0.0523  0.1790
  922YOPE   GL112877  18.597  18.735   6.005 -0.1696 -0.3266 -0.0557
  922YOPE   GL212878  18.389  18.378   5.987 -0.0431 -0.2883  0.0012
  922YOPE   C1A12879  18.379  18.741   6.374  0.0141 -0.0633 -0.0667
  922YOPE   D2A12880  18.144  18.726   6.759  0.0467 -0.0022 -0.4021
  922YOPE   C3A12881  18.298  18.797   7.211  0.0477  0.3464  0.4132
  922YOPE   C4A12882  18.094  18.797   7.460 -0.1374  0.0289 -0.3496
  922YOPE   C1B12883  18.543  18.301   6.383 -0.0449  0.0245  0.0375
  922YOPE   C2B12884  18.710  18.035   6.630 -0.1047 -0.0451 -0.3399
  922YOPE   D3B12885  18.458  17.833   6.959 -0.1169 -0.0062 -0.2575
  922YOPE   C4B12886  18.148  18.040   7.290  0.2250 -0.0069  0.1952
  923YOPE   NH312887  16.734   0.585   5.597 -0.0335  0.2299  0.3436
  923YOPE   PO412888  16.516   0.816   5.376 -0.1516  0.1132  0.1494
  923YOPE   GL112889  16.324   1.015   5.684 -0.2501  0.0715 -0.0981
  923YOPE   GL212890  16.622   1.053   5.899 -0.1885 -0.0256 -0.2102
  923YOPE   C1A12891  16.224   1.240   6.157 -0.0393  0.2872  0.3736
  923YOPE   D2A12892  15.852   1.257   6.361 -0.0429 -0.0273 -0.2242
  923YOPE   C3A12893  15.572   1.162   6.644 -0.2594  0.3621 -0.3732
  923YOPE   C4A12894  15.266   1.293   6.897 -0.1302  0.1185 -0.0258
  923YOPE   C1B12895  16.716   0.993   6.338  0.3851  0.3291  0.3353
  923YOPE   C2B12896  16.591   1.278   6.574 -0.1253 -0.1702 -0.1528
  923YOPE   D3B12897  16.222   1.507   6.681 -0.2092  0.0386  0.3323
  923YOPE   C4B12898  15.844   1.383   6.945 -0.0184 -0.0887  0.0691
  924YOPE   NH312899  16.840  18.583   5.400  0.0514 -0.0847 -0.1740
  924YOPE   PO412900  16.905  18.807   5.810  0.1241  0.0059 -0.0974
  924YOPE   GL112901  16.736  18.847   6.226 -0.2542  0.0697 -0.1802
  924YOPE   GL212902  16.757  18.651   6.361 -0.3826 -0.3264 -0.2433
  924YOPE   C1A12903  16.846  19.121   6.474 -0.1977  0.1030  0.0109
  924YOPE   D2A12904  17.078  19.275   6.822 -0.3768  0.1211  0.0253
  924YOPE   C3A12905  17.086  19.481   7.289  0.1256 -0.2154 -0.2272
  924YOPE   C4A12906  17.176  19.731   7.574 -0.1474 -0.1475 -0.2452
  924YOPE   C1B12907  16.757  18.421   6.755 -0.2553  0.3614  0.0922
  924YOPE   C2B12908  16.797  18.452   7.135  0.0787 -0.3167 -0.1331
  924YOPE   D3B12909  16.459  18.435   7.404 -0.1094 -0.2683 -0.0804
  924YOPE   C4B12910  16.294  18.591   7.835 -0.2994 -0.0099 -0.0092
  925YOPE   NH312911   0.534  18.695   5.427 -0.1608  0.4115 -0.0630
  925YOPE   PO412912   0.272  19.134   5.360 -0.1242 -0.3295  0.4595
  925YOPE   GL112913   0.393  19.329   5.827 -0.0688 -0.1717 -0.3771
  925YOPE   GL212914   0.658  19.139   5.923  0.2757  0.2325 -0.1452
  925YOPE   C1A12915   0.250  19.299   6.320  0.0590  0.4860 -0.0213
  925YOPE   D2A12916   0.507  19.183   6.601 -0.2197  0.0928 -0.0331
  925YOPE   C3A12917   0.219  19.040   6.961 -0.1917  0.0420 -0.0177
  925YOPE   C4A12918   0.040  19.030   7.430 -0.1436  0.2240  0.0169
  925YOPE   C1B12919   0.819  19.418   6.278  0.1804  0.0599  0.2871
  925YOPE   C2B12920   0.933  19.457   6.619  0.0590 -0.2968  0.0495
  925YOPE   D3B12921   1.048  19.346   6.970  0.0117 -0.0221 -0.0994
  925YOPE   C4B12922   1.257  19.227   7.298 -0.1283  0.1533 -0.1011
  926YOPE   NH312923   2.139  10.383   5.576 -0.2202 -0.0850 -0.1792
  926YOPE   PO412924   1.820  10.330   5.862  0.0308 -0.1209 -0.1570
  926YOPE   GL112925   1.770   9.963   6.040  0.1506 -0.1915 -0.1695
  926YOPE   GL212926   1.504   9.765   6.071  0.0258 -0.1383 -0.0269
  926YOPE   C1A12927   1.934   9.756   6.489  0.4797 -0.2106  0.2867
  926YOPE   D2A12928   2.063   9.833   6.892  0.2395 -0.1206  0.1020
  926YOPE   C3A12929   1.780   9.683   7.253 -0.0153 -0.1230 -0.1073
  926YOPE   C4A12930   1.489   9.506   7.565  0.3279  0.1309 -0.2248
  926YOPE   C1B12931   1.371   9.953   6.508  0.2778  0.0329 -0.1961
  926YOPE   C2B12932   1.170  10.234   6.943  0.1540 -0.0745 -0.1347
  926YOPE   D3B12933   0.897  10.166   7.247 -0.0435 -0.4295  0.1070
  926YOPE   C4B12934   0.880  10.465   7.553 -0.2819  0.0285  0.0585
  927YOPE   NH312935  18.498   0.960   5.197 -0.0003  0.0766  0.0189
  927YOPE   PO412936  18.616   0.645   5.440 -0.0817 -0.0123 -0.1936
  927YOPE   GL112937  18.723   0.443   5.865 -0.1758  0.1332 -0.1863
  927YOPE   GL212938  18.910   0.096   5.861  0.0507 -0.0057 -0.2255
  927YOPE   C1A12939  18.508   0.608   6.317  0.1154 -0.2417 -0.0185
  927YOPE   D2A12940  18.471   0.964   6.475  0.2724  0.0202 -0.0231
  927YOPE   C3A12941  18.025   1.022   6.676  0.2315  0.0704  0.0838
  927YOPE   C4A12942  17.693   0.983   6.534  0.1353  0.0949 -0.0105
  927YOPE   C1B12943  18.752   0.059   6.314  0.0300  0.1900 -0.0169
  927YOPE   C2B12944  18.895   0.200   6.750 -0.3097  0.0574  0.1077
  927YOPE   D3B12945  19.087   0.328   7.177  0.2047 -0.0483 -0.0338
  927YOPE   C4B12946  19.510   0.235   7.316  0.3250 -0.2502  0.4111
  928YOPE   NH312947  13.939   9.343   5.708  0.3754  0.1135  0.0822
  928YOPE   PO412948  13.949   9.829   5.707  0.4340 -0.3824  0.1895
  928YOPE   GL112949  13.810   9.633   6.115 -0.1684 -0.1382 -0.4697
  928YOPE   GL212950  13.954   9.452   6.174  0.0308  0.3680  0.0669
  928YOPE   C1A12951  13.630   9.652   6.549  0.0436 -0.0727  0.3488
  928YOPE   D2A12952  13.882   9.533   6.966  0.3288 -0.3479  0.1211
  928YOPE   C3A12953  13.761   9.820   7.327 -0.0902  0.2989 -0.1832
  928YOPE   C4A12954  13.866   9.896   7.682 -0.5551 -0.0917 -0.0661
  928YOPE   C1B12955  14.233   9.434   6.420 -0.3034  0.0866 -0.1288
  928YOPE   C2B12956  14.286   9.232   6.882 -0.1611 -0.0351  0.3555
  928YOPE   D3B12957  14.302   9.200   7.273 -0.0334 -0.5148  0.0392
  928YOPE   C4B12958  14.217   9.579   7.450  0.0236  0.1310 -0.0540
  929YOPE   NH312959  13.644   2.683   5.481 -0.1278 -0.1164 -0.0002
  929YOPE   PO412960  14.117   2.662   5.581 -0.0843 -0.1335  0.0435
  929YOPE   GL112961  13.940   3.081   5.680 -0.2916  0.1015 -0.0497
  929YOPE   GL212962  14.043   3.345   5.513 -0.0790 -0.0879 -0.1010
  929YOPE   C1A12963  13.804   3.173   6.041 -0.4647  0.0479 -0.1393
  929YOPE   D2A12964  13.686   3.189   6.440 -0.0836  0.0007  0.2702
  929YOPE   C3A12965  13.597   2.759   6.773 -0.0636 -0.1034  0.3580
  929YOPE   C4A12966  13.474   2.342   6.734  0.3006  0.1940  0.2979
  929YOPE   C1B12967  14.287   3.554   5.748  0.0590 -0.1073 -0.0642
  929YOPE   C2B12968  14.523   3.749   6.107 -0.0696  0.0208 -0.1061
  929YOPE   D3B12969  14.582   3.543   6.536  0.2247 -0.1213 -0.1665
  929YOPE   C4B12970  14.406   3.262   7.013 -0.0794 -0.3038 -0.0674
  930YOPE   NH312971  17.517  18.109   5.377 -0.0459 -0.3064 -0.0983
  930YOPE   PO412972  17.716  18.595   5.429 -0.5718  0.0509 -0.0802
  930YOPE   GL112973  17.526  18.769   5.910  0.1022  0.1333 -0.1431
  930YOPE   GL212974  17.283  18.725   6.187  0.0815 -0.0698  0.1894
  930YOPE   C1A12975  17.760  18.810   6.348  0.3266  0.0366 -0.4229
  930YOPE   D2A12976  17.641  18.669   6.740  0.1660  0.3105  0.1284
  930YOPE   C3A12977  17.623  18.884   7.108 -0.1357 -0.1079 -0.2592
  930YOPE   C4A12978  17.577  19.002   7.555 -0.1362  0.1210 -0.0893
  930YOPE   C1B12979  17.130  18.793   6.664 -0.1467  0.3431 -0.1023
  930YOPE   C2B12980  17.096  18.872   7.113 -0.0754 -0.3523 -0.2056
  930YOPE   D3B12981  17.025  18.972   7.460 -0.2026  0.0307 -0.0284
  930YOPE   C4B12982  17.230  18.797   7.776 -0.0121 -0.1969 -0.2335
  931YOPE   NH312983   4.589  16.290   5.384 -0.1606  0.0137 -0.1299
  931YOPE   PO412984   4.839  16.600   5.351  0.0419 -0.1389  0.2792
  931YOPE   GL112985   4.774  16.723   5.746  0.0122 -0.0079 -0.0218
  931YOPE   GL212986   4.661  16.436   5.862 -0.0580 -0.3037  0.2906
  931YOPE   C1A12987   4.962  16.600   6.210 -0.0795 -0.2824 -0.0252
  931YOPE   D2A12988   5.225  16.827   6.280 -0.0575 -0.0542  0.2157
  931YOPE   C3A12989   5.389  16.822   6.689 -0.1859  0.0446  0.1081
  931YOPE   C4A12990   5.629  16.554   7.044  0.0151 -0.0956  0.1603
  931YOPE   C1B12991   4.617  16.075   6.156  0.2430 -0.1174 -0.2591
  931YOPE   C2B12992   4.588  15.750   6.533  0.5331  0.1134  0.0287
  931YOPE   D3B12993   4.363  15.632   6.907  0.1179 -0.0188  0.0954
  931YOPE   C4B12994   4.520  15.339   7.159 -0.2633 -0.1298  0.1350
  932YOPE   NH312995   3.036   1.540   4.991 -0.2275  0.3148 -0.1070
  932YOPE   PO412996   2.699   1.365   5.151 -0.2366 -0.3150 -0.0008
  932YOPE   GL112997   2.633   1.366   5.464 -0.3261 -0.4150  0.0776
  932YOPE   GL212998   2.594   1.096   5.734  0.1365 -0.1935  0.0324
  932YOPE   C1A12999   2.451   1.631   5.808  0.0159  0.1920 -0.3257
  932YOPE   D2A13000   2.401   1.857   6.194 -0.1956  0.0668 -0.0284
  932YOPE   C3A13001   2.543   2.236   6.435  0.0783  0.0285 -0.2947
  932YOPE   C4A13002   2.506   2.539   6.811 -0.0189  0.1075 -0.0203
  932YOPE   C1B13003   2.197   1.052   5.957  0.0968  0.0201  0.2445
  932YOPE   C2B13004   1.835   1.007   6.227  0.1446 -0.1535  0.0658
  932YOPE   D3B13005   1.823   1.247   6.582  0.1269  0.0504  0.1600
  932YOPE   C4B13006   1.533   1.328   6.958  0.2843  0.2265 -0.0575
  933YOPE   NH313007  12.427  12.203   5.514 -0.3107 -0.3685  0.0363
  933YOPE   PO413008  12.197  11.808   5.524 -0.0742 -0.0130  0.1951
  933YOPE   GL113009  12.356  11.716   5.886 -0.0528 -0.0341  0.1110
  933YOPE   GL213010  12.546  11.983   5.967 -0.1553  0.2545 -0.1295
  933YOPE   C1A13011  12.238  11.555   6.248  0.0481 -0.1095 -0.2320
  933YOPE   D2A13012  11.992  11.471   6.569 -0.1371 -0.3290  0.0029
  933YOPE   C3A13013  12.073  11.484   6.970  0.3619  0.1242 -0.0622
  933YOPE   C4A13014  11.726  11.502   7.353 -0.2277 -0.1074  0.0181
  933YOPE   C1B13015  12.470  11.965   6.443  0.3668  0.1745 -0.0530
  933YOPE   C2B13016  12.424  11.830   6.805 -0.0364 -0.0764  0.0823
  933YOPE   D3B13017  12.677  11.893   7.111  0.0262 -0.0703  0.1953
  933YOPE   C4B13018  12.996  12.243   7.296  0.4465  0.3380 -0.3517
  934YOPE   NH313019   1.501  18.449   5.166  0.1177 -0.3798 -0.0975
  934YOPE   PO413020   1.515  18.741   5.528  0.2640  0.3672  0.0038
  934YOPE   GL113021   1.727  18.725   5.909  0.3144  0.0225  0.0325
  934YOPE   GL213022   1.997  18.543   5.957 -0.0312 -0.2934  0.0657
  934YOPE   C1A13023   1.918  18.804   6.370  0.0905  0.1762 -0.0276
  934YOPE   D2A13024   2.168  18.958   6.769 -0.0500 -0.1222 -0.1606
  934YOPE   C3A13025   2.318  18.961   7.166  0.2323 -0.3574  0.2736
  934YOPE   C4A13026   2.531  18.590   7.399  0.3615 -0.1055 -0.5076
  934YOPE   C1B13027   2.019  18.302   6.343 -0.1779 -0.2446  0.0604
  934YOPE   C2B13028   1.961  18.168   6.731 -0.0985  0.0189  0.0891
  934YOPE   D3B13029   1.664  18.109   7.070 -0.4087 -0.2076  0.6334
  934YOPE   C4B13030   1.262  17.941   7.096 -0.1611  0.0800  0.1237
  935YOPE   NH313031   5.032   6.045   5.501 -0.1847  0.3077 -0.1922
  935YOPE   PO413032   4.727   6.337   5.435  0.1585  0.1168  0.0330
  935YOPE   GL113033   4.517   6.373   5.794  0.0041 -0.3121  0.0114
  935YOPE   GL213034   4.852   6.321   5.982 -0.2893  0.1750  0.0060
  935YOPE   C1A13035   4.124   6.257   5.908  0.2071 -0.0551 -0.0460
  935YOPE   D2A13036   3.730   6.386   6.008 -0.0118  0.3865 -0.1926
  935YOPE   C3A13037   3.615   6.090   6.291  0.2851 -0.1371 -0.0375
  935YOPE   C4A13038   3.297   5.922   6.289  0.2387  0.2682  0.0982
  935YOPE   C1B13039   4.504   6.318   6.266  0.0964  0.1264  0.0393
  935YOPE   C2B13040   4.372   6.483   6.623  0.3019  0.3242 -0.0920
  935YOPE   D3B13041   4.733   6.639   6.889 -0.0403 -0.0171 -0.1940
  935YOPE   C4B13042   4.847   6.943   7.309  0.6103 -0.2342  0.0799
  936YOPE   NH313043  14.789   1.512   5.514 -0.1182 -0.0089 -0.2179
  936YOPE   PO413044  14.967   1.039   5.495 -0.0165  0.2037 -0.3454
  936YOPE   GL113045  14.876   1.179   5.925  0.2828  0.0948 -0.1394
  936YOPE   GL213046  14.535   1.300   5.877 -0.1563 -0.1137  0.1657
  936YOPE   C1A13047  14.858   1.306   6.308 -0.1567  0.2258 -0.1345
  936YOPE   D2A13048  14.716   1.201   6.738 -0.1554  0.0518  0.0683
  936YOPE   C3A13049  14.664   1.493   7.009  0.0100 -0.0462  0.0210
  936YOPE   C4A13050  14.680   1.452   7.519 -0.0308 -0.1861 -0.2125
  936YOPE   C1B13051  14.291   1.443   6.290  0.3141  0.1157  0.0163
  936YOPE   C2B13052  14.230   1.366   6.798 -0.0670 -0.1373 -0.0040
  936YOPE   D3B13053  14.245   1.291   7.277  0.0174  0.5262  0.2956
  936YOPE   C4B13054  14.413   1.032   7.580 -0.0090 -0.0834  0.0255
  937YOPE   NH313055  18.727   9.405   5.883 -0.0898 -0.2025  0.1594
  937YOPE   PO413056  18.326   9.523   5.810 -0.0256  0.0162 -0.4911
  937YOPE   GL113057  17.943   9.787   5.992 -0.1364 -0.3004 -0.1745
  937YOPE   GL213058  17.745   9.847   5.791 -0.0931  0.2249 -0.1865
  937YOPE   C1A13059  17.852   9.786   6.563 -0.1209 -0.0445 -0.1887
  937YOPE   D2A13060  17.698   9.777   6.915 -0.1635 -0.0999  0.0795
  937YOPE   C3A13061  17.838   9.835   7.313  0.3458 -0.1576  0.1630
  937YOPE   C4A13062  17.644   9.739   7.744 -0.0571 -0.0322  0.0578
  937YOPE   C1B13063  17.400   9.849   6.064  0.1638 -0.0229  0.0240
  937YOPE   C2B13064  17.238   9.878   6.477 -0.0288  0.1532 -0.4095
  937YOPE   D3B13065  17.235  10.053   6.861 -0.2448 -0.2992  0.0850
  937YOPE   C4B13066  17.177  10.105   7.246  0.0564 -0.1694  0.0277
  938YOPE   NH313067   2.101   1.701   5.152 -0.1287 -0.2403  0.5094
  938YOPE   PO413068   1.772   1.641   5.312 -0.0216 -0.1310 -0.1004
  938YOPE   GL113069   1.596   1.629   5.682  0.1457 -0.0214 -0.0806
  938YOPE   GL213070   1.839   1.862   5.984 -0.3262  0.2538 -0.5074
  938YOPE   C1A13071   1.471   1.370   6.060 -0.2516 -0.1245 -0.0974
  938YOPE   D2A13072   1.335   1.183   6.498 -0.1574  0.0144  0.0098
  938YOPE   C3A13073   1.085   1.093   6.827  0.0397 -0.0812 -0.1970
  938YOPE   C4A13074   0.756   0.858   6.700  0.3789 -0.0579 -0.3587
  938YOPE   C1B13075   1.982   1.533   6.195 -0.0063 -0.1304 -0.0989
  938YOPE   C2B13076   2.278   1.367   6.427  0.1461  0.0681 -0.1664
  938YOPE   D3B13077   2.681   1.627   6.534  0.1510 -0.1573 -0.2941
  938YOPE   C4B13078   3.021   1.956   6.493 -0.2018 -0.3381 -0.0394
  939YOPE   NH313079  13.085  16.479   5.637 -0.0028 -0.1040 -0.0819
  939YOPE   PO413080  12.785  16.076   5.487  0.4599  0.1235 -0.0141
  939YOPE   GL113081  12.621  15.938   5.928  0.4093 -0.3535 -0.2483
  939YOPE   GL213082  12.866  15.693   5.970 -0.1210  0.1066  0.1475
  939YOPE   C1A13083  12.614  15.897   6.390 -0.0853 -0.1649  0.2931
  939YOPE   D2A13084  12.457  16.206   6.725 -0.2306 -0.2354  0.1217
  939YOPE   C3A13085  12.735  16.580   6.668  0.3120 -0.0550  0.0653
  939YOPE   C4A13086  12.773  16.802   7.055 -0.1095  0.1499 -0.1272
  939YOPE   C1B13087  13.130  15.728   6.445  0.2179 -0.2068 -0.1121
  939YOPE   C2B13088  13.213  15.890   6.808  0.1311  0.1303 -0.1156
  939YOPE   D3B13089  13.285  15.823   7.275  0.0886 -0.0212 -0.0305
  939YOPE   C4B13090  13.047  15.845   7.705  0.0670  0.0185 -0.4647
  940YOPE   NH313091  15.920   4.673   5.473  0.1519 -0.0150 -0.2077
  940YOPE   PO413092  15.570   4.927   5.649 -0.3210 -0.4626 -0.3699
  940YOPE   GL113093  15.491   5.025   6.032  0.0871 -0.1088 -0.2878
  940YOPE   GL213094  15.752   5.222   6.201  0.3066  0.2499 -0.4734
  940YOPE   C1A13095  15.072   4.917   6.362 -0.0637  0.2035 -0.1690
  940YOPE   D2A13096  14.723   4.741   6.448 -0.0746 -0.2391 -0.0395
  940YOPE   C3A13097  14.509   4.734   6.862 -0.2440  0.0145 -0.3482
  940YOPE   C4A13098  14.499   4.797   7.239  0.0674 -0.2667 -0.5975
  940YOPE   C1B13099  15.964   5.229   6.595  0.1246  0.2959  0.0420
  940YOPE   C2B13100  15.979   5.288   7.089 -0.3821  0.2118  0.1470
  940YOPE   D3B13101  15.928   5.396   7.482 -0.3941 -0.0220 -0.0201
  940YOPE   C4B13102  16.144   5.541   7.819 -0.0173  0.4088  0.0761
  941YOPE   NH313103   3.656   5.135   4.708  0.4188  0.2263 -0.1871
  941YOPE   PO413104   3.625   4.706   4.982 -0.0915 -0.1147  0.3755
  941YOPE   GL113105   3.400   4.548   5.409  0.0513  0.1220 -0.2304
  941YOPE   GL213106   3.356   4.183   5.416 -0.0529 -0.1799 -0.3424
  941YOPE   C1A13107   2.943   4.636   5.632 -0.3699  0.3370 -0.0336
  941YOPE   D2A13108   2.485   4.420   5.671  0.2405 -0.1305 -0.0165
  941YOPE   C3A13109   2.534   4.076   6.039  0.1054  0.1762  0.1082
  941YOPE   C4A13110   2.536   3.768   6.318  0.0724  0.0718  0.0227
  941YOPE   C1B13111   3.417   4.345   5.898 -0.0206 -0.1617 -0.0608
  941YOPE   C2B13112   3.813   4.665   6.104 -0.3524  0.2900  0.2531
  941YOPE   D3B13113   4.065   4.908   6.262 -0.0249  0.0265 -0.3880
  941YOPE   C4B13114   4.052   5.173   6.657 -0.0200  0.1500 -0.1978
  942POPC   NC313115  10.518   8.844   5.708  0.2522 -0.1668  0.0310
  942POPC   PO413116  10.403   9.216   5.777 -0.0596 -0.0137  0.1013
  942POPC   GL113117  10.351   9.512   6.070  0.2069  0.0651  0.0040
  942POPC   GL213118  10.249   9.367   6.390  0.2514 -0.0593  0.2571
  942POPC   C1A13119  10.356   9.805   6.365 -0.3950 -0.5700 -0.0522
  942POPC   D2A13120  10.455  10.356   6.461  0.1886  0.1164 -0.2675
  942POPC   C3A13121  10.437  10.308   6.855 -0.0279 -0.2138 -0.1357
  942POPC   C4A13122  10.401  10.030   7.136  0.0437 -0.1584  0.3655
  942POPC   C1B13123   9.904   9.610   6.420 -0.1295  0.0330 -0.1362
  942POPC   C2B13124   9.587  10.043   6.484  0.2807 -0.1234  0.0541
  942POPC   C3B13125   9.570  10.564   6.497  0.0180  0.1566  0.1554
  942POPC   C4B13126   9.658  11.016   6.598  0.2059  0.1421 -0.0791
  943POPC   NC313127   8.506   8.166   5.862  0.1777 -0.0236 -0.2618
  943POPC   PO413128   8.796   8.433   5.609  0.0555  0.2603  0.1748
  943POPC   GL113129   8.659   8.607   5.981  0.1545 -0.1214  0.0637
  943POPC   GL213130   8.332   8.526   6.227  0.0259 -0.0657  0.0021
  943POPC   C1A13131   8.794   8.725   6.354  0.0714  0.5087  0.0062
  943POPC   D2A13132   8.995   8.425   6.541 -0.4411 -0.0520  0.1003
  943POPC   C3A13133   8.879   8.487   6.884 -0.4141 -0.1041 -0.0504
  943POPC   C4A13134   8.874   8.308   7.169 -0.1178 -0.1952  0.0594
  943POPC   C1B13135   8.495   8.457   6.589  0.4335 -0.1338 -0.1453
  943POPC   C2B13136   8.426   8.195   6.980 -0.0863  0.2026  0.0583
  943POPC   C3B13137   8.491   7.748   7.149  0.0840 -0.3834  0.2744
  943POPC   C4B13138   8.326   7.386   7.354  0.0122 -0.1007  0.0492
  944POPC   NC313139   6.074  14.377   4.527 -0.2335 -0.1332 -0.2574
  944POPC   PO413140   5.986  14.392   5.006  0.0257  0.4057  0.2137
  944POPC   GL113141   6.041  14.650   5.483  0.0415 -0.0082  0.1148
  944POPC   GL213142   5.807  14.577   5.649 -0.0682 -0.2262 -0.3031
  944POPC   C1A13143   6.115  15.022   5.725 -0.0714  0.0413 -0.0256
  944POPC   D2A13144   6.430  15.366   5.849  0.0528 -0.0394 -0.0814
  944POPC   C3A13145   6.215  15.520   6.167  0.0049 -0.0281  0.1378
  944POPC   C4A13146   5.773  15.356   6.400 -0.3233  0.6206 -0.1090
  944POPC   C1B13147   6.096  14.488   6.130 -0.0574  0.0402  0.1480
  944POPC   C2B13148   6.163  14.447   6.611  0.0909 -0.0582  0.1198
  944POPC   C3B13149   6.343  14.239   6.845 -0.0255 -0.0537  0.1162
  944POPC   C4B13150   6.369  14.097   7.257  0.3794  0.0762  0.3544
  945POPC   NC313151   2.836   2.173   4.871  0.0847  0.0014 -0.0620
  945POPC   PO413152   3.142   1.992   5.045  0.2971 -0.0860 -0.0451
  945POPC   GL113153   3.259   1.790   5.345 -0.0238 -0.1412 -0.0922
  945POPC   GL213154   3.510   2.017   5.461 -0.0006  0.0980  0.1411
  945POPC   C1A13155   3.059   1.651   5.661 -0.0276  0.0407 -0.0279
  945POPC   D2A13156   2.895   1.828   6.051  0.0483 -0.0580 -0.0035
  945POPC   C3A13157   2.926   2.296   6.070 -0.2907  0.3633  0.2272
  945POPC   C4A13158   2.936   2.718   5.873  0.0210 -0.1297  0.1406
  945POPC   C1B13159   3.380   1.982   5.880  0.2793 -0.3327 -0.1354
  945POPC   C2B13160   3.491   1.981   6.357 -0.0739  0.2770 -0.1864
  945POPC   C3B13161   3.362   2.075   6.750 -0.1710  0.1525 -0.1565
  945POPC   C4B13162   3.342   2.447   7.157  0.2660 -0.0887 -0.1238
  946POPC   NC313163   7.621  14.260   5.309 -0.1319  0.0144 -0.1448
  946POPC   PO413164   7.633  14.658   5.503 -0.0411  0.0578  0.0668
  946POPC   GL113165   7.380  14.465   5.757 -0.2039 -0.0731 -0.3484
  946POPC   GL213166   7.433  14.263   5.984 -0.2360  0.2537  0.1052
  946POPC   C1A13167   6.983  14.464   5.915  0.0882  0.2285 -0.3573
  946POPC   D2A13168   6.631  14.673   5.840 -0.0750 -0.1218 -0.0048
  946POPC   C3A13169   6.421  14.922   6.158 -0.2454 -0.1768 -0.2920
  946POPC   C4A13170   6.182  15.082   6.482  0.0861 -0.1485  0.2780
  946POPC   C1B13171   7.091  14.134   6.291 -0.2644  0.0988 -0.1077
  946POPC   C2B13172   6.892  14.159   6.701  0.0907 -0.3339  0.0149
  946POPC   C3B13173   7.073  13.940   7.035  0.1234  0.3130  0.3444
  946POPC   C4B13174   6.772  13.792   7.304 -0.0806  0.0727  0.0963
  947POPC   NC313175  16.291   6.268   5.258 -0.0314  0.0678 -0.0860
  947POPC   PO413176  15.912   6.204   5.451  0.0178 -0.2366 -0.1480
  947POPC   GL113177  15.591   6.107   5.689  0.1199 -0.2461 -0.1086
  947POPC   GL213178  15.380   5.891   5.625 -0.0201 -0.0616 -0.0937
  947POPC   C1A13179  15.695   5.955   6.096 -0.1318 -0.4571  0.0690
  947POPC   D2A13180  15.746   5.696   6.421 -0.0808 -0.1921  0.2930
  947POPC   C3A13181  15.845   5.846   6.788  0.0449 -0.1637  0.0974
  947POPC   C4A13182  16.058   5.787   7.147  0.0308  0.0124 -0.0306
  947POPC   C1B13183  15.358   5.549   5.926 -0.2935 -0.0769 -0.0691
  947POPC   C2B13184  15.323   5.410   6.393 -0.1547  0.2808  0.3563
  947POPC   C3B13185  15.060   5.264   6.801 -0.3178 -0.1616 -0.1178
  947POPC   C4B13186  14.879   5.078   7.163 -0.3147 -0.3267  0.2592
  948POPC   NC313187   0.357  15.131   5.267  0.0727 -0.0995  0.1010
  948POPC   PO413188   0.442  15.527   5.268  0.0762 -0.0775  0.0253
  948POPC   GL113189   0.464  15.576   5.762  0.1052  0.2290  0.0787
  948POPC   GL213190   0.443  15.887   5.913 -0.0704 -0.1254  0.2726
  948POPC   C1A13191   0.552  15.390   6.258 -0.1362  0.0226 -0.2408
  948POPC   D2A13192   0.358  15.254   6.627  0.0131 -0.0303  0.1963
  948POPC   C3A13193   0.349  15.379   7.012  0.0885 -0.2941 -0.2053
  948POPC   C4A13194   0.203  15.402   7.467  0.1109  0.2134  0.2057
  948POPC   C1B13195   0.471  15.894   6.364 -0.2584 -0.3140  0.1050
  948POPC   C2B13196   0.537  15.835   6.720 -0.0504 -0.1130  0.2330
  948POPC   C3B13197   0.721  15.822   7.069  0.0944 -0.1631  0.1612
  948POPC   C4B13198   0.648  15.545   7.386  0.0539  0.0641 -0.2723
  949POPC   NC313199  17.462  12.742   5.437  0.1522  0.0531  0.2707
  949POPC   PO413200  17.610  12.259   5.368 -0.0656  0.2423 -0.0476
  949POPC   GL113201  17.667  12.412   5.770  0.1585  0.2334 -0.1167
  949POPC   GL213202  17.591  12.789   5.913  0.3366 -0.0315  0.3428
  949POPC   C1A13203  18.090  12.286   6.052  0.0047 -0.1760  0.2462
  949POPC   D2A13204  18.384  12.024   6.204  0.1120 -0.1624  0.1211
  949POPC   C3A13205  18.651  12.069   6.547  0.1933 -0.0055  0.1147
  949POPC   C4A13206  18.534  12.071   6.881  0.4595  0.1671  0.1905
  949POPC   C1B13207  17.427  12.913   6.237 -0.3900 -0.1563 -0.1144
  949POPC   C2B13208  17.112  12.884   6.518 -0.0331 -0.2192 -0.2193
  949POPC   C3B13209  17.071  12.696   6.939  0.5998  0.0130  0.0175
  949POPC   C4B13210  17.056  12.245   7.151 -0.0422  0.0877  0.0060
  950POPC   NC313211   4.498  11.836   5.775 -0.2332 -0.1722 -0.1727
  950POPC   PO413212   4.570  12.278   5.746  0.3013 -0.0491  0.0543
  950POPC   GL113213   4.482  12.168   6.198  0.1211  0.3052  0.1785
  950POPC   GL213214   4.295  11.835   6.225  0.3166  0.2036 -0.1581
  950POPC   C1A13215   4.430  12.380   6.541 -0.1484 -0.0984 -0.0958
  950POPC   D2A13216   4.209  12.488   6.884 -0.1663  0.1076  0.0193
  950POPC   C3A13217   3.829  12.698   7.023  0.3073  0.2192  0.0177
  950POPC   C4A13218   3.545  12.939   7.012 -0.1312  0.0620  0.2569
  950POPC   C1B13219   4.633  11.803   6.613 -0.2599 -0.1033  0.1832
  950POPC   C2B13220   4.929  11.780   6.989  0.0665 -0.3240  0.0866
  950POPC   C3B13221   5.239  11.628   7.286  0.1121  0.1268  0.1051
  950POPC   C4B13222   5.528  11.615   7.630 -0.2252 -0.0099 -0.2400
  951POPC   NC313223  14.907   3.086   5.451 -0.4723  0.2010 -0.1176
  951POPC   PO413224  15.305   2.805   5.362  0.0052 -0.1431 -0.0265
  951POPC   GL113225  15.779   2.839   5.369  0.1156 -0.0481 -0.1053
  951POPC   GL213226  15.960   3.120   5.402  0.2431 -0.1654 -0.1251
  951POPC   C1A13227  16.080   2.606   5.655  0.3223 -0.0294  0.0086
  951POPC   D2A13228  16.422   2.367   5.742 -0.0046 -0.3169  0.2153
  951POPC   C3A13229  16.599   2.355   6.160 -0.1790  0.0560  0.2464
  951POPC   C4A13230  16.605   2.364   6.591 -0.0506  0.0977 -0.0891
  951POPC   C1B13231  16.040   3.092   5.794  0.2820 -0.3385  0.1914
  951POPC   C2B13232  16.268   2.838   6.012  0.1208  0.1540  0.1467
  951POPC   C3B13233  16.697   2.785   6.312  0.0140 -0.1386  0.0696
  951POPC   C4B13234  16.908   2.720   6.654  0.0690 -0.2408  0.0641
  952POPC   NC313235   7.053  12.638   5.473 -0.4252  0.0244 -0.2378
  952POPC   PO413236   6.929  12.210   5.603 -0.5061 -0.2760 -0.1827
  952POPC   GL113237   7.260  12.373   5.916  0.1119 -0.3297  0.0177
  952POPC   GL213238   7.012  12.461   6.107 -0.2126  0.1798  0.0236
  952POPC   C1A13239   7.754  12.449   5.937  0.2755 -0.1294  0.1504
  952POPC   D2A13240   8.264  12.433   6.077  0.1514  0.1818  0.0500
  952POPC   C3A13241   8.329  12.487   6.572 -0.1649  0.0003 -0.0171
  952POPC   C4A13242   8.388  12.551   6.947  0.1805 -0.0117 -0.0973
  952POPC   C1B13243   6.867  12.185   6.446 -0.2905 -0.0460  0.3527
  952POPC   C2B13244   6.661  11.951   6.550 -0.0730  0.2918 -0.2406
  952POPC   C3B13245   6.512  11.498   6.614 -0.0178  0.0703  0.0999
  952POPC   C4B13246   6.267  11.217   6.831  0.0044 -0.0028  0.1358
  953POPC   NC313247  10.467   7.947   5.405 -0.0928 -0.0019 -0.1890
  953POPC   PO413248  10.848   7.802   5.594  0.3062  0.1499 -0.2934
  953POPC   GL113249  10.620   7.604   5.877  0.1806  0.0412 -0.0157
  953POPC   GL213250  10.404   7.855   6.021  0.3910  0.5189 -0.1674
  953POPC   C1A13251  10.648   7.307   6.093  0.1552  0.3494  0.1056
  953POPC   D2A13252  10.967   6.969   6.186 -0.4700  0.3714 -0.0252
  953POPC   C3A13253  11.096   6.732   5.819  0.1189 -0.1774  0.0029
  953POPC   C4A13254  11.109   6.335   5.701  0.2616 -0.0081  0.1248
  953POPC   C1B13255  10.083   7.942   6.288  0.0008  0.3765  0.1912
  953POPC   C2B13256   9.819   7.830   6.615 -0.1956 -0.3249 -0.2004
  953POPC   C3B13257  10.029   7.693   6.954  0.1237 -0.0902 -0.1183
  953POPC   C4B13258  10.366   7.577   7.147  0.1465 -0.2012 -0.1680
  954POPC   NC313259  14.448  16.580   5.527 -0.0612  0.2640  0.0853
  954POPC   PO413260  14.385  16.231   5.816 -0.1011 -0.4164 -0.1908
  954POPC   GL113261  14.140  15.992   6.151 -0.1707 -0.1524 -0.0091
  954POPC   GL213262  14.090  15.669   6.173 -0.0198  0.3490 -0.0484
  954POPC   C1A13263  14.040  16.096   6.456 -0.3407 -0.2007 -0.1314
  954POPC   D2A13264  13.893  16.072   6.859  0.0186 -0.0294 -0.3069
  954POPC   C3A13265  13.667  16.055   7.076  0.2341  0.2256 -0.0135
  954POPC   C4A13266  13.786  15.942   7.543  0.1085  0.1664  0.2943
  954POPC   C1B13267  14.194  15.665   6.666 -0.2420  0.1792 -0.1745
  954POPC   C2B13268  14.490  15.627   6.986  0.0673  0.2303 -0.2113
  954POPC   C3B13269  14.636  15.387   7.446  0.0278 -0.0276  0.0248
  954POPC   C4B13270  14.540  15.041   7.535  0.2928 -0.0241  0.0883
  955POPC   NC313271   0.010  12.987   5.727 -0.1492 -0.1752  0.1566
  955POPC   PO413272   0.412  12.875   5.933  0.0667  0.2793 -0.1939
  955POPC   GL113273   0.173  12.975   6.236 -0.1258 -0.0278  0.1411
  955POPC   GL213274   0.105  12.665   6.446  0.0476 -0.2420 -0.0152
  955POPC   C1A13275  -0.252  12.930   6.613  0.1881  0.0055  0.1028
  955POPC   D2A13276  -0.095  12.921   7.002 -0.3450 -0.1540 -0.0103
  955POPC   C3A13277  -0.260  13.147   7.302  0.1509 -0.1085 -0.0887
  955POPC   C4A13278  -0.445  13.497   7.551  0.0435  0.0300 -0.2482
  955POPC   C1B13279   0.478  12.484   6.741 -0.1170  0.3135 -0.1794
  955POPC   C2B13280   0.706  12.300   7.170 -0.0736  0.5389  0.2393
  955POPC   C3B13281   0.754  12.153   7.591  0.0006  0.0416  0.0976
  955POPC   C4B13282   0.912  12.222   7.953 -0.0061 -0.4279 -0.3174
  956POPC   NC313283  12.807   2.198   5.390 -0.2063 -0.1240 -0.1441
  956POPC   PO413284  12.363   2.302   5.270 -0.1263  0.1172 -0.1830
  956POPC   GL113285  12.164   2.266   5.710  0.1415  0.0061  0.1397
  956POPC   GL213286  11.883   2.380   5.758  0.0568 -0.0671  0.1320
  956POPC   C1A13287  12.260   2.211   6.130 -0.0818 -0.0623 -0.0032
  956POPC   D2A13288  12.328   2.579   6.461 -0.1399  0.0855  0.0611
  956POPC   C3A13289  12.048   2.735   6.765  0.0286  0.1899  0.1597
  956POPC   C4A13290  11.763   3.086   6.754  0.2221 -0.0861 -0.3758
  956POPC   C1B13291  11.824   2.440   6.128  0.0041  0.0669 -0.2110
  956POPC   C2B13292  11.771   2.285   6.671  0.2369 -0.3574  0.1073
  956POPC   C3B13293  11.843   2.253   7.029  0.4205  0.0883 -0.3919
  956POPC   C4B13294  12.202   2.337   6.933  0.1641 -0.0111  0.0067
  957POPC   NC313295   2.582  12.130   5.683 -0.0305  0.1478  0.0436
  957POPC   PO413296   2.946  12.245   5.960  0.0670 -0.4790 -0.0128
  957POPC   GL113297   2.989  12.406   6.411  0.0514  0.1753 -0.0963
  957POPC   GL213298   2.676  12.488   6.544  0.4500  0.3477  0.0203
  957POPC   C1A13299   3.138  12.715   6.756  0.1450  0.0396  0.3785
  957POPC   D2A13300   3.101  12.652   7.194  0.1547  0.0699 -0.0676
  957POPC   C3A13301   3.131  12.944   7.493  0.3879 -0.1939 -0.1176
  957POPC   C4A13302   3.501  13.257   7.709  0.4013 -0.2910  0.2115
  957POPC   C1B13303   2.832  12.362   6.873 -0.0840 -0.0458 -0.1415
  957POPC   C2B13304   2.472  12.259   7.180  0.1637  0.3918 -0.1063
  957POPC   C3B13305   2.514  11.935   7.367  0.2361 -0.2082 -0.1300
  957POPC   C4B13306   2.434  11.827   7.786 -0.0794  0.4963 -0.1855
  958POPC   NC313307  17.555   2.797   4.673 -0.3409 -0.2666 -0.2273
  958POPC   PO413308  17.839   2.852   4.942 -0.0344 -0.1083  0.2781
  958POPC   GL113309  17.628   2.722   5.348  0.1701 -0.2435 -0.1348
  958POPC   GL213310  17.781   2.485   5.705 -0.3305 -0.0849  0.0926
  958POPC   C1A13311  17.366   2.776   5.664  0.0962 -0.0531 -0.1132
  958POPC   D2A13312  17.550   3.020   6.042 -0.0680 -0.1177  0.3506
  958POPC   C3A13313  17.611   3.010   6.420 -0.1634  0.5004  0.1386
  958POPC   C4A13314  17.428   3.019   6.707  0.2561 -0.1406  0.2092
  958POPC   C1B13315  17.576   2.406   6.020 -0.1330 -0.0513 -0.1636
  958POPC   C2B13316  17.611   2.023   6.302  0.2175  0.0988 -0.1827
  958POPC   C3B13317  17.911   1.925   6.601  0.1370  0.0028  0.1999
  958POPC   C4B13318  18.316   2.025   6.710  0.0570  0.0881  0.0148
  959POPC   NC313319   1.256  10.217   5.601 -0.1080 -0.0972  0.2379
  959POPC   PO413320   0.980   9.928   5.911  0.1739  0.0108  0.1349
  959POPC   GL113321   0.923   9.768   6.296 -0.2117 -0.2040  0.1239
  959POPC   GL213322   0.739   9.579   6.208 -0.1346 -0.2576  0.2974
  959POPC   C1A13323   1.084   9.562   6.675  0.1569  0.0347  0.1052
  959POPC   D2A13324   1.352   9.191   6.810  0.2392 -0.3136  0.0460
  959POPC   C3A13325   1.341   9.241   7.129  0.2800  0.0347 -0.1126
  959POPC   C4A13326   1.240   8.945   7.506  0.3225  0.0801  0.1610
  959POPC   C1B13327   0.507   9.598   6.507 -0.1696 -0.2056 -0.1598
  959POPC   C2B13328   0.248   9.603   6.853  0.0513  0.0806  0.1861
  959POPC   C3B13329   0.129   9.625   7.223  0.1602 -0.0742  0.3099
  959POPC   C4B13330   0.395   9.462   7.617  0.1224 -0.0001 -0.1014
  960POPC   NC313331  15.469   0.954   5.252  0.0226  0.0844 -0.0789
  960POPC   PO413332  15.544   0.627   5.641  0.4028 -0.0214  0.0832
  960POPC   GL113333  15.533   0.660   6.103  0.0351 -0.0449 -0.3399
  960POPC   GL213334  15.199   0.534   6.080 -0.1004 -0.0820  0.3456
  960POPC   C1A13335  15.687   0.697   6.475 -0.2683  0.2918  0.2117
  960POPC   D2A13336  15.698   0.683   6.908  0.0137  0.2273  0.1702
  960POPC   C3A13337  15.555   0.929   7.251  0.1598  0.1623 -0.1591
  960POPC   C4A13338  15.895   0.977   7.539 -0.0885  0.4436  0.2478
  960POPC   C1B13339  15.394   0.238   6.467 -0.2684  0.0959  0.0285
  960POPC   C2B13340  15.537   0.109   6.900  0.3243 -0.0058 -0.1186
  960POPC   C3B13341  15.687   0.208   7.242  0.1315  0.0765  0.1473
  960POPC   C4B13342  15.458   0.495   7.513  0.2775  0.0396  0.1306
  961POPC   NC313343   8.438   0.101   4.985 -0.0893 -0.1601 -0.3096
  961POPC   PO413344   8.593  -0.294   5.224  0.1636  0.3090 -0.1319
  961POPC   GL113345   8.520  -0.212   5.727 -0.1326 -0.0616  0.2605
  961POPC   GL213346   8.787  -0.070   5.737 -0.1771  0.2957 -0.0722
  961POPC   C1A13347   8.524  -0.260   6.181 -0.0349  0.2090 -0.0923
  961POPC   D2A13348   8.282  -0.136   6.446 -0.1899  0.3287 -0.0080
  961POPC   C3A13349   8.183  -0.624   6.680  0.1744 -0.2525  0.0331
  961POPC   C4A13350   8.126  -1.051   6.499  0.0375 -0.3134 -0.0344
  961POPC   C1B13351   8.937   0.105   6.180  0.3778 -0.2263  0.0579
  961POPC   C2B13352   8.805   0.128   6.659 -0.0799  0.0167  0.2856
  961POPC   C3B13353   8.865  -0.031   7.049  0.4348  0.1319 -0.1879
  961POPC   C4B13354   8.908   0.074   7.470 -0.0177 -0.2105  0.1551
  962POPC   NC313355  12.269   7.752   5.354 -0.1958  0.0905 -0.0455
  962POPC   PO413356  12.024   7.475   5.497  0.0976 -0.0515  0.1177
  962POPC   GL113357  11.870   7.461   5.915 -0.0137  0.2778 -0.0860
  962POPC   GL213358  11.819   7.173   5.854  0.4603  0.0098 -0.0266
  962POPC   C1A13359  11.791   7.577   6.310 -0.1518 -0.1102 -0.0891
  962POPC   D2A13360  11.583   7.628   6.708 -0.2912 -0.3500  0.0984
  962POPC   C3A13361  11.824   7.767   7.084 -0.2296 -0.0907 -0.3308
  962POPC   C4A13362  11.957   7.884   7.559 -0.2221 -0.4051 -0.1833
  962POPC   C1B13363  12.080   6.994   6.205 -0.1420  0.2142 -0.0807
  962POPC   C2B13364  12.464   6.747   6.442  0.0118 -0.2602 -0.0128
  962POPC   C3B13365  12.817   6.537   6.636  0.2779 -0.3664  0.0549
  962POPC   C4B13366  13.164   6.403   6.692  0.4079 -0.0957 -0.2040
  963POPC   NC313367   2.524   0.287   4.858 -0.2306 -0.0825 -0.2654
  963POPC   PO413368   2.594   0.476   5.227  0.0865 -0.2246  0.2846
  963POPC   GL113369   2.595   0.452   5.639 -0.2481 -0.0817  0.0494
  963POPC   GL213370   2.282   0.583   5.758 -0.0942 -0.1340  0.1355
  963POPC   C1A13371   2.621   0.270   6.130  0.0944  0.5664  0.2484
  963POPC   D2A13372   2.852   0.096   6.528 -0.0776  0.0208 -0.4097
  963POPC   C3A13373   3.160  -0.045   6.753 -0.1286 -0.1294  0.3426
  963POPC   C4A13374   3.316  -0.437   6.931 -0.3114  0.0455 -0.0226
  963POPC   C1B13375   2.271   0.601   6.146 -0.2171  0.1114 -0.0173
  963POPC   C2B13376   2.197   0.880   6.487  0.5075 -0.0853  0.0634
  963POPC   C3B13377   2.499   1.118   6.857 -0.1455  0.1123  0.0061
  963POPC   C4B13378   2.472   1.356   7.190 -0.2046  0.0233  0.1942
  964POPC   NC313379   6.176   8.238   5.471  0.2971  0.3286  0.0673
  964POPC   PO413380   6.580   8.129   5.429 -0.0184  0.3066  0.3022
  964POPC   GL113381   6.536   7.993   5.735  0.0237 -0.1196  0.0067
  964POPC   GL213382   6.395   7.748   5.910 -0.0538  0.2008  0.0442
  964POPC   C1A13383   6.325   8.242   6.104 -0.1059  0.2122 -0.5295
  964POPC   D2A13384   6.011   8.446   6.357  0.0992 -0.0074 -0.1862
  964POPC   C3A13385   6.223   8.744   6.673  0.0303  0.0624  0.1130
  964POPC   C4A13386   6.442   8.467   6.959 -0.2981 -0.0486 -0.2062
  964POPC   C1B13387   6.441   7.607   6.371 -0.0873 -0.2245 -0.0510
  964POPC   C2B13388   6.452   7.697   6.662  0.0415  0.1776  0.0978
  964POPC   C3B13389   6.528   7.614   7.112 -0.1718  0.1398 -0.1409
  964POPC   C4B13390   6.788   7.131   7.056  0.0263  0.1747  0.0397
  965POPC   NC313391  15.887   5.217   5.410  0.4392  0.2906  0.0673
  965POPC   PO413392  16.303   4.982   5.431  0.0307  0.1144 -0.1176
  965POPC   GL113393  16.318   4.945   5.844 -0.0875  0.0428 -0.1162
  965POPC   GL213394  16.048   5.012   5.882  0.2490 -0.1588 -0.2069
  965POPC   C1A13395  16.494   5.197   6.118  0.1152 -0.3705  0.1358
  965POPC   D2A13396  16.603   5.731   6.018  0.0054  0.0463  0.1285
  965POPC   C3A13397  17.049   5.886   6.087  0.1515 -0.2259 -0.2726
  965POPC   C4A13398  17.317   6.281   6.136  0.0509  0.1373 -0.1620
  965POPC   C1B13399  16.108   4.880   6.287 -0.4527 -0.1493  0.1149
  965POPC   C2B13400  16.172   4.708   6.745  0.0949 -0.2830 -0.4364
  965POPC   C3B13401  16.294   4.415   7.058 -0.1555  0.3585 -0.1183
  965POPC   C4B13402  16.343   4.010   6.938 -0.2089 -0.1521 -0.1735
  966POPC   NC313403   5.869   4.105   5.341  0.5200 -0.2057  0.2553
  966POPC   PO413404   6.135   4.401   5.349 -0.3564 -0.1016 -0.0990
  966POPC   GL113405   6.336   4.548   5.724  0.3602  0.2032 -0.1844
  966POPC   GL213406   6.649   4.644   5.809 -0.1022 -0.0201 -0.2692
  966POPC   C1A13407   6.087   4.763   6.003  0.0691  0.0886 -0.0722
  966POPC   D2A13408   5.953   4.699   6.328 -0.1548 -0.0954 -0.1701
  966POPC   C3A13409   6.117   4.381   6.530 -0.3480 -0.2297  0.3605
  966POPC   C4A13410   6.569   4.439   6.726  0.0557 -0.1834 -0.0278
  966POPC   C1B13411   6.515   4.674   6.174  0.0597  0.2795 -0.3964
  966POPC   C2B13412   6.321   4.873   6.567 -0.0498 -0.2434 -0.0780
  966POPC   C3B13413   5.986   4.976   6.816  0.1273  0.0358  0.1768
  966POPC   C4B13414   5.904   5.365   7.007  0.1271 -0.2944  0.1590
  967POPC   NC313415   6.725  15.450   5.069 -0.0295 -0.3739  0.4522
  967POPC   PO413416   6.665  15.570   5.477  0.0981  0.0250 -0.1135
  967POPC   GL113417   6.498  15.924   5.681  0.0037 -0.0893 -0.0041
  967POPC   GL213418   6.132  15.955   5.557  0.2553  0.1834  0.1277
  967POPC   C1A13419   6.400  16.005   6.149 -0.2252 -0.0646 -0.0394
  967POPC   D2A13420   6.526  16.050   6.630 -0.2590  0.1344 -0.2974
  967POPC   C3A13421   6.938  15.752   6.733 -0.0994  0.1206 -0.0140
  967POPC   C4A13422   7.207  15.513   7.014  0.1079  0.0505 -0.0658
  967POPC   C1B13423   5.838  15.714   5.883  0.0575  0.1527  0.0246
  967POPC   C2B13424   5.535  15.692   6.178  0.0456 -0.2194  0.1275
  967POPC   C3B13425   5.459  15.788   6.596 -0.0510 -0.0084 -0.1590
  967POPC   C4B13426   5.441  15.791   7.031  0.2937  0.4421  0.0449
  968POPC   NC313427   2.802   3.849   4.894 -0.2331  0.1993  0.0030
  968POPC   PO413428   2.968   3.523   5.189 -0.0233  0.0121 -0.2919
  968POPC   GL113429   3.057   3.583   5.647  0.0063  0.0081 -0.1763
  968POPC   GL213430   3.002   3.304   5.735 -0.0198  0.1723  0.2262
  968POPC   C1A13431   2.912   3.714   6.042 -0.0212 -0.0306 -0.1334
  968POPC   D2A13432   2.956   3.613   6.566  0.0084 -0.3155 -0.1616
  968POPC   C3A13433   2.695   3.221   6.651 -0.0251  0.0182  0.1977
  968POPC   C4A13434   2.351   3.058   6.824  0.1027 -0.3035  0.2575
  968POPC   C1B13435   3.158   3.238   6.182 -0.0703  0.1401  0.0994
  968POPC   C2B13436   3.211   2.981   6.474  0.0896 -0.1949 -0.1405
  968POPC   C3B13437   3.486   2.853   6.775 -0.0449 -0.2518  0.1328
  968POPC   C4B13438   3.326   2.950   7.196 -0.1067 -0.0779  0.3459
  969POPC   NC313439   9.069  18.089   5.220  0.1258 -0.1041 -0.0811
  969POPC   PO413440   9.356  18.314   5.466 -0.1077 -0.0665 -0.0240
  969POPC   GL113441   9.236  18.330   5.915 -0.3002  0.3931  0.0932
  969POPC   GL213442   8.976  18.215   5.934 -0.0710 -0.2942  0.1620
  969POPC   C1A13443   8.981  18.625   6.213 -0.2091 -0.0370 -0.0433
  969POPC   D2A13444   8.798  18.777   6.588  0.0531  0.0635 -0.1261
  969POPC   C3A13445   8.465  18.845   6.894  0.0803 -0.4283 -0.2453
  969POPC   C4A13446   8.026  18.939   6.908  0.1024 -0.0319 -0.1078
  969POPC   C1B13447   9.143  18.211   6.456  0.4172  0.0405 -0.1098
  969POPC   C2B13448   9.141  18.310   6.810 -0.0153 -0.2297 -0.0640
  969POPC   C3B13449   9.017  18.588   7.079  0.0260 -0.3994  0.2241
  969POPC   C4B13450   8.631  18.601   7.298 -0.0619  0.1793 -0.2331
  970POPC   NC313451   0.236  14.249   5.714  0.1193  0.1822  0.1838
  970POPC   PO413452   0.356  13.851   5.898  0.1403 -0.0422 -0.1921
  970POPC   GL113453   0.701  13.878   6.025  0.2880  0.1535 -0.1074
  970POPC   GL213454   1.042  13.745   5.857  0.1172 -0.3355 -0.7505
  970POPC   C1A13455   1.002  13.991   6.350  0.0395 -0.1900 -0.0650
  970POPC   D2A13456   1.135  13.820   6.728 -0.2856 -0.5020  0.4227
  970POPC   C3A13457   1.322  14.101   7.081  0.3517  0.1345  0.0859
  970POPC   C4A13458   1.309  14.267   7.472  0.1515 -0.1333 -0.1737
  970POPC   C1B13459   1.022  14.259   5.919 -0.0100  0.3036 -0.2789
  970POPC   C2B13460   0.859  14.446   6.268 -0.0182  0.0880  0.0238
  970POPC   C3B13461   1.067  14.452   6.712 -0.1147  0.1638 -0.0270
  970POPC   C4B13462   1.178  14.677   7.079  0.1160  0.1897 -0.0052
  971POPC   NC313463   3.715   8.418   5.709 -0.1458 -0.2268 -0.2018
  971POPC   PO413464   3.770   8.030   5.882  0.2124 -0.1288 -0.1648
  971POPC   GL113465   3.964   7.893   6.216  0.0425 -0.3238 -0.4606
  971POPC   GL213466   4.193   8.095   6.384  0.2834 -0.3221 -0.1388
  971POPC   C1A13467   3.789   7.826   6.650 -0.1495 -0.2126 -0.0569
  971POPC   D2A13468   3.696   7.894   7.110  0.1622 -0.2713  0.0052
  971POPC   C3A13469   4.054   7.910   7.377  0.0725 -0.2105 -0.0724
  971POPC   C4A13470   4.376   7.912   7.570 -0.1111  0.0712 -0.2253
  971POPC   C1B13471   3.972   8.224   6.868  0.1964  0.0310  0.0634
  971POPC   C2B13472   3.747   8.467   7.124 -0.3280  0.2906  0.0915
  971POPC   C3B13473   3.503   8.688   7.526 -0.2007  0.4120  0.1910
  971POPC   C4B13474   3.293   8.477   7.788 -0.0380 -0.0634  0.0718
  972POPC   NC313475  13.934   3.395   5.002 -0.0015 -0.0151  0.1497
  972POPC   PO413476  14.358   3.693   4.903  0.0146  0.2405  0.1310
  972POPC   GL113477  14.192   3.877   5.331 -0.1063  0.4164 -0.4130
  972POPC   GL213478  13.889   3.796   5.335 -0.0289 -0.0164 -0.2487
  972POPC   C1A13479  14.274   4.124   5.739  0.0968 -0.0336 -0.0804
  972POPC   D2A13480  14.060   4.109   6.115 -0.0504  0.4074 -0.1187
  972POPC   C3A13481  14.260   3.994   6.549  0.0378  0.1166  0.2460
  972POPC   C4A13482  14.324   3.827   6.982  0.0936  0.0638  0.0635
  972POPC   C1B13483  13.770   4.128   5.703 -0.0222 -0.1144  0.0486
  972POPC   C2B13484  13.601   4.274   6.078  0.1928  0.1731  0.2847
  972POPC   C3B13485  13.753   4.260   6.501 -0.3309 -0.2152  0.0327
  972POPC   C4B13486  13.701   3.941   6.860  0.0071  0.1449 -0.2871
  973POPC   NC313487   9.425   6.429   4.986 -0.0331 -0.1908  0.3031
  973POPC   PO413488   9.673   6.838   4.985  0.0060  0.1918  0.2862
  973POPC   GL113489   9.670   6.625   5.439 -0.3648 -0.1198 -0.3944
  973POPC   GL213490   9.775   6.288   5.398  0.0306  0.1199 -0.1128
  973POPC   C1A13491   9.797   6.786   5.845 -0.0418  0.4149  0.2538
  973POPC   D2A13492   9.885   6.996   6.242  0.2276  0.0445  0.1952
  973POPC   C3A13493  10.083   6.895   6.640 -0.2040  0.2165  0.1804
  973POPC   C4A13494   9.889   6.820   7.043  0.2353  0.0265  0.1187
  973POPC   C1B13495   9.624   6.277   5.872 -0.0933  0.0361  0.0066
  973POPC   C2B13496   9.503   6.353   6.150  0.0848  0.0504 -0.0226
  973POPC   C3B13497   9.438   6.614   6.399 -0.0184 -0.0352  0.2457
  973POPC   C4B13498   9.478   6.861   6.767 -0.2024 -0.1876  0.1182
  974POPC   NC313499  14.264   0.310   5.686  0.2751 -0.1383 -0.1722
  974POPC   PO413500  13.937   0.290   5.453  0.1474  0.0722  0.0904
  974POPC   GL113501  13.775   0.373   5.780 -0.5033 -0.0643 -0.1602
  974POPC   GL213502  14.017   0.550   6.054 -0.0099  0.2710  0.0253
  974POPC   C1A13503  13.598   0.369   6.272 -0.1755  0.1506  0.0970
  974POPC   D2A13504  13.410   0.477   6.643  0.1540  0.2629  0.1282
  974POPC   C3A13505  13.011   0.315   6.758 -0.2195 -0.0704  0.1718
  974POPC   C4A13506  12.701   0.516   7.023 -0.1306  0.0552 -0.1709
  974POPC   C1B13507  14.179   0.904   6.121 -0.2997  0.0042  0.0582
  974POPC   C2B13508  13.967   1.155   6.426  0.0141 -0.0286  0.2179
  974POPC   C3B13509  13.830   1.077   6.971 -0.1787 -0.0096  0.1991
  974POPC   C4B13510  13.826   0.938   7.433 -0.1513 -0.1266  0.1101
  975POPC   NC313511  11.432   3.321   5.371 -0.0262  0.0774  0.3059
  975POPC   PO413512  11.538   2.934   5.248  0.1109 -0.3989  0.3553
  975POPC   GL113513  11.419   2.742   5.663  0.0775 -0.0215  0.2569
  975POPC   GL213514  11.721   2.883   5.852 -0.3461  0.1881  0.1529
  975POPC   C1A13515  11.089   2.510   6.004 -0.0420  0.0969 -0.0308
  975POPC   D2A13516  10.978   2.260   6.412 -0.0241 -0.3134 -0.3094
  975POPC   C3A13517  11.030   2.480   6.862  0.2909 -0.1296  0.0335
  975POPC   C4A13518  10.828   2.854   7.077 -0.0420 -0.0133  0.0124
  975POPC   C1B13519  12.029   2.903   6.266  0.0738  0.0405  0.0273
  975POPC   C2B13520  12.209   3.249   6.496  0.0654  0.0909 -0.1022
  975POPC   C3B13521  12.281   3.324   6.892 -0.0241  0.2091 -0.0654
  975POPC   C4B13522  12.407   3.324   7.344 -0.1607 -0.1050  0.4294
  976POPC   NC313523  17.764  10.276   5.620  0.0027 -0.0639  0.1736
  976POPC   PO413524  17.384  10.250   5.504  0.0622  0.2906  0.1751
  976POPC   GL113525  17.293  10.285   5.904 -0.0042  0.2848  0.0933
  976POPC   GL213526  16.972  10.127   5.955  0.0999  0.3771  0.0733
  976POPC   C1A13527  17.323  10.437   6.328 -0.0110 -0.1020 -0.0344
  976POPC   D2A13528  17.635  10.449   6.580 -0.4622  0.1010  0.1264
  976POPC   C3A13529  17.619  10.289   7.167 -0.2919  0.1090 -0.1586
  976POPC   C4A13530  17.570  10.173   7.507  0.5504 -0.3152  0.3138
  976POPC   C1B13531  16.880  10.328   6.327  0.1575  0.0028 -0.2514
  976POPC   C2B13532  16.794  10.326   6.758 -0.1587 -0.1607  0.0750
  976POPC   C3B13533  16.855  10.517   7.072 -0.2966 -0.0280 -0.2300
  976POPC   C4B13534  16.953  10.855   7.295 -0.1659  0.3399  0.0183
  977POPC   NC313535   4.822   3.036   5.037 -0.1232  0.0768  0.0404
  977POPC   PO413536   5.219   2.849   4.950  0.1430 -0.2645  0.2013
  977POPC   GL113537   5.303   2.483   5.233  0.3342  0.0275  0.0147
  977POPC   GL213538   5.530   2.333   5.166 -0.0261  0.1054  0.2754
  977POPC   C1A13539   5.266   2.465   5.663  0.0874 -0.0693  0.0540
  977POPC   D2A13540   5.502   2.809   5.832 -0.0141  0.1523 -0.0682
  977POPC   C3A13541   5.486   2.829   6.184 -0.3397 -0.1235 -0.3469
  977POPC   C4A13542   5.405   2.756   6.616  0.0233 -0.3183  0.0128
  977POPC   C1B13543   5.692   2.143   5.538  0.0003  0.1238 -0.2697
  977POPC   C2B13544   5.978   2.024   5.906  0.0249  0.0804 -0.3389
  977POPC   C3B13545   6.177   1.891   6.272  0.0862  0.4701 -0.1829
  977POPC   C4B13546   6.112   1.713   6.719 -0.0329  0.1132 -0.5453
  978POPC   NC313547  14.088  13.790   5.629 -0.0813 -0.0542  0.0382
  978POPC   PO413548  14.356  13.873   5.909 -0.1592 -0.4788 -0.2757
  978POPC   GL113549  14.640  13.914   6.254 -0.1411  0.1372 -0.0608
  978POPC   GL213550  14.594  14.228   6.393 -0.0614  0.0659  0.2552
  978POPC   C1A13551  14.847  13.877   6.662  0.0304 -0.0172  0.2496
  978POPC   D2A13552  15.207  13.722   6.856  0.1562  0.1301 -0.2082
  978POPC   C3A13553  15.396  13.340   6.985 -0.2757 -0.1797  0.2688
  978POPC   C4A13554  15.333  12.908   7.173 -0.1345 -0.0497 -0.2070
  978POPC   C1B13555  14.402  14.145   6.742 -0.0246  0.1019 -0.2526
  978POPC   C2B13556  14.216  13.827   6.931  0.0323  0.3220  0.0689
  978POPC   C3B13557  13.952  13.525   6.934 -0.0338 -0.1916 -0.0487
  978POPC   C4B13558  13.462  13.549   6.903 -0.0675  0.4032 -0.1672
  979POPC   NC313559   5.711   6.248   4.972  0.1349  0.1535  0.0474
  979POPC   PO413560   5.458   6.143   5.231  0.2243  0.1150 -0.1633
  979POPC   GL113561   5.549   6.130   5.665 -0.1056  0.2411 -0.0139
  979POPC   GL213562   5.333   6.199   5.881  0.0662  0.0144 -0.0382
  979POPC   C1A13563   5.722   6.518   6.030 -0.1361 -0.1041  0.3357
  979POPC   D2A13564   6.126   6.759   6.100  0.0343 -0.0352 -0.2019
  979POPC   C3A13565   6.383   6.698   6.403  0.0168  0.1222  0.2475
  979POPC   C4A13566   6.559   7.026   6.629 -0.0885  0.0705  0.0337
  979POPC   C1B13567   5.323   6.356   6.289 -0.0001 -0.4046  0.0629
  979POPC   C2B13568   5.137   6.521   6.682  0.3343 -0.0509  0.0220
  979POPC   C3B13569   5.286   6.815   7.005 -0.1034  0.1143 -0.3175
  979POPC   C4B13570   5.327   6.816   7.426 -0.1598  0.3016  0.1376
  980POPC   NC313571   1.135   6.205   5.027  0.2690  0.1036  0.1296
  980POPC   PO413572   1.179   5.750   5.179 -0.1842 -0.1706 -0.0219
  980POPC   GL113573   1.299   5.503   5.555 -0.3607 -0.1567 -0.1179
  980POPC   GL213574   1.036   5.276   5.690 -0.2225 -0.2641 -0.2573
  980POPC   C1A13575   1.101   5.713   5.896  0.1430  0.2241 -0.0521
  980POPC   D2A13576   0.907   5.817   6.294 -0.0701  0.2410 -0.1973
  980POPC   C3A13577   1.166   6.022   6.546 -0.2518  0.1789  0.0657
  980POPC   C4A13578   1.482   6.050   6.593 -0.1638  0.0625 -0.2010
  980POPC   C1B13579   1.205   5.231   6.127  0.0993 -0.0049 -0.0868
  980POPC   C2B13580   1.152   5.049   6.450  0.0685 -0.0836  0.0788
  980POPC   C3B13581   0.982   4.747   6.730  0.3559  0.2836 -0.4077
  980POPC   C4B13582   0.874   4.598   7.145 -0.1559  0.1647 -0.2724
  981POPC   NC313583   2.940   5.565   4.953 -0.2521 -0.3147  0.2153
  981POPC   PO413584   3.123   5.400   5.345 -0.0101  0.0323 -0.0458
  981POPC   GL113585   3.399   5.145   5.498  0.1090  0.0237 -0.0758
  981POPC   GL213586   3.252   5.022   5.730  0.0408  0.1768  0.1204
  981POPC   C1A13587   3.795   5.174   5.876  0.2272 -0.0611 -0.0547
  981POPC   D2A13588   3.987   5.556   6.138  0.0263  0.0538  0.0289
  981POPC   C3A13589   3.804   5.613   6.576  0.1397  0.0518 -0.0838
  981POPC   C4A13590   3.424   5.599   6.670  0.0120 -0.2596 -0.1617
  981POPC   C1B13591   3.154   4.774   6.092  0.1225 -0.3224  0.2338
  981POPC   C2B13592   3.147   4.552   6.498 -0.1181 -0.0882  0.1781
  981POPC   C3B13593   2.967   4.585   6.934 -0.2718 -0.0408 -0.1174
  981POPC   C4B13594   2.639   4.550   7.119  0.3118 -0.1336  0.1305
  982YOPC   NC313595   9.245   4.101   5.451  0.0950 -0.1530 -0.3213
  982YOPC   PO413596   9.620   4.344   5.392 -0.1938 -0.0212 -0.0845
  982YOPC   GL113597   9.764   4.226   5.779 -0.0291 -0.2262  0.1037
  982YOPC   GL213598   9.493   4.298   5.947  0.0209 -0.2831  0.0222
  982YOPC   C1A13599   9.940   4.472   6.001 -0.2519 -0.0060 -0.0456
  982YOPC   D2A13600  10.248   4.427   6.314  0.2911  0.0782 -0.3409
  982YOPC   C3A13601  10.339   4.750   6.625  0.3716  0.0642 -0.4460
  982YOPC   C4A13602  10.370   4.601   7.025 -0.0917  0.0646 -0.1259
  982YOPC   C1B13603   9.528   4.046   6.315 -0.1797 -0.1680  0.4105
  982YOPC   C2B13604   9.632   4.016   6.812 -0.0007 -0.1165 -0.1556
  982YOPC   D3B13605   9.376   4.343   7.119 -0.0434  0.0560  0.1755
  982YOPC   C4B13606   8.984   4.305   7.295  0.0098 -0.2567 -0.1880
  983YOPC   NC313607  14.205  11.135   5.210 -0.2263 -0.3685  0.0557
  983YOPC   PO413608  14.010  11.073   5.640 -0.2288  0.1242 -0.5592
  983YOPC   GL113609  14.005  11.224   6.116 -0.1212  0.0978  0.0836
  983YOPC   GL213610  13.713  11.122   6.131 -0.1428 -0.1804  0.1928
  983YOPC   C1A13611  14.158  11.142   6.589  0.2050  0.0880  0.2207
  983YOPC   D2A13612  14.397  11.112   6.990  0.0422  0.0284 -0.1153
  983YOPC   C3A13613  14.842  10.911   7.021  0.0814 -0.1904  0.0925
  983YOPC   C4A13614  15.246  10.746   6.769 -0.2835  0.1708  0.0593
  983YOPC   C1B13615  13.675  11.256   6.642  0.1734 -0.1355  0.0002
  983YOPC   C2B13616  13.913  11.393   7.002  0.2072  0.0506 -0.0594
  983YOPC   D3B13617  13.899  11.012   7.164 -0.0952 -0.3762 -0.2628
  983YOPC   C4B13618  14.082  10.728   7.450  0.1229 -0.1437 -0.2871
  984YOPC   NC313619  16.928  10.847   5.096 -0.1362 -0.1312 -0.2456
  984YOPC   PO413620  16.978  10.454   5.210 -0.1918 -0.0549  0.1788
  984YOPC   GL113621  17.024  10.600   5.582 -0.1468 -0.1157 -0.3626
  984YOPC   GL213622  16.672  10.506   5.758 -0.1576  0.0453  0.1111
  984YOPC   C1A13623  17.027  10.708   6.048 -0.2393 -0.0988 -0.0845
  984YOPC   D2A13624  16.844  10.902   6.423 -0.2189 -0.1810 -0.1383
  984YOPC   C3A13625  17.048  10.795   6.715  0.0689 -0.2806  0.0556
  984YOPC   C4A13626  17.378  10.627   6.922 -0.0582  0.1327  0.0742
  984YOPC   C1B13627  16.444  10.560   6.151 -0.1161  0.1124  0.0451
  984YOPC   C2B13628  16.394  10.536   6.551 -0.0663 -0.1279 -0.1279
  984YOPC   D3B13629  16.275  10.435   6.912 -0.4117 -0.2283  0.1648
  984YOPC   C4B13630  16.108  10.604   7.269 -0.1948  0.1619 -0.1647
  985YOPC   NC313631   7.850  17.848   4.805  0.1808 -0.1816 -0.0101
  985YOPC   PO413632   7.865  17.999   5.204 -0.0050  0.0905  0.1450
  985YOPC   GL113633   7.620  18.178   5.513  0.0457 -0.1923  0.2252
  985YOPC   GL213634   7.352  17.883   5.734  0.0748 -0.3574 -0.0540
  985YOPC   C1A13635   7.581  18.186   6.016 -0.3451  0.2565 -0.1810
  985YOPC   D2A13636   7.609  17.972   6.299 -0.1129 -0.1243 -0.2574
  985YOPC   C3A13637   7.388  18.222   6.635 -0.1466  0.0817 -0.0172
  985YOPC   C4A13638   7.054  18.461   6.868 -0.1577 -0.2454 -0.0323
  985YOPC   C1B13639   7.040  18.201   6.005  0.0981 -0.2893 -0.2802
  985YOPC   C2B13640   6.888  18.182   6.469  0.3702  0.4460 -0.1847
  985YOPC   D3B13641   7.129  17.901   6.793 -0.0497 -0.1882 -0.0636
  985YOPC   C4B13642   7.161  17.648   7.185  0.2149  0.0136 -0.0156
  986YOPC   NC313643   0.244   4.543   5.068  0.1063  0.3150 -0.1627
  986YOPC   PO413644   0.649   4.826   5.029  0.2214 -0.3269 -0.0223
  986YOPC   GL113645   0.992   4.839   5.437 -0.0069  0.0590  0.4296
  986YOPC   GL213646   1.038   4.426   5.509 -0.0343 -0.1781  0.0672
  986YOPC   C1A13647   1.074   4.744   5.899 -0.1240  0.0441  0.2004
  986YOPC   D2A13648   0.937   4.545   6.292  0.3227 -0.1604  0.1212
  986YOPC   C3A13649   0.650   4.448   6.129  0.0470  0.0134  0.1305
  986YOPC   C4A13650   0.214   4.447   5.997 -0.0418  0.3508  0.0171
  986YOPC   C1B13651   1.046   4.182   5.853 -0.2056 -0.0919 -0.2716
  986YOPC   C2B13652   0.835   3.712   5.927 -0.3369 -0.1401  0.0333
  986YOPC   D3B13653   1.020   3.544   6.206  0.1726 -0.0601 -0.1011
  986YOPC   C4B13654   1.130   3.734   6.643  0.0304  0.4736 -0.4319
  987YOPC   NC313655   1.515  14.358   5.288 -0.1002  0.0558  0.0399
  987YOPC   PO413656   1.326  13.811   5.401  0.2604  0.0764  0.3090
  987YOPC   GL113657   1.475  14.033   5.707  0.4036 -0.0397 -0.0152
  987YOPC   GL213658   1.499  14.315   5.818 -0.0223  0.1138 -0.3496
  987YOPC   C1A13659   1.497  13.902   6.083 -0.2111  0.0483 -0.0950
  987YOPC   D2A13660   1.595  13.941   6.552  0.0870  0.0769 -0.1535
  987YOPC   C3A13661   1.762  13.789   6.867 -0.0104  0.1641 -0.2325
  987YOPC   C4A13662   1.712  13.963   7.355 -0.2134  0.2443 -0.3236
  987YOPC   C1B13663   1.384  14.355   6.213  0.1623  0.0546  0.1144
  987YOPC   C2B13664   1.612  14.461   6.621 -0.1527  0.2113  0.0282
  987YOPC   D3B13665   1.958  14.343   6.798  0.0910 -0.1608  0.2105
  987YOPC   C4B13666   2.312  14.556   7.017 -0.0412 -0.0302 -0.1058
  988YOPC   NC313667  12.146  10.416   5.377 -0.0761  0.0573 -0.4943
  988YOPC   PO413668  12.021  10.878   5.485  0.0182  0.2462 -0.0253
  988YOPC   GL113669  11.856  10.890   5.863  0.1272 -0.0595 -0.1784
  988YOPC   GL213670  11.616  11.156   5.934 -0.2649  0.1252 -0.1872
  988YOPC   C1A13671  12.036  11.035   6.331  0.3330 -0.0409  0.0701
  988YOPC   D2A13672  11.898  10.944   6.705  0.2420  0.0195 -0.1034
  988YOPC   C3A13673  11.398  10.777   6.781  0.1292 -0.0581  0.2023
  988YOPC   C4A13674  10.987  10.704   6.853 -0.1581  0.1157 -0.4406
  988YOPC   C1B13675  11.469  11.171   6.405  0.2644  0.1010 -0.1909
  988YOPC   C2B13676  11.067  11.202   6.695 -0.2932 -0.1524 -0.0765
  988YOPC   D3B13677  10.955  11.223   7.146 -0.2220 -0.3570 -0.3754
  988YOPC   C4B13678  11.300  11.254   7.435 -0.0901 -0.1188 -0.3534
  989YOPC   NC313679   7.697   7.102   5.816  0.0149  0.0804  0.0963
  989YOPC   PO413680   7.847   6.799   6.033 -0.1623  0.0100  0.1269
  989YOPC   GL113681   7.719   6.957   6.473 -0.4505 -0.1784 -0.0952
  989YOPC   GL213682   7.921   7.131   6.395 -0.3053 -0.1181 -0.0988
  989YOPC   C1A13683   7.742   6.857   6.795  0.1484  0.0307  0.1308
  989YOPC   D2A13684   7.725   6.462   6.915 -0.0007 -0.0716  0.1214
  989YOPC   C3A13685   7.963   6.324   7.292  0.1301  0.0720 -0.1796
  989YOPC   C4A13686   7.867   6.356   7.763  0.0877  0.0523 -0.2366
  989YOPC   C1B13687   7.985   7.279   6.930  0.0621 -0.2128  0.1963
  989YOPC   C2B13688   7.774   7.183   7.240  0.1662  0.3128  0.2501
  989YOPC   D3B13689   7.993   7.152   7.554 -0.1145 -0.2067  0.0421
  989YOPC   C4B13690   8.375   7.166   7.862  0.0103  0.0041  0.0715
  990YOPC   NC313691  11.271   1.547   5.156  0.0237  0.1667  0.2862
  990YOPC   PO413692  11.421   1.973   5.093 -0.0678  0.0777 -0.0446
  990YOPC   GL113693  11.274   1.987   5.403 -0.1899 -0.3690  0.1317
  990YOPC   GL213694  11.389   2.221   5.621  0.1968  0.0351 -0.0291
  990YOPC   C1A13695  10.955   1.960   5.782  0.2367 -0.2349 -0.0692
  990YOPC   D2A13696  10.671   1.933   5.897 -0.0753  0.1048 -0.4578
  990YOPC   C3A13697  10.425   1.706   6.296  0.1616  0.0361  0.1176
  990YOPC   C4A13698  10.347   1.596   6.699 -0.0448 -0.2891  0.2680
  990YOPC   C1B13699  11.446   2.082   6.133  0.0480  0.1873  0.0659
  990YOPC   C2B13700  11.399   1.949   6.552 -0.0119 -0.2586 -0.1334
  990YOPC   D3B13701  11.352   2.148   7.017  0.2445  0.2432  0.3392
  990YOPC   C4B13702  11.553   2.085   7.494  0.0052  0.0793  0.0351
  991YOPC   NC313703  16.189  11.321   5.129  0.1135 -0.1315  0.0329
  991YOPC   PO413704  15.979  11.120   5.413  0.0719  0.0795 -0.2100
  991YOPC   GL113705  16.254  11.234   5.735  0.0637  0.1418 -0.2014
  991YOPC   GL213706  15.970  11.144   5.908 -0.1612  0.0744 -0.0356
  991YOPC   C1A13707  16.215  11.673   5.993  0.1478  0.0137  0.4483
  991YOPC   D2A13708  16.348  12.162   5.954  0.2150  0.1733  0.0409
  991YOPC   C3A13709  16.753  12.290   6.224  0.1634  0.2060  0.0584
  991YOPC   C4A13710  16.844  12.379   6.643  0.0770 -0.1694  0.0612
  991YOPC   C1B13711  15.981  11.211   6.365 -0.1152  0.2937 -0.2486
  991YOPC   C2B13712  15.653  11.189   6.795  0.1435  0.0573  0.4394
  991YOPC   D3B13713  15.232  11.238   6.664 -0.2890 -0.0337 -0.1255
  991YOPC   C4B13714  15.072  11.497   6.430  0.1242  0.0029  0.1025
  992YOPC   NC313715   8.998  13.146   5.606  0.1705  0.0564  0.0031
  992YOPC   PO413716   8.619  13.526   5.529  0.1513  0.0188  0.0831
  992YOPC   GL113717   8.392  13.333   5.728 -0.4728 -0.3506  0.3015
  992YOPC   GL213718   8.489  13.007   5.647  0.3453 -0.3387 -0.0067
  992YOPC   C1A13719   8.041  13.461   5.974  0.0382 -0.0134 -0.1679
  992YOPC   D2A13720   7.811  13.381   6.307  0.4550 -0.1621 -0.1053
  992YOPC   C3A13721   7.456  13.348   6.475 -0.2808  0.1118 -0.2446
  992YOPC   C4A13722   7.108  13.704   6.511  0.0033 -0.0333  0.0202
  992YOPC   C1B13723   8.502  13.026   6.118  0.1809  0.1738 -0.0782
  992YOPC   C2B13724   8.187  13.085   6.459 -0.2010  0.0024 -0.1889
  992YOPC   D3B13725   7.728  12.902   6.317 -0.0993  0.2629 -0.2214
  992YOPC   C4B13726   7.379  12.530   6.474 -0.1017 -0.1568  0.1384
  993YOPC   NC313727  10.623  10.470   5.400 -0.1469  0.0999  0.1943
  993YOPC   PO413728  10.276  10.189   5.328 -0.3528 -0.1819 -0.1644
  993YOPC   GL113729  10.278  10.364   5.705  0.0006  0.2267  0.1220
  993YOPC   GL213730  10.400  10.199   5.944 -0.0494  0.1056  0.0762
  993YOPC   C1A13731  10.016  10.630   5.892 -0.0141  0.0012  0.0724
  993YOPC   D2A13732  10.038  10.736   6.379 -0.4576 -0.0609 -0.0416
  993YOPC   C3A13733  10.412  10.884   6.555  0.3624  0.1011  0.3179
  993YOPC   C4A13734  10.525  10.822   6.978 -0.1134 -0.1677 -0.3865
  993YOPC   C1B13735   9.993  10.200   6.257  0.2103  0.1453 -0.3643
  993YOPC   C2B13736   9.987  10.013   6.735 -0.1624  0.0059  0.2455
  993YOPC   D3B13737  10.196   9.623   6.818  0.0238  0.3127 -0.0780
  993YOPC   C4B13738  10.244   9.390   7.329  0.1085  0.0243  0.2666
  994YOPC   NC313739   1.448   8.171   5.593  0.1331 -0.3463  0.2134
  994YOPC   PO413740   1.365   7.900   5.875  0.0176  0.1006  0.1869
  994YOPC   GL113741   1.567   8.106   6.289  0.1324 -0.1907  0.3592
  994YOPC   GL213742   1.648   8.387   6.278  0.0166 -0.0636 -0.1121
  994YOPC   C1A13743   1.909   8.195   6.602 -0.1084  0.1217  0.0243
  994YOPC   D2A13744   2.120   8.067   6.889 -0.0061 -0.0461  0.0217
  994YOPC   C3A13745   1.932   8.113   7.372 -0.0818 -0.1552 -0.1426
  994YOPC   C4A13746   1.670   8.196   7.808  0.5047  0.0656  0.1808
  994YOPC   C1B13747   2.039   8.637   6.416  0.0929 -0.1752 -0.2728
  994YOPC   C2B13748   2.437   8.612   6.587 -0.0433 -0.1745 -0.0537
  994YOPC   D3B13749   2.569   8.412   6.974  0.1024  0.0914  0.1052
  994YOPC   C4B13750   2.386   8.220   7.320  0.1153 -0.0797 -0.0811
  995YOPC   NC313751  14.534   7.481   5.301  0.1925  0.2501 -0.2925
  995YOPC   PO413752  14.769   7.804   5.415  0.0991 -0.1910 -0.0849
  995YOPC   GL113753  14.640   7.642   5.759 -0.1510 -0.0008  0.1629
  995YOPC   GL213754  14.867   7.505   5.823  0.0142 -0.1657 -0.0613
  995YOPC   C1A13755  14.417   7.628   6.188  0.1645 -0.1418 -0.1194
  995YOPC   D2A13756  14.075   7.842   6.403 -0.3164  0.4780  0.1847
  995YOPC   C3A13757  13.959   7.647   6.764  0.2379 -0.2137  0.1547
  995YOPC   C4A13758  13.662   7.832   7.078 -0.0306  0.2149 -0.1112
  995YOPC   C1B13759  14.865   7.489   6.250  0.2220 -0.1839  0.1131
  995YOPC   C2B13760  14.939   7.785   6.485  0.1625 -0.4462 -0.0192
  995YOPC   D3B13761  14.905   7.666   6.936 -0.0310 -0.1414  0.1615
  995YOPC   C4B13762  14.731   7.519   7.316  0.2707 -0.0064 -0.0229
  996YOPC   NC313763  10.525   1.619   4.552 -0.1496 -0.0821  0.2251
  996YOPC   PO413764  10.074   1.914   4.765 -0.2494  0.1467  0.1020
  996YOPC   GL113765  10.265   1.946   5.178 -0.1718  0.1765  0.0395
  996YOPC   GL213766   9.941   2.088   5.264 -0.0850  0.2420 -0.2497
  996YOPC   C1A13767  10.325   2.064   5.600  0.1088  0.0067  0.2751
  996YOPC   D2A13768  10.623   2.412   5.887 -0.0537 -0.2595 -0.1586
  996YOPC   C3A13769  10.558   2.585   6.285  0.1223  0.1629  0.0060
  996YOPC   C4A13770  10.569   2.574   6.674 -0.1761 -0.0776  0.1765
  996YOPC   C1B13771   9.797   2.061   5.648 -0.0873  0.1661  0.2112
  996YOPC   C2B13772   9.857   1.846   5.997 -0.0682 -0.3062  0.2698
  996YOPC   D3B13773   9.902   1.768   6.390 -0.0280  0.3744  0.4649
  996YOPC   C4B13774   9.939   1.877   6.838  0.3787  0.1480 -0.1822
  997YOPC   NC313775   8.256   9.476   5.540  0.2120 -0.1049 -0.0937
  997YOPC   PO413776   8.627   9.192   5.365  0.1550 -0.0131 -0.3040
  997YOPC   GL113777   8.655   9.175   5.869  0.4693 -0.2863 -0.0538
  997YOPC   GL213778   9.003   9.273   6.102  0.0446  0.0874 -0.0428
  997YOPC   C1A13779   8.548   9.516   6.193 -0.1902  0.1378 -0.1771
  997YOPC   D2A13780   8.272   9.602   6.499 -0.0366  0.2289  0.0320
  997YOPC   C3A13781   8.121   9.343   6.769  0.0446  0.0498 -0.4458
  997YOPC   C4A13782   8.110   9.085   7.076  0.1450 -0.3109 -0.3066
  997YOPC   C1B13783   9.053   9.285   6.549 -0.2417  0.0242 -0.0977
  997YOPC   C2B13784   8.922   9.156   6.936  0.1696 -0.2738 -0.1014
  997YOPC   D3B13785   8.544   9.409   7.158 -0.3188  0.1351  0.0433
  997YOPC   C4B13786   8.519   9.617   7.520  0.2198  0.0152 -0.2713
  998YOPC   NC313787  19.051   9.396   5.538 -0.3038  0.0486  0.0225
  998YOPC   PO413788  19.491   9.575   5.622  0.2215  0.0468  0.2268
  998YOPC   GL113789  19.215   9.434   5.984  0.0459 -0.2641  0.0828
  998YOPC   GL213790  19.467   9.340   6.095 -0.1072 -0.1218 -0.1668
  998YOPC   C1A13791  19.084   9.439   6.475  0.0873 -0.1532  0.1148
  998YOPC   D2A13792  18.897   9.246   6.808  0.0795  0.1411  0.1600
  998YOPC   C3A13793  18.761   9.243   7.298  0.0762  0.0722 -0.1220
  998YOPC   C4A13794  18.792   9.008   7.562  0.0996 -0.0066 -0.0571
  998YOPC   C1B13795  19.540   9.147   6.526  0.0011  0.0260 -0.1809
  998YOPC   C2B13796  19.646   8.804   6.863  0.1880  0.2422  0.0030
  998YOPC   D3B13797  19.936   8.665   6.837  0.1418  0.3394  0.2977
  998YOPC   C4B13798  20.230   8.842   6.977  0.0478  0.2907 -0.0782
  999YOPC   NC313799   2.014  14.365   5.148  0.1835 -0.0027  0.1518
  999YOPC   PO413800   1.722  14.682   5.031  0.3376 -0.2244  0.1591
  999YOPC   GL113801   1.731  14.798   5.530  0.0705  0.0806 -0.1072
  999YOPC   GL213802   2.044  15.021   5.683  0.1808 -0.1015 -0.0120
  999YOPC   C1A13803   1.568  14.798   6.003  0.1708 -0.1769 -0.2194
  999YOPC   D2A13804   1.272  14.788   6.353  0.0406 -0.0226 -0.3311
  999YOPC   C3A13805   1.319  15.047   6.695 -0.3979  0.1102 -0.0595
  999YOPC   C4A13806   1.336  15.484   6.794 -0.3215 -0.0754  0.0045
  999YOPC   C1B13807   2.209  14.745   6.062 -0.0309 -0.3854 -0.5844
  999YOPC   C2B13808   2.246  14.827   6.621 -0.1599 -0.2417 -0.2019
  999YOPC   D3B13809   1.900  14.889   6.892 -0.1092 -0.0719  0.1691
  999YOPC   C4B13810   1.619  15.134   7.060 -0.1749 -0.1648  0.1173
 1000YOPC   NC313811   1.514   9.129   5.419  0.2314  0.2573  0.0083
 1000YOPC   PO413812   1.820   9.453   5.635  0.2923  0.1967 -0.0267
 1000YOPC   GL113813   1.575   9.239   5.926  0.1240 -0.0715 -0.2152
 1000YOPC   GL213814   1.773   8.991   6.130 -0.2193 -0.0380 -0.0584
 1000YOPC   C1A13815   1.533   9.466   6.410 -0.2928  0.0616  0.1139
 1000YOPC   D2A13816   1.580   9.651   6.821  0.1030  0.2075  0.0770
 1000YOPC   C3A13817   1.276   9.801   7.138 -0.0122  0.1205  0.0420
 1000YOPC   C4A13818   1.232   9.956   7.556  0.0317 -0.1142 -0.1971
 1000YOPC   C1B13819   1.598   8.822   6.594 -0.4216  0.2813  0.0374
 1000YOPC   C2B13820   1.584   8.795   7.092  0.0665  0.1046 -0.0611
 1000YOPC   D3B13821   1.607   8.510   7.411  0.1538 -0.0612 -0.0383
 1000YOPC   C4B13822   1.146   8.316   7.677 -0.2026  0.0372  0.4068
 1001YOPC   NC313823  12.108  11.974   4.969 -0.0082  0.0652 -0.0307
 1001YOPC   PO413824  11.766  11.728   5.239  0.2428 -0.0027 -0.1981
 1001YOPC   GL113825  11.715  11.783   5.705  0.2822 -0.2826 -0.1567
 1001YOPC   GL213826  11.824  11.625   5.845 -0.0156  0.0139 -0.1757
 1001YOPC   C1A13827  11.601  11.997   6.043  0.3204 -0.2697 -0.0741
 1001YOPC   D2A13828  11.533  12.415   6.138  0.0747 -0.1119 -0.2294
 1001YOPC   C3A13829  11.560  12.520   6.605  0.2747 -0.1088 -0.4233
 1001YOPC   C4A13830  11.261  12.336   7.018 -0.4063 -0.1153  0.1411
 1001YOPC   C1B13831  11.723  11.576   6.200  0.3742  0.1175 -0.2527
 1001YOPC   C2B13832  11.311  11.562   6.243  0.1366 -0.1222  0.0223
 1001YOPC   D3B13833  11.071  11.691   6.695  0.3022 -0.0696 -0.0778
 1001YOPC   C4B13834  11.140  11.744   7.177 -0.0492 -0.2332 -0.1038
 1002YOPC   NC313835  14.072   1.419   4.927 -0.0737  0.1886 -0.0271
 1002YOPC   PO413836  13.731   1.192   5.214 -0.0914 -0.0288  0.0624
 1002YOPC   GL113837  13.551   0.882   5.509  0.3754  0.0952 -0.0692
 1002YOPC   GL213838  13.264   0.996   5.722 -0.1204 -0.3123 -0.0504
 1002YOPC   C1A13839  13.695   1.062   5.957 -0.0297  0.0070 -0.0484
 1002YOPC   D2A13840  13.561   0.846   6.278 -0.0866  0.0295  0.0095
 1002YOPC   C3A13841  13.394   0.991   6.758 -0.0559  0.0187  0.1350
 1002YOPC   C4A13842  13.306   0.904   7.191  0.2134  0.0680  0.3176
 1002YOPC   C1B13843  13.153   1.183   6.219 -0.2685 -0.0721  0.1331
 1002YOPC   C2B13844  13.128   1.396   6.640  0.2478 -0.0470  0.0792
 1002YOPC   D3B13845  13.223   1.382   7.094  0.2354 -0.1514  0.1014
 1002YOPC   C4B13846  13.312   1.674   7.353 -0.0525 -0.0733  0.1485
 1003YOPC   NC313847   6.558  18.010   4.936  0.1122 -0.2995 -0.2061
 1003YOPC   PO413848   6.941  18.179   4.856  0.0284  0.0935 -0.0609
 1003YOPC   GL113849   6.736  18.469   5.162  0.2046 -0.0140 -0.1909
 1003YOPC   GL213850   6.865  18.820   5.316  0.5495  0.3193  0.2659
 1003YOPC   C1A13851   6.399  18.604   5.348  0.1486 -0.0389  0.0195
 1003YOPC   D2A13852   6.067  18.765   5.582  0.0167 -0.0915  0.0377
 1003YOPC   C3A13853   6.234  18.735   5.917 -0.0716  0.1326 -0.1294
 1003YOPC   C4A13854   6.288  18.665   6.417  0.1496 -0.2395  0.1828
 1003YOPC   C1B13855   6.794  18.627   5.675 -0.2319 -0.0313 -0.0834
 1003YOPC   C2B13856   6.728  18.559   6.183  0.2222  0.0531 -0.0248
 1003YOPC   D3B13857   6.748  18.669   6.530  0.0541  0.1002 -0.0091
 1003YOPC   C4B13858   6.702  18.741   6.986 -0.3224  0.0096  0.0563
 1004YOPC   NC313859   3.475  12.964   5.300 -0.1959  0.1293 -0.3247
 1004YOPC   PO413860   3.816  13.253   5.406  0.0708 -0.0612  0.1665
 1004YOPC   GL113861   3.888  13.348   5.828 -0.0988  0.2235  0.1431
 1004YOPC   GL213862   4.177  13.454   5.900  0.1044  0.0591 -0.0704
 1004YOPC   C1A13863   3.919  13.294   6.337 -0.1229  0.0988  0.2287
 1004YOPC   D2A13864   3.857  13.300   6.786  0.1526  0.0353 -0.0141
 1004YOPC   C3A13865   4.281  13.274   7.079 -0.3753  0.0202  0.3322
 1004YOPC   C4A13866   4.598  13.568   7.039 -0.2007  0.2764  0.0716
 1004YOPC   C1B13867   4.419  13.858   6.107 -0.0045 -0.1582 -0.1884
 1004YOPC   C2B13868   4.768  13.987   6.404  0.2707 -0.1993 -0.1593
 1004YOPC   D3B13869   4.880  13.656   6.561 -0.0128 -0.0852 -0.0891
 1004YOPC   C4B13870   4.700  13.245   6.721 -0.0380 -0.3768 -0.2098
 1005YOPC   NC313871  11.390  15.904   5.526  0.2253 -0.1500 -0.0518
 1005YOPC   PO413872  10.945  15.583   5.519  0.1840 -0.2130  0.0332
 1005YOPC   GL113873  10.903  15.861   5.784 -0.0571 -0.1049  0.0299
 1005YOPC   GL213874  10.523  15.704   5.938 -0.3287 -0.0456 -0.1914
 1005YOPC   C1A13875  10.769  15.941   6.204  0.0700 -0.1339 -0.0021
 1005YOPC   D2A13876  10.535  15.932   6.609  0.0146  0.0017  0.2037
 1005YOPC   C3A13877  10.553  15.617   6.895  0.3502  0.2597 -0.1426
 1005YOPC   C4A13878  10.150  15.595   7.123  0.2014 -0.6229 -0.3558
 1005YOPC   C1B13879  10.329  15.542   6.353  0.0690 -0.0295  0.4226
 1005YOPC   C2B13880  10.210  15.202   6.739 -0.1580 -0.2093  0.4139
 1005YOPC   D3B13881  10.397  15.129   7.058 -0.0323 -0.1195 -0.1657
 1005YOPC   C4B13882  10.622  15.330   7.399  0.2581 -0.1930 -0.2172
 1006YOPC   NC313883   9.873   0.275   5.235  0.6317  0.2077 -0.2657
 1006YOPC   PO413884   9.601   0.303   5.592 -0.1072 -0.0997  0.0448
 1006YOPC   GL113885   9.484   0.563   5.835 -0.2730 -0.0964  0.0016
 1006YOPC   GL213886   9.260   0.788   5.722 -0.1165  0.1393 -0.1797
 1006YOPC   C1A13887   9.623   0.813   6.217  0.3034 -0.2440 -0.5291
 1006YOPC   D2A13888   9.755   0.819   6.549 -0.0648 -0.2186  0.1741
 1006YOPC   C3A13889   9.838   1.358   6.651  0.2483 -0.2445  0.0208
 1006YOPC   C4A13890   9.810   1.420   7.040 -0.0509 -0.0583 -0.0211
 1006YOPC   C1B13891   9.167   1.027   6.130 -0.1260  0.1195  0.1199
 1006YOPC   C2B13892   9.423   1.322   6.376  0.2084 -0.0163  0.3734
 1006YOPC   D3B13893   9.331   1.543   6.752  0.0455  0.2987  0.1024
 1006YOPC   C4B13894   8.966   1.423   6.932 -0.3848 -0.0522 -0.0150
 1007YOPC   NC313895  16.624   4.563   4.776 -0.2277 -0.2645 -0.3078
 1007YOPC   PO413896  16.877   4.836   5.038  0.3606 -0.0909  0.3406
 1007YOPC   GL113897  16.988   4.897   5.493  0.1237 -0.1072  0.2663
 1007YOPC   GL213898  17.207   4.730   5.578  0.3252  0.0293 -0.1347
 1007YOPC   C1A13899  16.831   4.865   5.926  0.0954  0.1570  0.0884
 1007YOPC   D2A13900  16.843   4.785   6.363  0.0346 -0.2047 -0.2619
 1007YOPC   C3A13901  17.057   4.391   6.532 -0.1833 -0.0164  0.1303
 1007YOPC   C4A13902  17.215   4.216   6.748  0.2833 -0.2657 -0.1345
 1007YOPC   C1B13903  17.050   4.464   5.995 -0.2229  0.3761  0.0846
 1007YOPC   C2B13904  17.148   4.047   6.165  0.0762  0.4515  0.0786
 1007YOPC   D3B13905  17.530   3.978   6.440  0.0925  0.0447 -0.1611
 1007YOPC   C4B13906  17.820   4.032   6.762  0.0408  0.3876  0.0544
 1008YOPC   NC313907   7.367  10.948   5.503 -0.1172  0.0195  0.0969
 1008YOPC   PO413908   7.007  11.177   5.650  0.0891 -0.2898  0.2726
 1008YOPC   GL113909   7.125  11.400   5.986 -0.1613  0.0121 -0.0434
 1008YOPC   GL213910   6.909  11.548   6.239 -0.1010 -0.1784  0.3672
 1008YOPC   C1A13911   7.354  11.343   6.312 -0.1989 -0.3160 -0.3210
 1008YOPC   D2A13912   7.510  11.321   6.682  0.0884  0.3100  0.1174
 1008YOPC   C3A13913   7.967  11.306   6.774 -0.1210  0.2709  0.0271
 1008YOPC   C4A13914   8.031  11.641   6.525  0.1813 -0.1881 -0.0406
 1008YOPC   C1B13915   7.025  11.459   6.687 -0.1015 -0.0991 -0.2083
 1008YOPC   C2B13916   6.753  11.464   7.089  0.6097  0.2156 -0.5759
 1008YOPC   D3B13917   6.251  11.521   7.216  0.1484  0.0927 -0.1308
 1008YOPC   C4B13918   5.931  11.339   7.379  0.0416  0.2640  0.4744
 1009YOPC   NC313919  15.605   0.114   5.740  0.1380  0.1179  0.1162
 1009YOPC   PO413920  15.956  -0.203   5.642 -0.0332  0.1657 -0.0909
 1009YOPC   GL113921  16.204  -0.302   6.104  0.0099 -0.1790  0.0877
 1009YOPC   GL213922  16.188  -0.621   6.102  0.0162 -0.1717  0.2191
 1009YOPC   C1A13923  16.340  -0.348   6.549  0.3154 -0.0705  0.1215
 1009YOPC   D2A13924  16.648  -0.279   6.895 -0.2035  0.2372 -0.0639
 1009YOPC   C3A13925  16.633   0.134   7.177 -0.2189  0.0534 -0.3140
 1009YOPC   C4A13926  16.506   0.506   7.097  0.1886 -0.1149  0.2260
 1009YOPC   C1B13927  15.872  -0.608   6.448 -0.2520  0.0282 -0.1683
 1009YOPC   C2B13928  16.134  -0.675   6.890 -0.1166 -0.0345  0.5046
 1009YOPC   D3B13929  15.912  -0.686   7.290  0.1728  0.1754 -0.0217
 1009YOPC   C4B13930  15.829  -0.414   7.629  0.1338 -0.1274  0.2795
 1010YOPC   NC313931  18.285   2.081   5.286 -0.3253  0.1121  0.3151
 1010YOPC   PO413932  18.636   2.305   5.161 -0.0326  0.2205  0.0455
 1010YOPC   GL113933  18.762   2.541   5.429 -0.0579 -0.1831  0.2017
 1010YOPC   GL213934  18.608   2.769   5.393 -0.1294 -0.0386  0.3587
 1010YOPC   C1A13935  18.996   2.576   5.783 -0.2452 -0.1240 -0.1468
 1010YOPC   D2A13936  18.874   2.695   6.096  0.1969  0.1345  0.0806
 1010YOPC   C3A13937  19.066   2.588   6.401 -0.1891  0.0123  0.0272
 1010YOPC   C4A13938  19.331   2.407   6.819 -0.0786  0.1285 -0.5569
 1010YOPC   C1B13939  18.496   2.855   5.806  0.0096  0.1904  0.0642
 1010YOPC   C2B13940  18.410   2.948   6.164  0.1104  0.0451 -0.0814
 1010YOPC   D3B13941  18.657   2.916   6.475  0.2322 -0.4554 -0.0417
 1010YOPC   C4B13942  18.626   2.755   6.886 -0.2502 -0.1800  0.1480
 1011YOPC   NC313943  18.139  10.365   5.149 -0.2391 -0.1065 -0.1235
 1011YOPC   PO413944  18.230  10.410   5.630  0.2212  0.3146 -0.2893
 1011YOPC   GL113945  18.021  10.477   5.992  0.3647 -0.0644  0.0448
 1011YOPC   GL213946  17.857  10.226   6.194 -0.0476  0.2037 -0.0809
 1011YOPC   C1A13947  18.006  10.750   6.336 -0.0056  0.0645  0.2572
 1011YOPC   D2A13948  18.093  10.912   6.648 -0.3096  0.1244 -0.1212
 1011YOPC   C3A13949  18.011  10.549   6.888  0.0646  0.1270  0.2194
 1011YOPC   C4A13950  18.064  10.173   6.894 -0.0720 -0.2607  0.0882
 1011YOPC   C1B13951  18.227  10.208   6.388  0.0810  0.0896 -0.0147
 1011YOPC   C2B13952  18.551  10.162   6.734 -0.0376  0.0914  0.1925
 1011YOPC   D3B13953  18.449  10.294   7.135 -0.2977 -0.3558  0.1995
 1011YOPC   C4B13954  18.126  10.326   7.390 -0.1964 -0.4814 -0.1655
 1012YOPC   NC313955  15.018   7.373   4.717 -0.1863  0.3618  0.0395
 1012YOPC   PO413956  15.515   7.406   4.989 -0.0254  0.0381  0.0194
 1012YOPC   GL113957  15.610   7.503   5.480 -0.1812 -0.1000  0.1669
 1012YOPC   GL213958  15.383   7.317   5.835 -0.2062 -0.0369 -0.3840
 1012YOPC   C1A13959  15.863   7.512   5.823 -0.0979  0.0496  0.0850
 1012YOPC   D2A13960  16.098   7.535   6.230  0.1628  0.0330 -0.0519
 1012YOPC   C3A13961  15.875   7.567   6.661 -0.0696 -0.0827  0.1542
 1012YOPC   C4A13962  15.935   7.466   7.126 -0.0310 -0.2398  0.0936
 1012YOPC   C1B13963  15.188   7.157   6.187 -0.0148 -0.0499  0.0559
 1012YOPC   C2B13964  15.004   6.901   6.432 -0.1764  0.2093 -0.2474
 1012YOPC   D3B13965  15.033   7.198   6.726 -0.0031  0.0299 -0.3952
 1012YOPC   C4B13966  15.181   7.011   7.107  0.2913 -0.1891 -0.0949
 1013YOPC   NC313967  11.230   5.302   5.412  0.1590 -0.1233  0.1143
 1013YOPC   PO413968  11.238   5.446   5.809  0.2376  0.0222 -0.0123
 1013YOPC   GL113969  11.570   5.152   5.995  0.1578 -0.1487  0.0093
 1013YOPC   GL213970  11.902   5.304   6.127  0.0424  0.5445  0.4631
 1013YOPC   C1A13971  11.710   4.940   6.331  0.2013  0.3117 -0.1388
 1013YOPC   D2A13972  12.021   4.600   6.551 -0.1227 -0.2473 -0.2617
 1013YOPC   C3A13973  11.981   4.228   6.841 -0.0639  0.0658 -0.1446
 1013YOPC   C4A13974  11.802   4.028   7.188 -0.1626  0.3482 -0.1796
 1013YOPC   C1B13975  12.022   5.315   6.549  0.0519 -0.1499 -0.4329
 1013YOPC   C2B13976  12.207   5.025   6.780  0.0861 -0.0888  0.1341
 1013YOPC   D3B13977  12.361   4.574   6.855  0.1127  0.2521 -0.0280
 1013YOPC   C4B13978  12.389   4.211   6.540 -0.2421 -0.1845  0.0122
 1014YOPC   NC313979  13.231   2.996   4.942 -0.0562  0.0502  0.1475
 1014YOPC   PO413980  13.613   3.065   5.199 -0.2946 -0.1005  0.2108
 1014YOPC   GL113981  13.241   2.975   5.421  0.2295 -0.0514 -0.2163
 1014YOPC   GL213982  13.127   3.210   5.709  0.1421  0.0234  0.0830
 1014YOPC   C1A13983  13.011   2.791   5.905  0.2108  0.0683 -0.0104
 1014YOPC   D2A13984  12.804   2.620   6.302 -0.2708  0.0370 -0.2719
 1014YOPC   C3A13985  13.097   2.659   6.625  0.0020  0.4247  0.0694
 1014YOPC   C4A13986  13.189   2.568   7.054 -0.1422 -0.1726 -0.1647
 1014YOPC   C1B13987  13.473   3.408   5.750 -0.2878  0.0420  0.3530
 1014YOPC   C2B13988  13.796   3.685   5.889 -0.1519  0.0472 -0.0897
 1014YOPC   D3B13989  14.043   3.622   6.299  0.2747 -0.0302 -0.0657
 1014YOPC   C4B13990  13.961   3.530   6.657 -0.2684 -0.4614 -0.0038
 1015YOPC   NC313991   8.457  16.207   4.836 -0.1630 -0.1367 -0.2146
 1015YOPC   PO413992   8.390  16.254   5.338  0.0450  0.3138  0.2821
 1015YOPC   GL113993   8.218  16.039   5.642 -0.0786 -0.1310 -0.1436
 1015YOPC   GL213994   8.414  15.818   5.709  0.0842 -0.3083  0.1240
 1015YOPC   C1A13995   8.006  16.177   5.933 -0.1210 -0.0860  0.0712
 1015YOPC   D2A13996   8.212  16.434   6.157 -0.1582  0.0228 -0.0017
 1015YOPC   C3A13997   8.118  16.506   6.511  0.1564  0.1277  0.1541
 1015YOPC   C4A13998   7.911  16.203   6.800  0.0194 -0.2290  0.2081
 1015YOPC   C1B13999   8.349  15.640   6.106  0.2516  0.0327  0.0316
 1015YOPC   C2B14000   8.321  15.619   6.406  0.2950 -0.2438 -0.3209
 1015YOPC   D3B14001   8.723  15.400   6.668 -0.0524  0.0218  0.2822
 1015YOPC   C4B14002   8.799  15.289   7.041  0.2922 -0.0028 -0.4107
 1016YOPC   NC314003  14.880   8.334   5.434  0.0805  0.5427 -0.2193
 1016YOPC   PO414004  14.873   8.826   5.481 -0.0610 -0.4361  0.0987
 1016YOPC   GL114005  14.955   8.745   5.895  0.0375  0.3765  0.0173
 1016YOPC   GL214006  15.135   8.464   5.846 -0.2389 -0.0587  0.0429
 1016YOPC   C1A14007  14.775   8.528   6.262 -0.3770  0.0447  0.1411
 1016YOPC   D2A14008  14.532   8.156   6.413  0.0035 -0.1928  0.0987
 1016YOPC   C3A14009  14.549   7.974   6.789 -0.0674 -0.2872 -0.3592
 1016YOPC   C4A14010  14.365   7.760   7.111 -0.0908  0.1844  0.2109
 1016YOPC   C1B14011  15.402   8.637   6.099  0.4155 -0.4617 -0.1164
 1016YOPC   C2B14012  15.695   8.726   6.528  0.2825  0.2301 -0.0822
 1016YOPC   D3B14013  15.361   8.959   6.876  0.0595  0.1944  0.0224
 1016YOPC   C4B14014  15.180   9.046   7.224  0.0020 -0.1279  0.0436
 1017YOPC   NC314015  10.064   9.753   5.070 -0.2779 -0.1673  0.0381
 1017YOPC   PO414016   9.930   9.456   5.374 -0.1630 -0.0342  0.0046
 1017YOPC   GL114017   9.862   9.543   5.817 -0.3021 -0.4050 -0.0809
 1017YOPC   GL214018   9.790   9.323   6.085 -0.4088 -0.1583  0.0100
 1017YOPC   C1A14019   9.623   9.772   6.041 -0.0603 -0.2022  0.0804
 1017YOPC   D2A14020   9.383   9.569   6.277  0.0198 -0.5619 -0.2960
 1017YOPC   C3A14021   9.539   9.264   6.587 -0.3308 -0.1697 -0.4630
 1017YOPC   C4A14022   9.930   9.099   6.835 -0.3974 -0.1316  0.2666
 1017YOPC   C1B14023   9.822   8.941   6.338  0.1329  0.1238 -0.1393
 1017YOPC   C2B14024   9.761   8.664   6.772  0.0881  0.0924 -0.1088
 1017YOPC   D3B14025   9.964   8.618   7.123 -0.0928  0.0809 -0.0258
 1017YOPC   C4B14026   9.932   8.710   7.563 -0.0351 -0.1535 -0.1599
 1018YOPC   NC314027   5.645   7.851   5.399  0.3500 -0.1507  0.0346
 1018YOPC   PO414028   5.329   7.507   5.380  0.0421  0.1279  0.0270
 1018YOPC   GL114029   5.434   7.309   5.829  0.4408  0.0279 -0.0844
 1018YOPC   GL214030   5.505   7.689   5.875 -0.0056 -0.4055 -0.0583
 1018YOPC   C1A14031   5.610   7.193   6.222 -0.1467 -0.0402  0.1212
 1018YOPC   D2A14032   5.611   6.810   6.490 -0.2084  0.3180  0.0265
 1018YOPC   C3A14033   5.997   6.793   6.749 -0.0676  0.1103  0.0062
 1018YOPC   C4A14034   6.288   6.880   7.056 -0.2707 -0.1156 -0.0032
 1018YOPC   C1B14035   5.528   7.691   6.325  0.4151 -0.0652  0.0620
 1018YOPC   C2B14036   5.795   7.521   6.559 -0.0006 -0.1366 -0.0995
 1018YOPC   D3B14037   5.664   7.186   6.835 -0.1667  0.1293  0.1974
 1018YOPC   C4B14038   5.754   7.009   7.191 -0.0066  0.1615  0.0703
 1019YOPC   NC314039  18.926  11.029   5.424 -0.3289 -0.0422 -0.0869
 1019YOPC   PO414040  18.533  11.367   5.216  0.1330  0.0643  0.2508
 1019YOPC   GL114041  18.556  11.266   5.628 -0.2205 -0.2583  0.0440
 1019YOPC   GL214042  18.410  10.973   5.673  0.0633 -0.0882 -0.1414
 1019YOPC   C1A14043  18.479  11.539   6.004 -0.1932 -0.0404  0.1318
 1019YOPC   D2A14044  18.647  11.627   6.352  0.0583  0.0342 -0.0543
 1019YOPC   C3A14045  18.828  11.632   6.734 -0.0281  0.1139 -0.0294
 1019YOPC   C4A14046  18.921  11.819   7.138 -0.1712  0.0254 -0.2251
 1019YOPC   C1B14047  18.045  11.087   5.902  0.1649 -0.2526  0.0521
 1019YOPC   C2B14048  17.920  11.460   5.852  0.1364  0.0517 -0.2853
 1019YOPC   D3B14049  17.972  11.800   6.090  0.1694  0.0142  0.4333
 1019YOPC   C4B14050  17.643  12.079   6.096  0.0119 -0.0325 -0.0256
 1020YOPC   NC314051   3.964   2.885   5.000  0.2660  0.4450 -0.0691
 1020YOPC   PO414052   3.833   2.633   5.243 -0.0119 -0.0024 -0.1900
 1020YOPC   GL114053   3.848   2.688   5.599  0.1582  0.2940 -0.4035
 1020YOPC   GL214054   4.081   2.628   5.639 -0.2554  0.0618  0.2853
 1020YOPC   C1A14055   3.545   2.460   5.793  0.2104  0.0176  0.2417
 1020YOPC   D2A14056   3.324   2.542   6.178  0.0366  0.0216 -0.0941
 1020YOPC   C3A14057   3.077   2.489   6.535  0.1413 -0.0062  0.2200
 1020YOPC   C4A14058   2.901   2.248   6.882  0.3639 -0.1395 -0.3698
 1020YOPC   C1B14059   4.113   2.482   5.958 -0.2265 -0.0836 -0.0293
 1020YOPC   C2B14060   3.837   2.300   6.216 -0.1079 -0.0153 -0.1263
 1020YOPC   D3B14061   3.731   2.442   6.724  0.0581  0.2253  0.3316
 1020YOPC   C4B14062   4.021   2.559   7.040  0.0150 -0.0088  0.4746
 1021YOPC   NC314063  16.265   1.485   5.143 -0.1044  0.0387  0.0055
 1021YOPC   PO414064  16.638   1.338   5.242 -0.1613 -0.2455  0.1048
 1021YOPC   GL114065  16.870   1.663   5.487 -0.1026  0.2079 -0.1024
 1021YOPC   GL214066  17.021   1.547   5.678  0.3644 -0.2718  0.1805
 1021YOPC   C1A14067  16.846   2.100   5.720 -0.0678  0.2056  0.2314
 1021YOPC   D2A14068  17.021   2.465   5.847 -0.1027  0.2033  0.3756
 1021YOPC   C3A14069  16.859   2.851   5.862  0.1834 -0.0875 -0.1218
 1021YOPC   C4A14070  17.093   3.170   5.920 -0.3631 -0.2701  0.0622
 1021YOPC   C1B14071  16.960   1.352   5.973 -0.1609 -0.0732  0.0461
 1021YOPC   C2B14072  17.017   1.433   6.350  0.2545  0.0054 -0.0318
 1021YOPC   D3B14073  17.189   1.795   6.678 -0.3993 -0.0093 -0.1730
 1021YOPC   C4B14074  16.974   2.229   6.920  0.0760  0.2450 -0.1943
 1022YOPC   NC314075   2.700  13.798   5.296  0.1266 -0.2154  0.2830
 1022YOPC   PO414076   2.335  13.835   5.245  0.3332  0.3351 -0.1827
 1022YOPC   GL114077   2.270  13.925   5.687  0.3188  0.2025  0.1978
 1022YOPC   GL214078   1.945  13.710   5.795 -0.2056 -0.2146  0.0547
 1022YOPC   C1A14079   2.473  13.838   6.053  0.1430 -0.0756 -0.0746
 1022YOPC   D2A14080   2.686  13.906   6.418 -0.2331 -0.0671 -0.0080
 1022YOPC   C3A14081   2.279  13.934   6.787 -0.2352  0.2015 -0.1042
 1022YOPC   C4A14082   2.144  14.037   7.141  0.3638 -0.0288  0.0291
 1022YOPC   C1B14083   1.979  13.400   6.159 -0.2979  0.0354  0.0429
 1022YOPC   C2B14084   2.175  13.532   6.487  0.0840  0.2774 -0.0470
 1022YOPC   D3B14085   2.472  13.524   6.844  0.2797 -0.0585  0.3028
 1022YOPC   C4B14086   2.414  13.659   7.248 -0.0718 -0.0178  0.0729
 1023YOPC   NC314087   6.452  12.118   5.473 -0.0303 -0.1670 -0.3940
 1023YOPC   PO414088   6.023  12.077   5.419 -0.1426 -0.0942  0.1351
 1023YOPC   GL114089   6.044  12.208   5.855  0.1580  0.1368  0.3084
 1023YOPC   GL214090   6.236  12.070   6.053  0.1711 -0.1234  0.0970
 1023YOPC   C1A14091   5.997  12.512   6.154 -0.3859  0.0719 -0.1536
 1023YOPC   D2A14092   6.061  12.532   6.613  0.0919 -0.2461 -0.0803
 1023YOPC   C3A14093   5.704  12.441   6.991  0.0048 -0.0049 -0.0322
 1023YOPC   C4A14094   5.553  12.735   7.283 -0.0497  0.2204  0.0667
 1023YOPC   C1B14095   6.434  12.348   6.348  0.1499 -0.2164  0.3186
 1023YOPC   C2B14096   6.664  12.589   6.703 -0.0673 -0.0021  0.0110
 1023YOPC   D3B14097   7.070  12.460   6.938 -0.1929  0.0369 -0.3342
 1023YOPC   C4B14098   7.369  12.119   7.096 -0.3451 -0.0604  0.1304
 1024YOPC   NC314099   9.592  14.783   5.313  0.0688 -0.4126 -0.0116
 1024YOPC   PO414100   9.349  14.897   5.625 -0.2564 -0.2267 -0.1925
 1024YOPC   GL114101   9.418  14.961   6.040  0.1305 -0.2030  0.1304
 1024YOPC   GL214102   9.561  15.238   6.052 -0.2318  0.1023 -0.1573
 1024YOPC   C1A14103   9.454  14.598   6.391 -0.1911 -0.1333  0.0601
 1024YOPC   D2A14104   9.793  14.266   6.483  0.2297  0.1673 -0.0593
 1024YOPC   C3A14105   9.910  14.000   6.183  0.2802  0.1438 -0.2846
 1024YOPC   C4A14106  10.018  13.637   6.200 -0.1856  0.0748 -0.1887
 1024YOPC   C1B14107   9.348  15.343   6.571 -0.0984 -0.0281 -0.0166
 1024YOPC   C2B14108   9.197  15.598   6.785 -0.3792 -0.0170 -0.4132
 1024YOPC   D3B14109   9.256  15.771   7.147 -0.2729 -0.1015 -0.0494
 1024YOPC   C4B14110   9.283  15.793   7.595  0.1096  0.0115 -0.0016
 1025YOPC   NC314111  13.531  19.036   5.821 -0.0191  0.1857  0.4938
 1025YOPC   PO414112  13.182  18.930   5.962  0.0125  0.2488  0.2707
 1025YOPC   GL114113  13.202  18.821   6.386  0.0987  0.0701  0.0059
 1025YOPC   GL214114  13.375  18.476   6.528  0.2482  0.0935 -0.1222
 1025YOPC   C1A14115  13.111  18.976   6.748 -0.0588  0.1689  0.0449
 1025YOPC   D2A14116  13.067  19.064   7.238  0.0045  0.1520 -0.1364
 1025YOPC   C3A14117  13.462  19.171   7.516 -0.1415 -0.0408  0.0857
 1025YOPC   C4A14118  13.889  19.089   7.721 -0.4099  0.1658 -0.3422
 1025YOPC   C1B14119  13.575  18.745   6.786  0.1582 -0.3072 -0.0860
 1025YOPC   C2B14120  13.480  18.755   7.149 -0.1327 -0.0039 -0.3010
 1025YOPC   D3B14121  13.657  18.618   7.582 -0.0739  0.1888  0.0220
 1025YOPC   C4B14122  13.968  18.578   7.885  0.1454  0.2176 -0.1569
 1026YOPC   NC314123   4.042  16.912   4.844  0.4299 -0.0634  0.0634
 1026YOPC   PO414124   4.128  16.548   5.187 -0.2709  0.1650  0.1814
 1026YOPC   GL114125   4.169  16.547   5.588  0.0274  0.2953 -0.0291
 1026YOPC   GL214126   4.270  16.783   5.763 -0.0803 -0.1050 -0.2419
 1026YOPC   C1A14127   4.029  16.288   5.937  0.0377  0.1050  0.0707
 1026YOPC   D2A14128   3.728  16.019   6.226  0.1401  0.0570 -0.2522
 1026YOPC   C3A14129   3.613  16.076   6.611 -0.2224  0.1694 -0.0609
 1026YOPC   C4A14130   3.981  16.203   6.906  0.0794  0.0670  0.1999
 1026YOPC   C1B14131   4.100  16.858   6.150  0.3453 -0.1463 -0.1913
 1026YOPC   C2B14132   4.097  16.952   6.606 -0.1426  0.1137  0.1087
 1026YOPC   D3B14133   3.893  17.198   6.922  0.4703 -0.1305 -0.1023
 1026YOPC   C4B14134   3.617  17.328   7.227 -0.1388  0.0684 -0.5997
 1027YOPC   NC314135   5.363   8.020   5.061 -0.0466  0.2915 -0.2444
 1027YOPC   PO414136   5.601   8.344   5.447  0.2413 -0.1971  0.1238
 1027YOPC   GL114137   5.433   8.257   5.874  0.2470 -0.0825 -0.1274
 1027YOPC   GL214138   5.152   8.096   6.082 -0.0410  0.0453 -0.0446
 1027YOPC   C1A14139   5.540   8.156   6.394 -0.0325 -0.2358  0.1465
 1027YOPC   D2A14140   5.683   7.952   6.785 -0.1890  0.2900  0.0788
 1027YOPC   C3A14141   5.685   8.061   7.294 -0.1900 -0.1866 -0.1882
 1027YOPC   C4A14142   5.677   7.885   7.785  0.1265  0.0947 -0.0707
 1027YOPC   C1B14143   5.028   7.709   6.088  0.0305 -0.1748  0.3290
 1027YOPC   C2B14144   5.158   7.433   6.528 -0.0321  0.0833  0.1002
 1027YOPC   D3B14145   4.901   7.065   6.630  0.2530  0.0012 -0.1639
 1027YOPC   C4B14146   4.861   6.796   6.264  0.0829  0.0985  0.0598
 1028YOPC   NC314147   3.764  15.021   5.677 -0.0169  0.1613  0.0690
 1028YOPC   PO414148   3.883  15.437   5.544  0.1552 -0.0761 -0.1565
 1028YOPC   GL114149   4.150  15.503   5.786 -0.3545 -0.1802  0.0077
 1028YOPC   GL214150   4.081  15.702   6.048  0.2946  0.1124 -0.4861
 1028YOPC   C1A14151   4.402  15.351   6.141 -0.0702 -0.0376  0.0598
 1028YOPC   D2A14152   4.777  15.349   6.318 -0.4052  0.0749 -0.1500
 1028YOPC   C3A14153   4.919  15.042   6.691 -0.0345 -0.1521  0.2715
 1028YOPC   C4A14154   5.044  15.112   7.138 -0.1733 -0.0576  0.3527
 1028YOPC   C1B14155   4.180  15.990   6.389 -0.1693  0.0239  0.1574
 1028YOPC   C2B14156   4.153  16.440   6.455  0.2404 -0.3440 -0.1325
 1028YOPC   D3B14157   3.770  16.510   6.466  0.0442 -0.1664  0.0496
 1028YOPC   C4B14158   3.515  16.512   6.855 -0.0431  0.2083 -0.4362
 1029YOPC   NC314159  17.217   1.355   5.137  0.0381  0.0659  0.2489
 1029YOPC   PO414160  17.560   1.093   5.220 -0.0744 -0.0523  0.1457
 1029YOPC   GL114161  17.559   1.187   5.689  0.0403  0.0766  0.0509
 1029YOPC   GL214162  17.802   1.375   5.905  0.0688  0.2565  0.2073
 1029YOPC   C1A14163  17.410   1.189   6.105  0.0691 -0.0137 -0.1547
 1029YOPC   D2A14164  17.227   1.067   6.564  0.3687 -0.3383  0.1893
 1029YOPC   C3A14165  16.960   1.429   6.905 -0.1671 -0.0133  0.2638
 1029YOPC   C4A14166  16.555   1.442   7.047 -0.3020  0.3405  0.2090
 1029YOPC   C1B14167  17.626   1.533   6.428 -0.0469  0.0966  0.2542
 1029YOPC   C2B14168  17.485   1.450   6.880  0.3903 -0.2013 -0.2733
 1029YOPC   D3B14169  17.607   1.610   7.337  0.1263  0.1592 -0.1434
 1029YOPC   C4B14170  17.739   1.410   7.633 -0.3492 -0.1964  0.2066
 1030YOPC   NC314171  12.960   7.187   5.145 -0.0609 -0.2371  0.0271
 1030YOPC   PO414172  12.677   7.497   5.533  0.1984  0.2134  0.1796
 1030YOPC   GL114173  12.791   7.637   5.817  0.1278  0.1248 -0.0854
 1030YOPC   GL214174  12.867   7.968   5.762 -0.1995  0.1436  0.4590
 1030YOPC   C1A14175  12.759   7.645   6.370  0.0185  0.0933  0.0503
 1030YOPC   D2A14176  12.737   8.019   6.491 -0.2826  0.1118  0.3374
 1030YOPC   C3A14177  12.649   8.069   6.904  0.0987  0.1415 -0.0224
 1030YOPC   C4A14178  12.765   8.129   7.201 -0.0533  0.3655 -0.1284
 1030YOPC   C1B14179  13.179   7.864   6.030 -0.0292 -0.0573 -0.0923
 1030YOPC   C2B14180  13.234   7.472   6.121 -0.1617  0.1126  0.0798
 1030YOPC   D3B14181  13.194   7.357   6.522 -0.0257  0.2106 -0.1722
 1030YOPC   C4B14182  12.833   7.192   6.729 -0.1649  0.0069 -0.1680
 1031YOPC   NC314183   7.173   7.912   5.384  0.0355  0.1281  0.0546
 1031YOPC   PO414184   7.417   8.190   5.199 -0.2043  0.4280  0.3801
 1031YOPC   GL114185   7.465   8.248   5.721  0.0998  0.0751  0.1357
 1031YOPC   GL214186   7.430   8.545   5.777  0.1251  0.1854  0.0730
 1031YOPC   C1A14187   7.397   8.001   6.060 -0.1415 -0.1179 -0.0574
 1031YOPC   D2A14188   7.214   7.803   6.385  0.1886 -0.3093  0.0567
 1031YOPC   C3A14189   7.393   7.988   6.684  0.3457  0.1330  0.0249
 1031YOPC   C4A14190   7.558   8.459   6.879 -0.3385 -0.0090 -0.2405
 1031YOPC   C1B14191   7.630   8.380   6.273  0.0109 -0.1814 -0.0481
 1031YOPC   C2B14192   7.919   8.606   6.482  0.1586  0.0546 -0.3364
 1031YOPC   D3B14193   8.038   8.601   6.871 -0.0485 -0.0571  0.0526
 1031YOPC   C4B14194   8.078   8.650   7.284 -0.0320  0.0002  0.1697
 1032YOPC   NC314195   4.843  10.116   5.342  0.2440 -0.1308 -0.0816
 1032YOPC   PO414196   4.601   9.768   5.550 -0.1504 -0.3371  0.1574
 1032YOPC   GL114197   4.643   9.977   5.913  0.3950 -0.0683  0.0234
 1032YOPC   GL214198   4.802  10.205   5.976  0.0602 -0.1488 -0.2488
 1032YOPC   C1A14199   4.686   9.915   6.377  0.0687 -0.0842 -0.3448
 1032YOPC   D2A14200   4.943   9.805   6.809  0.0926 -0.3481  0.1218
 1032YOPC   C3A14201   5.344   9.729   6.810 -0.1127 -0.0800 -0.0576
 1032YOPC   C4A14202   5.570   9.542   6.991  0.0373 -0.2736  0.2079
 1032YOPC   C1B14203   5.242  10.491   6.135  0.0050  0.2687  0.0558
 1032YOPC   C2B14204   5.391  10.670   6.485  0.0449  0.0410  0.3888
 1032YOPC   D3B14205   5.650  10.635   6.789 -0.0044  0.0861  0.1812
 1032YOPC   C4B14206   6.038  10.509   6.771 -0.0637  0.1664  0.0718
 1033YOPC   NC314207  17.691  16.785   5.566 -0.3836 -0.0427  0.1378
 1033YOPC   PO414208  17.602  16.267   5.618 -0.1326  0.0024 -0.2698
 1033YOPC   GL114209  17.669  16.321   6.021 -0.1205 -0.3440 -0.0485
 1033YOPC   GL214210  17.964  16.550   6.094 -0.1040 -0.4683 -0.0189
 1033YOPC   C1A14211  17.511  16.258   6.326 -0.1490 -0.1201 -0.0753
 1033YOPC   D2A14212  17.300  15.958   6.623 -0.2270  0.0939 -0.1288
 1033YOPC   C3A14213  17.555  15.839   7.015  0.0282  0.1927  0.2322
 1033YOPC   C4A14214  17.591  15.481   7.233 -0.2812 -0.0384  0.1954
 1033YOPC   C1B14215  17.984  16.138   6.343  0.1430 -0.3952 -0.0341
 1033YOPC   C2B14216  17.785  16.251   6.748 -0.0057  0.4010  0.1204
 1033YOPC   D3B14217  17.673  16.708   6.961  0.0319  0.1010  0.3628
 1033YOPC   C4B14218  17.875  16.882   7.227 -0.0010  0.3487 -0.1093
 1034YOPC   NC314219   6.978  18.748   4.805  0.0685  0.2038  0.0812
 1034YOPC   PO414220   7.120  19.149   4.857 -0.0549 -0.3918 -0.3762
 1034YOPC   GL114221   7.283  19.229   5.112  0.2187  0.0791  0.1175
 1034YOPC   GL214222   7.463  19.447   5.339 -0.1308 -0.0352  0.0852
 1034YOPC   C1A14223   7.353  18.889   5.388  0.0164  0.0085 -0.0670
 1034YOPC   D2A14224   7.351  18.584   5.682  0.0392  0.1157  0.0595
 1034YOPC   C3A14225   7.283  18.655   6.071 -0.3249  0.0837  0.4497
 1034YOPC   C4A14226   7.204  18.577   6.326 -0.0630 -0.1644 -0.1079
 1034YOPC   C1B14227   7.701  19.199   5.560 -0.1463  0.0711 -0.2698
 1034YOPC   C2B14228   8.053  19.084   5.959 -0.2693  0.0110 -0.3116
 1034YOPC   D3B14229   7.844  19.168   6.393 -0.1223 -0.0928  0.0973
 1034YOPC   C4B14230   7.852  19.390   6.736  0.1928 -0.0389  0.0468
 1035YOPC   NC314231   7.980  15.018   5.337 -0.0696 -0.5142 -0.2568
 1035YOPC   PO414232   8.362  15.088   5.433  0.0408  0.1429 -0.2013
 1035YOPC   GL114233   8.619  14.943   5.724  0.2082  0.0466 -0.2931
 1035YOPC   GL214234   8.893  14.946   5.839 -0.2487  0.4117 -0.0807
 1035YOPC   C1A14235   8.541  15.067   6.166 -0.2007 -0.0949  0.0029
 1035YOPC   D2A14236   8.331  15.128   6.524  0.2502 -0.0639 -0.0486
 1035YOPC   C3A14237   8.236  15.330   6.903  0.0978 -0.0361 -0.1552
 1035YOPC   C4A14238   7.989  15.267   7.199 -0.2204  0.1866 -0.1858
 1035YOPC   C1B14239   9.004  14.922   6.288  0.2783  0.0202 -0.0100
 1035YOPC   C2B14240   8.919  14.915   6.773  0.1667  0.1019 -0.1489
 1035YOPC   D3B14241   9.346  14.895   6.778 -0.2024 -0.0177 -0.1116
 1035YOPC   C4B14242   9.777  15.048   6.533 -0.1649  0.0829  0.0206
 1036YOPC   NC314243  10.384  12.945   4.805  0.3065 -0.2434 -0.1278
 1036YOPC   PO414244  10.279  13.103   5.355  0.0811  0.2558 -0.1004
 1036YOPC   GL114245  10.482  12.961   5.796  0.0740  0.0867  0.2926
 1036YOPC   GL214246  10.771  12.689   5.879 -0.1081  0.0798 -0.1109
 1036YOPC   C1A14247  10.242  12.910   6.250  0.0999 -0.0903  0.1633
 1036YOPC   D2A14248  10.227  12.884   6.625  0.0625 -0.2471  0.0092
 1036YOPC   C3A14249  10.456  12.947   7.012 -0.0342 -0.1702  0.1096
 1036YOPC   C4A14250  10.862  12.874   7.195 -0.0237  0.1618 -0.1458
 1036YOPC   C1B14251  10.641  12.667   6.277  0.3487 -0.2473 -0.1239
 1036YOPC   C2B14252  10.711  12.587   6.654 -0.3482 -0.1889 -0.1640
 1036YOPC   D3B14253  10.786  12.439   7.002  0.0586 -0.0132  0.1723
 1036YOPC   C4B14254  10.839  12.416   7.456 -0.0253 -0.2701  0.0347
 1037YOPC   NC314255  10.555  13.495   5.540  0.0472 -0.3031 -0.1960
 1037YOPC   PO414256  10.932  13.610   5.564 -0.0178  0.0874  0.4657
 1037YOPC   GL114257  10.826  13.467   5.965  0.4228 -0.1951 -0.0138
 1037YOPC   GL214258  10.532  13.586   6.061  0.0252  0.1335  0.1374
 1037YOPC   C1A14259  10.741  13.184   6.232  0.0743  0.6159  0.2131
 1037YOPC   D2A14260  10.705  13.055   6.607  0.0044  0.1089 -0.0569
 1037YOPC   C3A14261  10.779  13.320   6.945 -0.1045 -0.0038  0.0723
 1037YOPC   C4A14262  11.131  13.369   7.125 -0.0313 -0.1222  0.1938
 1037YOPC   C1B14263  10.332  13.390   6.466 -0.2360 -0.2566  0.1285
 1037YOPC   C2B14264  10.272  13.420   6.848  0.0591  0.3761 -0.1917
 1037YOPC   D3B14265  10.459  13.695   6.957 -0.0809 -0.3384 -0.2520
 1037YOPC   C4B14266  10.503  14.089   6.998 -0.1076 -0.0752  0.2244
 1038YOPC   NC314267  13.083   8.387   5.623 -0.1971  0.0144  0.0124
 1038YOPC   PO414268  13.264   8.774   5.788  0.0222 -0.1018 -0.0233
 1038YOPC   GL114269  13.120   8.955   6.162 -0.2503  0.0540 -0.3084
 1038YOPC   GL214270  12.876   9.155   6.116 -0.0326  0.1785  0.4001
 1038YOPC   C1A14271  12.994   8.838   6.559  0.0790 -0.1169 -0.0527
 1038YOPC   D2A14272  13.164   8.876   6.962  0.1033 -0.2032  0.1496
 1038YOPC   C3A14273  13.506   9.146   7.004  0.2266 -0.3370  0.0247
 1038YOPC   C4A14274  13.841   9.135   7.191 -0.2474  0.2169  0.0679
 1038YOPC   C1B14275  12.780   9.480   6.382  0.1716 -0.2892  0.0445
 1038YOPC   C2B14276  13.126   9.412   6.702  0.2347  0.1806 -0.1961
 1038YOPC   D3B14277  13.467   9.167   6.508 -0.1002  0.1751 -0.2282
 1038YOPC   C4B14278  13.869   9.063   6.637  0.0860  0.2897  0.0098
 1039YOPC   NC314279  16.956  17.803   5.540  0.2672 -0.2754  0.1819
 1039YOPC   PO414280  16.891  18.105   5.473 -0.2857 -0.1195 -0.0422
 1039YOPC   GL114281  16.873  18.357   5.947 -0.4311 -0.1526  0.0522
 1039YOPC   GL214282  16.626  18.284   5.983 -0.1663  0.0626 -0.1051
 1039YOPC   C1A14283  17.000  18.201   6.288 -0.4022  0.1717  0.0642
 1039YOPC   D2A14284  17.234  18.222   6.727  0.1771 -0.2288 -0.3277
 1039YOPC   C3A14285  17.663  18.204   6.683  0.1596  0.0573  0.0362
 1039YOPC   C4A14286  17.931  18.341   6.384 -0.1632  0.2244  0.2544
 1039YOPC   C1B14287  16.422  18.205   6.355 -0.1231 -0.1954 -0.0369
 1039YOPC   C2B14288  16.435  18.038   6.797 -0.1307 -0.2279 -0.1948
 1039YOPC   D3B14289  16.533  17.628   6.926  0.1520 -0.0841  0.3216
 1039YOPC   C4B14290  16.220  17.470   7.182 -0.1200 -0.2899 -0.0352
 1040YOPC   NC314291   4.417   1.500   5.292  0.0643 -0.1031  0.0594
 1040YOPC   PO414292   4.020   1.623   5.299 -0.2144 -0.2375 -0.0217
 1040YOPC   GL114293   4.099   1.748   5.697  0.0145  0.1184 -0.1624
 1040YOPC   GL214294   3.899   2.016   5.859 -0.0010  0.2476  0.0467
 1040YOPC   C1A14295   4.037   1.472   6.043 -0.2485 -0.2977 -0.1414
 1040YOPC   D2A14296   3.719   1.358   6.337 -0.0491 -0.0703  0.1655
 1040YOPC   C3A14297   3.423   1.488   6.638 -0.2873  0.1417 -0.3261
 1040YOPC   C4A14298   2.995   1.197   6.674  0.1973  0.1670  0.1970
 1040YOPC   C1B14299   3.966   1.839   6.313 -0.0129  0.1192  0.0192
 1040YOPC   C2B14300   4.097   1.658   6.646  0.2314 -0.1339  0.2437
 1040YOPC   D3B14301   4.180   2.007   6.866 -0.0196 -0.0746  0.2851
 1040YOPC   C4B14302   4.431   2.265   7.288 -0.1646  0.0075  0.2309
 1041YOPC   NC314303   2.024  17.286   5.381  0.4047 -0.0760 -0.0318
 1041YOPC   PO414304   2.145  16.944   5.388 -0.0088  0.1567 -0.0003
 1041YOPC   GL114305   2.422  16.980   5.715 -0.1085 -0.6688 -0.0058
 1041YOPC   GL214306   2.561  17.294   5.672  0.1269 -0.0760  0.0435
 1041YOPC   C1A14307   2.324  17.066   6.172 -0.2186  0.0856  0.2528
 1041YOPC   D2A14308   2.229  17.288   6.470  0.2327 -0.2233  0.1128
 1041YOPC   C3A14309   2.608  17.511   6.517 -0.2410 -0.2173  0.0499
 1041YOPC   C4A14310   2.730  17.822   6.324  0.2655 -0.0907  0.0155
 1041YOPC   C1B14311   2.434  17.513   6.016  0.2817 -0.1574 -0.2772
 1041YOPC   C2B14312   2.259  17.798   6.399  0.0853 -0.1204  0.0994
 1041YOPC   D3B14313   2.243  17.709   6.871 -0.0254  0.2362  0.2057
 1041YOPC   C4B14314   2.659  17.710   7.096 -0.2484  0.2344 -0.1547
 1042YOPC   NC314315   5.349  13.268   5.324 -0.1565  0.1748  0.2050
 1042YOPC   PO414316   5.743  12.919   5.344  0.5764  0.3207 -0.0279
 1042YOPC   GL114317   5.481  12.886   5.694 -0.1939  0.0098  0.5034
 1042YOPC   GL214318   5.610  12.881   5.983  0.2001  0.2792  0.0531
 1042YOPC   C1A14319   5.155  12.947   6.109 -0.2386 -0.0568 -0.3308
 1042YOPC   D2A14320   5.084  13.010   6.574  0.0090  0.0027  0.0278
 1042YOPC   C3A14321   5.085  12.761   6.928 -0.0849 -0.3237  0.0761
 1042YOPC   C4A14322   5.242  12.363   7.077 -0.0482  0.2979 -0.0386
 1042YOPC   C1B14323   5.779  13.039   6.289  0.0362 -0.0270  0.1752
 1042YOPC   C2B14324   5.858  13.335   6.654  0.3605 -0.5464 -0.2544
 1042YOPC   D3B14325   5.973  13.089   7.047 -0.1388  0.2636  0.0158
 1042YOPC   C4B14326   6.046  12.893   7.433 -0.3223  0.3208 -0.0497
 1043YOPC   NC314327   1.226  13.362   5.537 -0.0030  0.1110 -0.0146
 1043YOPC   PO414328   1.633  13.398   5.431 -0.0042  0.0112 -0.2546
 1043YOPC   GL114329   1.537  13.471   5.945  0.1091 -0.2903 -0.2572
 1043YOPC   GL214330   1.513  13.214   6.144  0.1299 -0.0486 -0.0961
 1043YOPC   C1A14331   1.132  13.531   6.248  0.4127 -0.0489 -0.0286
 1043YOPC   D2A14332   0.841  13.397   6.523  0.1447  0.0740 -0.0177
 1043YOPC   C3A14333   0.615  13.755   6.559  0.4560 -0.1099  0.2211
 1043YOPC   C4A14334   0.233  13.857   6.560 -0.0883 -0.0690 -0.1631
 1043YOPC   C1B14335   1.482  13.452   6.609  0.2163 -0.0818  0.1855
 1043YOPC   C2B14336   1.346  13.437   7.020  0.1786 -0.3546  0.0371
 1043YOPC   D3B14337   1.585  13.476   7.331 -0.0733  0.2306  0.5621
 1043YOPC   C4B14338   1.902  13.243   7.384  0.1035 -0.0800  0.0465
 1044YOPC   NC314339  15.789  10.021   5.654  0.0286 -0.1133 -0.2173
 1044YOPC   PO414340  16.007   9.701   5.523 -0.0284  0.4353  0.1488
 1044YOPC   GL114341  15.882   9.575   5.972  0.0855 -0.3628  0.1206
 1044YOPC   GL214342  15.778   9.927   6.199 -0.1415  0.2069  0.1080
 1044YOPC   C1A14343  15.573   9.494   6.331 -0.0838 -0.1033 -0.3642
 1044YOPC   D2A14344  15.762   9.257   6.660  0.1877  0.0001  0.0477
 1044YOPC   C3A14345  15.776   9.434   7.118 -0.1317 -0.2313  0.1390
 1044YOPC   C4A14346  15.979   9.448   7.495 -0.1884  0.0337 -0.1090
 1044YOPC   C1B14347  15.485  10.145   6.409 -0.0920  0.0073 -0.3482
 1044YOPC   C2B14348  15.424  10.217   6.873  0.3029 -0.2099  0.0599
 1044YOPC   D3B14349  15.697  10.227   7.163  0.0724  0.1205 -0.0503
 1044YOPC   C4B14350  16.020  10.170   7.529 -0.0653  0.0731 -0.2211
 1045YOPC   NC314351  14.657  17.667   5.732 -0.1678 -0.1420 -0.0082
 1045YOPC   PO414352  14.885  17.393   5.826 -0.0593 -0.0760 -0.0330
 1045YOPC   GL114353  14.711  17.415   6.186 -0.1544 -0.1371  0.4276
 1045YOPC   GL214354  14.571  17.121   6.239  0.0547  0.0512  0.3315
 1045YOPC   C1A14355  14.728  17.569   6.542  0.0371  0.0707 -0.1338
 1045YOPC   D2A14356  14.795  17.732   6.963  0.0399  0.2257  0.0527
 1045YOPC   C3A14357  15.058  17.532   7.245 -0.1313 -0.0762 -0.4964
 1045YOPC   C4A14358  14.955  17.332   7.698 -0.4317 -0.0586 -0.2222
 1045YOPC   C1B14359  14.345  17.181   6.550  0.0346  0.0843  0.1862
 1045YOPC   C2B14360  14.591  17.212   6.921  0.0681  0.3046 -0.0914
 1045YOPC   D3B14361  14.568  17.326   7.335 -0.3103  0.0080  0.2652
 1045YOPC   C4B14362  14.723  16.970   7.396  0.0014  0.0012 -0.0687
 1046YOPC   NC314363   9.790  18.108   5.429 -0.1021  0.1286 -0.3737
 1046YOPC   PO414364  10.168  18.448   5.536 -0.0239 -0.2458 -0.2242
 1046YOPC   GL114365  10.102  18.492   6.009 -0.1105  0.0680 -0.1583
 1046YOPC   GL214366   9.957  18.757   6.096  0.5129  0.0020 -0.2479
 1046YOPC   C1A14367  10.140  18.327   6.348 -0.0737  0.0935  0.0664
 1046YOPC   D2A14368  10.278  18.403   6.696  0.0383 -0.2185  0.1080
 1046YOPC   C3A14369   9.985  18.471   6.980  0.0125 -0.0241 -0.1006
 1046YOPC   C4A14370   9.871  18.440   7.339  0.1718  0.2892 -0.2474
 1046YOPC   C1B14371  10.191  18.824   6.420 -0.0616  0.0537 -0.2817
 1046YOPC   C2B14372  10.257  19.165   6.683  0.3206  0.2245 -0.0449
 1046YOPC   D3B14373  10.187  18.953   6.998  0.0021 -0.1629  0.0824
 1046YOPC   C4B14374   9.831  18.991   7.292 -0.4175  0.0920  0.2133
 1047YOPC   NC314375  12.487  17.249   6.054  0.2048  0.0079  0.2281
 1047YOPC   PO414376  12.445  17.715   6.027 -0.3936 -0.1113  0.1771
 1047YOPC   GL114377  12.246  17.522   6.450  0.1622  0.0112 -0.1813
 1047YOPC   GL214378  12.023  17.527   6.392  0.4152  0.3730 -0.1757
 1047YOPC   C1A14379  11.958  17.508   6.894 -0.1733  0.1815  0.2344
 1047YOPC   D2A14380  11.837  17.441   7.367 -0.0993  0.0258 -0.3504
 1047YOPC   C3A14381  12.003  17.809   7.527  0.2549  0.2287 -0.1449
 1047YOPC   C4A14382  12.297  18.064   7.466  0.1659 -0.2218  0.0095
 1047YOPC   C1B14383  11.655  17.811   6.597 -0.2126 -0.1441 -0.0748
 1047YOPC   C2B14384  11.612  17.833   7.087 -0.0608 -0.5631 -0.0928
 1047YOPC   D3B14385  11.805  18.251   7.323 -0.2374  0.0333  0.0306
 1047YOPC   C4B14386  12.044  18.467   7.576  0.1049  0.2503  0.1270
 1048YOPC   NC314387  11.773   4.406   4.727  0.2666 -0.1032  0.3052
 1048YOPC   PO414388  12.231   4.296   4.799  0.0999  0.1763 -0.0333
 1048YOPC   GL114389  12.222   4.222   5.294  0.2065  0.0792  0.2293
 1048YOPC   GL214390  11.971   4.410   5.479  0.1662  0.0089  0.0007
 1048YOPC   C1A14391  12.628   4.231   5.508  0.0551 -0.0899  0.1118
 1048YOPC   D2A14392  13.083   4.147   5.723  0.0189 -0.3228  0.0747
 1048YOPC   C3A14393  13.342   3.855   5.973 -0.0967 -0.3467  0.2417
 1048YOPC   C4A14394  13.559   3.755   6.282 -0.4285  0.3232  0.0326
 1048YOPC   C1B14395  12.017   4.095   5.700  0.3119 -0.1425  0.0799
 1048YOPC   C2B14396  12.074   3.958   6.113 -0.1456  0.1755 -0.0890
 1048YOPC   D3B14397  12.069   3.731   6.623  0.2178 -0.0249  0.1856
 1048YOPC   C4B14398  11.891   3.629   6.967 -0.1094 -0.2473 -0.2456
 1049YOPC   NC314399  18.792   1.378   5.235  0.0702 -0.3936  0.2108
 1049YOPC   PO414400  18.668   1.764   5.078  0.0263 -0.2325 -0.0709
 1049YOPC   GL114401  18.840   1.712   5.606 -0.0423  0.0310  0.0339
 1049YOPC   GL214402  18.850   2.061   5.545 -0.0334 -0.0699 -0.1978
 1049YOPC   C1A14403  18.912   1.556   6.003 -0.0468  0.4407 -0.1605
 1049YOPC   D2A14404  19.053   1.681   6.424  0.1111 -0.1774 -0.2094
 1049YOPC   C3A14405  18.763   1.629   6.758  0.3575 -0.0773 -0.2401
 1049YOPC   C4A14406  18.456   1.657   7.009  0.0287 -0.2885  0.4126
 1049YOPC   C1B14407  18.965   2.052   5.975  0.0881 -0.1279 -0.0117
 1049YOPC   C2B14408  19.274   2.150   6.393  0.0285 -0.0527  0.0404
 1049YOPC   D3B14409  19.442   1.938   6.614 -0.0902 -0.2277 -0.0650
 1049YOPC   C4B14410  19.858   1.883   6.413  0.1875  0.0316  0.0515
 1050YOPC   NC314411  16.823   0.313   5.146  0.5056 -0.0043 -0.3898
 1050YOPC   PO414412  16.975   0.145   5.534 -0.0781 -0.0575  0.0955
 1050YOPC   GL114413  17.196   0.495   5.800  0.1413  0.0248 -0.1213
 1050YOPC   GL214414  17.529   0.540   5.852  0.0290 -0.1070  0.1805
 1050YOPC   C1A14415  17.204   0.715   6.188 -0.3326 -0.2516 -0.1608
 1050YOPC   D2A14416  17.301   0.525   6.582  0.1064 -0.2554 -0.1450
 1050YOPC   C3A14417  17.435   0.660   6.977  0.0232 -0.0114  0.0682
 1050YOPC   C4A14418  17.748   1.032   7.109  0.1184 -0.1024  0.3232
 1050YOPC   C1B14419  17.684   0.586   6.256 -0.1717 -0.2649 -0.0249
 1050YOPC   C2B14420  18.025   0.548   6.501  0.2880  0.0499 -0.0421
 1050YOPC   D3B14421  17.942   0.579   6.896  0.0993 -0.1451  0.0310
 1050YOPC   C4B14422  18.224   0.792   7.310 -0.1802 -0.0263 -0.0854
 1051YOPC   NC314423   3.430   3.310   5.300  0.1655  0.0739  0.1373
 1051YOPC   PO414424   3.847   3.235   5.346  0.1118  0.1262  0.0456
 1051YOPC   GL114425   4.027   3.289   5.699  0.1216 -0.0474  0.1492
 1051YOPC   GL214426   4.266   3.208   5.663  0.0192 -0.1090  0.0652
 1051YOPC   C1A14427   3.907   3.569   5.960 -0.2081  0.2807  0.0290
 1051YOPC   D2A14428   3.824   3.537   6.364  0.1066  0.1462  0.1505
 1051YOPC   C3A14429   3.618   3.266   6.554 -0.0019 -0.0927 -0.0536
 1051YOPC   C4A14430   3.194   3.322   6.841  0.1683 -0.4642  0.0797
 1051YOPC   C1B14431   4.643   3.347   5.912  0.3330 -0.0906 -0.1405
 1051YOPC   C2B14432   4.712   3.592   6.220  0.0956 -0.1229 -0.4016
 1051YOPC   D3B14433   4.933   3.640   6.664 -0.4623 -0.1672  0.2825
 1051YOPC   C4B14434   4.922   3.634   7.160  0.1847 -0.1452  0.0060
 1052YOPC   NC314435   9.465  10.121   5.157  0.2390 -0.2561 -0.2376
 1052YOPC   PO414436   9.610  10.491   5.409 -0.2794 -0.2709  0.2371
 1052YOPC   GL114437   9.489  10.650   5.872 -0.1712 -0.2584 -0.0221
 1052YOPC   GL214438   9.513  11.057   6.030  0.0325  0.2355  0.1782
 1052YOPC   C1A14439   9.350  10.276   6.069 -0.1493 -0.0105 -0.0214
 1052YOPC   D2A14440   9.118  10.183   6.427  0.3200 -0.2971  0.0559
 1052YOPC   C3A14441   8.887   9.799   6.360  0.0167 -0.0501  0.2395
 1052YOPC   C4A14442   8.715   9.629   6.653 -0.1529 -0.1904 -0.0274
 1052YOPC   C1B14443   9.295  11.307   6.308  0.0584 -0.2448 -0.2201
 1052YOPC   C2B14444   8.862  11.175   6.434 -0.1433 -0.2244 -0.0113
 1052YOPC   D3B14445   8.752  11.047   6.841 -0.2591 -0.4121 -0.3134
 1052YOPC   C4B14446   8.659  10.551   6.939  0.1849  0.0349 -0.0399
 1053YOPC   NC314447   5.745  16.201   5.252 -0.1759  0.3055 -0.2144
 1053YOPC   PO414448   5.911  16.603   5.304  0.1552 -0.1131 -0.3242
 1053YOPC   GL114449   6.153  16.654   5.684 -0.1394  0.2830  0.1643
 1053YOPC   GL214450   6.257  16.358   5.714 -0.1669 -0.1399 -0.0470
 1053YOPC   C1A14451   6.314  16.640   6.121 -0.0550 -0.1464  0.0475
 1053YOPC   D2A14452   6.587  16.654   6.461  0.1233  0.0285 -0.1500
 1053YOPC   C3A14453   6.781  16.964   6.569 -0.0505  0.2664  0.0923
 1053YOPC   C4A14454   6.699  16.729   6.964 -0.2170  0.3616  0.1700
 1053YOPC   C1B14455   5.952  16.254   6.101 -0.2274 -0.0027  0.1018
 1053YOPC   C2B14456   5.942  15.924   6.416  0.0422 -0.2774  0.1220
 1053YOPC   D3B14457   5.789  16.153   6.791  0.1759 -0.0763 -0.2023
 1053YOPC   C4B14458   5.908  16.155   7.162  0.1243 -0.0790  0.0725
 1054YOPC   NC314459  14.194  10.716   5.968 -0.0540  0.1485 -0.0506
 1054YOPC   PO414460  14.071  10.353   6.036  0.0887  0.0661  0.3950
 1054YOPC   GL114461  14.242  10.456   6.481  0.1105  0.1833 -0.0227
 1054YOPC   GL214462  14.568  10.248   6.662 -0.1728  0.0686 -0.0875
 1054YOPC   C1A14463  14.527  10.783   6.610  0.1428 -0.2844 -0.0633
 1054YOPC   D2A14464  14.658  11.290   6.609  0.2164  0.2283 -0.2178
 1054YOPC   C3A14465  14.849  11.446   7.010 -0.0720 -0.3060  0.0562
 1054YOPC   C4A14466  14.886  11.631   7.432 -0.2783 -0.2229 -0.1639
 1054YOPC   C1B14467  14.601  10.069   7.150 -0.0574 -0.0780 -0.2212
 1054YOPC   C2B14468  14.746  10.287   7.447 -0.0470 -0.0471  0.0413
 1054YOPC   D3B14469  14.719  10.662   7.512  0.2383  0.4138 -0.0112
 1054YOPC   C4B14470  14.682  11.175   7.444 -0.0123 -0.2761 -0.0807
 1055YOPC   NC314471   1.561  11.798   5.371  0.1191  0.1897 -0.0820
 1055YOPC   PO414472   1.410  11.678   5.769  0.2078  0.0631 -0.0478
 1055YOPC   GL114473   1.673  11.494   6.181  0.2590  0.1023 -0.1045
 1055YOPC   GL214474   1.916  11.681   6.210  0.1866 -0.2097  0.1784
 1055YOPC   C1A14475   1.717  11.255   6.537 -0.1382 -0.3794 -0.0983
 1055YOPC   D2A14476   1.914  11.032   6.909  0.3138 -0.0335 -0.2847
 1055YOPC   C3A14477   1.662  11.057   7.268  0.0821  0.0561 -0.2526
 1055YOPC   C4A14478   1.552  11.335   7.613  0.2933 -0.2135 -0.1240
 1055YOPC   C1B14479   2.178  11.719   6.556  0.1604 -0.0638  0.1867
 1055YOPC   C2B14480   2.129  11.665   6.830  0.2035  0.2942  0.1071
 1055YOPC   D3B14481   2.488  11.491   7.093  0.0806  0.0106  0.6724
 1055YOPC   C4B14482   2.739  11.424   7.350  0.1368 -0.2602  0.1992
 1056YOPC   NC314483   5.136  15.335   5.123 -0.0340  0.1653  0.0716
 1056YOPC   PO414484   5.561  15.508   5.229 -0.1341  0.0333  0.2401
 1056YOPC   GL114485   5.411  15.521   5.605 -0.1524 -0.2087 -0.1011
 1056YOPC   GL214486   5.229  15.180   5.567 -0.2506  0.1278 -0.0270
 1056YOPC   C1A14487   5.112  15.616   5.917  0.1172 -0.0147  0.1661
 1056YOPC   D2A14488   5.030  15.800   6.394 -0.4499  0.0253 -0.3041
 1056YOPC   C3A14489   4.964  16.158   6.489 -0.1522 -0.0591 -0.3940
 1056YOPC   C4A14490   4.950  16.586   6.705 -0.3448  0.0073  0.0615
 1056YOPC   C1B14491   5.472  15.198   5.971 -0.1370  0.0427 -0.3694
 1056YOPC   C2B14492   5.674  14.921   6.118 -0.0994 -0.0687  0.0876
 1056YOPC   D3B14493   5.636  14.842   6.536  0.1925 -0.2857  0.0562
 1056YOPC   C4B14494   5.890  14.731   6.848  0.4918 -0.2254 -0.1902
 1057YOPC   NC314495   7.245  16.737   4.839 -0.2164 -0.1887  0.1060
 1057YOPC   PO414496   7.020  16.809   5.324  0.2050 -0.1035  0.1947
 1057YOPC   GL114497   6.824  16.843   5.731  0.0465  0.1179  0.2646
 1057YOPC   GL214498   7.057  16.639   5.843 -0.2754 -0.1345 -0.0948
 1057YOPC   C1A14499   6.628  17.073   6.105 -0.0264 -0.2849  0.0217
 1057YOPC   D2A14500   6.212  17.265   6.199  0.3082  0.3072 -0.0683
 1057YOPC   C3A14501   5.975  17.279   5.999  0.0883  0.0287  0.3161
 1057YOPC   C4A14502   5.660  17.648   5.902  0.0191 -0.0798 -0.0353
 1057YOPC   C1B14503   7.045  16.631   6.298  0.0632 -0.0244  0.2326
 1057YOPC   C2B14504   7.246  16.749   6.701 -0.1324 -0.0560 -0.0647
 1057YOPC   D3B14505   7.714  16.872   6.535  0.0679 -0.0536  0.0454
 1057YOPC   C4B14506   7.979  17.047   6.328  0.2356 -0.0805  0.0709
 1058YOPC   NC314507  14.401   8.894   5.389 -0.3068 -0.1830  0.0117
 1058YOPC   PO414508  13.937   8.804   5.309 -0.1251 -0.0114  0.0972
 1058YOPC   GL114509  14.030   8.816   5.735 -0.1343  0.1015  0.2325
 1058YOPC   GL214510  13.702   8.605   5.971 -0.1378  0.4232 -0.0749
 1058YOPC   C1A14511  14.041   8.958   6.186 -0.2222 -0.2074 -0.0648
 1058YOPC   D2A14512  14.390   8.913   6.422 -0.2059 -0.0595  0.0600
 1058YOPC   C3A14513  14.594   8.532   6.717 -0.1258 -0.0171  0.1362
 1058YOPC   C4A14514  14.920   8.394   6.962  0.1785  0.0719 -0.1284
 1058YOPC   C1B14515  13.613   8.659   6.404  0.0030  0.1906  0.2833
 1058YOPC   C2B14516  13.646   8.655   6.902  0.3966 -0.2758 -0.2278
 1058YOPC   D3B14517  13.768   8.335   7.180  0.0866 -0.2653  0.3662
 1058YOPC   C4B14518  13.615   8.126   7.477  0.0819  0.3078  0.1808
 1059YOPC   NC314519   4.371  11.273   5.308  0.4129  0.0898 -0.1960
 1059YOPC   PO414520   4.576  11.324   5.663 -0.0191 -0.1736 -0.1358
 1059YOPC   GL114521   4.607  11.479   6.132 -0.3351 -0.0651 -0.0329
 1059YOPC   GL214522   4.790  11.691   6.146  0.1722 -0.0139 -0.1506
 1059YOPC   C1A14523   4.916  11.359   6.510  0.1084 -0.0791  0.3197
 1059YOPC   D2A14524   5.251  11.169   6.557  0.1900 -0.0910  0.0496
 1059YOPC   C3A14525   5.272  10.890   6.905  0.0545 -0.0796  0.0911
 1059YOPC   C4A14526   5.444  10.556   7.280  0.2433 -0.1377  0.0727
 1059YOPC   C1B14527   5.098  11.827   6.461  0.1423  0.0224  0.3315
 1059YOPC   C2B14528   5.035  12.166   6.704  0.0914  0.0759 -0.2204
 1059YOPC   D3B14529   4.728  12.248   6.998  0.1381 -0.1942  0.5434
 1059YOPC   C4B14530   4.402  12.272   7.325 -0.1114  0.1092 -0.0479
 1060YOPC   NC314531  13.398  15.131   5.343 -0.1586 -0.0957 -0.2489
 1060YOPC   PO414532  13.676  14.988   5.624 -0.3209  0.1496  0.0837
 1060YOPC   GL114533  13.627  14.601   5.930  0.2131  0.2325 -0.2049
 1060YOPC   GL214534  13.385  14.579   6.000 -0.0862 -0.0051  0.0407
 1060YOPC   C1A14535  13.779  14.664   6.346 -0.1513 -0.2497 -0.0199
 1060YOPC   D2A14536  14.007  14.463   6.714 -0.1481  0.0148 -0.3624
 1060YOPC   C3A14537  13.732  14.633   7.010  0.0471 -0.1617  0.1606
 1060YOPC   C4A14538  13.552  14.898   7.222  0.1335  0.1027  0.0849
 1060YOPC   C1B14539  13.288  14.657   6.484  0.0009 -0.1627 -0.2514
 1060YOPC   C2B14540  13.147  14.580   6.884 -0.0154  0.0101  0.2200
 1060YOPC   D3B14541  12.980  14.820   7.127 -0.0709  0.1217 -0.0892
 1060YOPC   C4B14542  12.772  14.949   7.479  0.0676 -0.2249 -0.2377
 1061YOPC   NC314543   1.298   0.007   5.435 -0.0694  0.2237 -0.0739
 1061YOPC   PO414544   0.997  -0.365   5.235 -0.2190  0.3725 -0.0074
 1061YOPC   GL114545   0.933  -0.398   5.690  0.2816  0.0740  0.2558
 1061YOPC   GL214546   0.718  -0.594   5.842 -0.0270  0.0146  0.0261
 1061YOPC   C1A14547   1.097  -0.255   6.216  0.2378  0.3034  0.0313
 1061YOPC   D2A14548   0.939  -0.156   6.518 -0.0104 -0.2868  0.0282
 1061YOPC   C3A14549   0.745  -0.235   6.955 -0.3896 -0.1185  0.1588
 1061YOPC   C4A14550   0.860  -0.161   7.369  0.0382 -0.1421 -0.3517
 1061YOPC   C1B14551   0.616  -0.352   6.224 -0.2107  0.0716 -0.1365
 1061YOPC   C2B14552   0.489  -0.465   6.565 -0.2498 -0.0735 -0.0944
 1061YOPC   D3B14553   0.559  -0.907   6.522  0.1660  0.1888 -0.1056
 1061YOPC   C4B14554   0.852  -1.212   6.734 -0.1943 -0.0344  0.1207
 1062YOPC   NC314555   7.891   4.898   5.090  0.1347  0.1738 -0.0008
 1062YOPC   PO414556   7.736   5.137   5.536 -0.0803  0.0887 -0.2647
 1062YOPC   GL114557   7.455   4.950   5.799  0.3659 -0.1468  0.1361
 1062YOPC   GL214558   7.486   5.107   6.117 -0.0534  0.1105 -0.0209
 1062YOPC   C1A14559   7.151   4.627   5.966 -0.0969  0.0396  0.0504
 1062YOPC   D2A14560   7.020   4.496   6.364  0.0747  0.1830 -0.2947
 1062YOPC   C3A14561   7.225   4.386   6.649 -0.2376 -0.1156  0.0964
 1062YOPC   C4A14562   7.168   4.301   7.080  0.0465 -0.3260  0.0998
 1062YOPC   C1B14563   7.340   4.871   6.498 -0.1556 -0.0098 -0.1505
 1062YOPC   C2B14564   7.626   4.936   6.654  0.2339 -0.0418 -0.2155
 1062YOPC   D3B14565   7.906   5.409   6.719 -0.2779 -0.0477 -0.2705
 1062YOPC   C4B14566   7.941   5.818   6.781  0.1315  0.0904  0.0882
 1063YOPC   NC314567   8.842  17.422   4.817  0.1322 -0.0356 -0.0361
 1063YOPC   PO414568   8.819  17.654   5.127  0.0861  0.1252  0.0119
 1063YOPC   GL114569   9.020  17.443   5.504 -0.0155 -0.0821 -0.1547
 1063YOPC   GL214570   9.049  17.696   5.670  0.0611 -0.0815  0.3846
 1063YOPC   C1A14571   8.862  17.280   5.886  0.0875 -0.0010 -0.1593
 1063YOPC   D2A14572   8.582  16.882   5.996 -0.1146 -0.0035  0.2560
 1063YOPC   C3A14573   8.514  16.755   6.476  0.1871  0.2605  0.3208
 1063YOPC   C4A14574   8.244  16.919   6.796 -0.2347  0.0792 -0.1007
 1063YOPC   C1B14575   8.701  17.769   5.944 -0.1165 -0.0729 -0.3472
 1063YOPC   C2B14576   8.517  18.002   6.272 -0.3000 -0.0145 -0.0713
 1063YOPC   D3B14577   8.605  18.340   6.391 -0.1856 -0.0905 -0.0206
 1063YOPC   C4B14578   8.630  18.294   6.823  0.0582  0.1325 -0.0633
 1064YOPC   NC314579  16.048   8.174   5.208  0.1924 -0.1153 -0.1232
 1064YOPC   PO414580  16.448   7.958   5.330 -0.0909  0.2351  0.1832
 1064YOPC   GL114581  16.239   7.824   5.573  0.0102 -0.0143 -0.1255
 1064YOPC   GL214582  16.374   7.538   5.821 -0.0319  0.0732  0.0781
 1064YOPC   C1A14583  16.056   7.976   5.987 -0.0328 -0.1551  0.0073
 1064YOPC   D2A14584  15.753   8.324   6.098 -0.1486 -0.3002  0.3538
 1064YOPC   C3A14585  15.892   8.774   5.941 -0.1957 -0.0633  0.1278
 1064YOPC   C4A14586  15.878   9.162   6.159 -0.0930  0.2250  0.2152
 1064YOPC   C1B14587  16.561   7.805   6.062 -0.1048  0.0240  0.1403
 1064YOPC   C2B14588  16.754   7.921   6.370 -0.2472  0.1750 -0.0931
 1064YOPC   D3B14589  16.395   7.914   6.666 -0.0022  0.0643  0.0420
 1064YOPC   C4B14590  16.259   7.891   7.012 -0.0412 -0.0255  0.3904
 1065YOPC   NC314591  13.357  13.447   5.482  0.0584  0.0383  0.1947
 1065YOPC   PO414592  13.086  13.644   5.730 -0.1450  0.0758  0.4753
 1065YOPC   GL114593  13.019  13.468   6.125  0.3457  0.0146 -0.1269
 1065YOPC   GL214594  13.310  13.226   5.961 -0.2564 -0.0317 -0.1107
 1065YOPC   C1A14595  13.115  13.737   6.423  0.1934 -0.1204  0.3196
 1065YOPC   D2A14596  12.992  13.680   6.861 -0.0680  0.2575  0.2364
 1065YOPC   C3A14597  12.997  13.513   7.200  0.1717 -0.5287 -0.0570
 1065YOPC   C4A14598  12.677  13.379   7.553  0.0276  0.1158 -0.0252
 1065YOPC   C1B14599  13.340  13.157   6.488 -0.0769 -0.1286 -0.0092
 1065YOPC   C2B14600  13.542  12.927   6.742  0.0893 -0.4545  0.2795
 1065YOPC   D3B14601  13.569  13.146   7.148  0.0610 -0.1857 -0.3973
 1065YOPC   C4B14602  13.621  13.439   7.500 -0.1522  0.3533  0.1210
 1066YOPC   NC314603   6.309  11.605   5.745  0.1666  0.0124 -0.1067
 1066YOPC   PO414604   5.924  11.549   5.553  0.2124  0.1338  0.3656
 1066YOPC   GL114605   5.800  11.688   5.998 -0.1623  0.0333 -0.1534
 1066YOPC   GL214606   5.659  12.036   6.086  0.0714  0.0685 -0.1517
 1066YOPC   C1A14607   6.007  11.735   6.458 -0.0250  0.2613 -0.3933
 1066YOPC   D2A14608   6.168  12.049   6.686  0.2069 -0.2850 -0.2336
 1066YOPC   C3A14609   6.497  11.884   6.994 -0.0182  0.0696 -0.1561
 1066YOPC   C4A14610   6.798  12.030   7.154 -0.1194  0.1270  0.0483
 1066YOPC   C1B14611   5.670  12.148   6.492  0.0076 -0.1217  0.2245
 1066YOPC   C2B14612   5.573  11.977   6.861  0.2929  0.2081 -0.1424
 1066YOPC   D3B14613   5.882  11.848   7.131 -0.2754 -0.0538  0.4637
 1066YOPC   C4B14614   6.025  11.922   7.424 -0.1850  0.1311  0.1075
 1067YOPC   NC314615   9.061   0.899   5.280 -0.5003 -0.2057 -0.1432
 1067YOPC   PO414616   8.653   1.010   5.429  0.0394 -0.2607 -0.2574
 1067YOPC   GL114617   8.751   0.713   5.889  0.0270 -0.1681  0.3175
 1067YOPC   GL214618   8.922   0.447   5.829  0.0171 -0.0677 -0.0498
 1067YOPC   C1A14619   8.620   0.788   6.257 -0.2629 -0.2438 -0.0855
 1067YOPC   D2A14620   8.901   1.076   6.551  0.1935  0.2138  0.1042
 1067YOPC   C3A14621   8.768   0.717   6.769  0.0274  0.1851 -0.1467
 1067YOPC   C4A14622   8.675   0.430   7.167 -0.1354  0.1819  0.1265
 1067YOPC   C1B14623   9.136   0.529   6.223 -0.0815 -0.2034 -0.0772
 1067YOPC   C2B14624   9.275   0.786   6.628  0.1161 -0.3167 -0.1972
 1067YOPC   D3B14625   9.608   0.684   7.013 -0.1478  0.2129  0.3230
 1067YOPC   C4B14626   9.731   0.501   7.396  0.1041  0.2957  0.1169
 1068YOPC   NC314627   1.673  17.509   4.903 -0.2589  0.3073 -0.2485
 1068YOPC   PO414628   1.558  17.339   5.291 -0.0025 -0.0764  0.0476
 1068YOPC   GL114629   1.614  17.138   5.764  0.3445 -0.3146  0.1885
 1068YOPC   GL214630   1.951  17.103   5.866  0.2386  0.1720 -0.4767
 1068YOPC   C1A14631   1.536  17.106   6.181 -0.1427 -0.2146 -0.0843
 1068YOPC   D2A14632   1.743  17.327   6.517  0.1595 -0.1207 -0.7260
 1068YOPC   C3A14633   1.791  17.755   6.565 -0.1238  0.2717  0.0843
 1068YOPC   C4A14634   1.482  18.044   6.615 -0.0444 -0.1935  0.1483
 1068YOPC   C1B14635   1.802  17.475   6.056 -0.0273 -0.4483  0.0880
 1068YOPC   C2B14636   1.352  17.760   6.049 -0.1937  0.0877  0.0080
 1068YOPC   D3B14637   1.209  17.993   5.720 -0.0150 -0.2753  0.1987
 1068YOPC   C4B14638   1.157  18.385   5.931  0.0477 -0.1858  0.0863
 1069YOPC   NC314639  11.394   6.828   5.283 -0.0409  0.2144  0.2341
 1069YOPC   PO414640  11.527   7.246   5.268  0.0375  0.1778  0.2261
 1069YOPC   GL114641  11.339   7.200   5.723  0.1553  0.1626  0.1122
 1069YOPC   GL214642  11.056   7.311   5.728  0.1324  0.1587  0.0281
 1069YOPC   C1A14643  11.408   7.271   6.126 -0.4479  0.2164  0.3426
 1069YOPC   D2A14644  11.529   6.880   6.211  0.2737  0.0604  0.1194
 1069YOPC   C3A14645  11.345   6.593   6.444 -0.4448 -0.0041  0.2866
 1069YOPC   C4A14646  11.061   6.489   6.735  0.0851 -0.3191  0.0168
 1069YOPC   C1B14647  11.017   7.655   6.135  0.0096 -0.3542 -0.1110
 1069YOPC   C2B14648  11.375   7.857   6.180  0.2892  0.2185  0.2052
 1069YOPC   D3B14649  11.458   8.122   6.442  0.3611 -0.1055  0.0287
 1069YOPC   C4B14650  11.747   8.301   6.529 -0.3322  0.2009  0.0474
 1070YOPC   NC314651  11.668  15.088   5.618  0.1351  0.1058  0.1930
 1070YOPC   PO414652  11.383  15.217   5.520 -0.2535 -0.0090 -0.1679
 1070YOPC   GL114653  11.186  15.258   5.823  0.0026 -0.0696 -0.2143
 1070YOPC   GL214654  11.428  15.083   6.113 -0.1247  0.0707  0.1418
 1070YOPC   C1A14655  11.087  15.515   6.161 -0.0928  0.1953  0.0461
 1070YOPC   D2A14656  11.416  15.691   6.511  0.3017  0.1100 -0.0654
 1070YOPC   C3A14657  11.415  15.449   6.935 -0.0918 -0.2541  0.2239
 1070YOPC   C4A14658  11.559  15.466   7.331 -0.0753  0.4672 -0.4137
 1070YOPC   C1B14659  11.270  15.196   6.544 -0.3007  0.1487 -0.1181
 1070YOPC   C2B14660  11.515  14.932   6.794 -0.0564  0.1492 -0.2597
 1070YOPC   D3B14661  11.556  15.010   7.197  0.0727  0.3915  0.1379
 1070YOPC   C4B14662  11.739  14.850   7.487 -0.0980 -0.2434  0.0112
 1071YOPC   NC314663   5.201  17.624   5.106  0.1011 -0.2148 -0.0740
 1071YOPC   PO414664   5.421  17.344   5.361 -0.0296  0.0504 -0.1357
 1071YOPC   GL114665   4.990  17.460   5.620 -0.1365  0.0448 -0.1139
 1071YOPC   GL214666   4.697  17.779   5.773 -0.0947 -0.4624  0.0690
 1071YOPC   C1A14667   4.677  17.291   5.834 -0.0461 -0.1421  0.3175
 1071YOPC   D2A14668   4.350  17.428   6.070  0.1674  0.0082  0.0794
 1071YOPC   C3A14669   4.316  17.363   6.582 -0.3171  0.0129  0.0614
 1071YOPC   C4A14670   4.478  17.159   6.886  0.2056 -0.2247  0.0293
 1071YOPC   C1B14671   4.734  17.729   6.240 -0.1359  0.3320  0.1709
 1071YOPC   C2B14672   4.830  17.589   6.701 -0.0541  0.1268  0.3463
 1071YOPC   D3B14673   4.658  17.733   7.060  0.1145  0.2006  0.0653
 1071YOPC   C4B14674   4.568  17.580   7.478 -0.1930 -0.1065 -0.2034
 1072YOPC   NC314675  14.306   2.175   5.530 -0.0530 -0.6160  0.2594
 1072YOPC   PO414676  14.585   1.905   5.719  0.0554  0.2634 -0.2431
 1072YOPC   GL114677  14.598   1.744   6.077 -0.2138 -0.2270  0.1734
 1072YOPC   GL214678  14.663   2.099   6.248 -0.0119 -0.0094 -0.1925
 1072YOPC   C1A14679  14.594   1.692   6.581 -0.1222 -0.3544 -0.1582
 1072YOPC   D2A14680  14.546   2.078   6.802 -0.3724  0.0262 -0.1515
 1072YOPC   C3A14681  14.892   2.277   6.679  0.0271  0.0981  0.0644
 1072YOPC   C4A14682  15.105   2.615   6.605  0.2771  0.0830  0.1234
 1072YOPC   C1B14683  15.045   2.257   6.198 -0.1251  0.0777  0.0205
 1072YOPC   C2B14684  15.332   2.602   6.127 -0.2586  0.0441  0.2315
 1072YOPC   D3B14685  15.205   3.084   6.128  0.2491 -0.1236 -0.1314
 1072YOPC   C4B14686  14.878   3.381   6.081  0.0323  0.0288 -0.0169
 1073YOPC   NC314687  12.449  14.413   5.509  0.2380 -0.3441 -0.3843
 1073YOPC   PO414688  12.696  14.048   5.404 -0.1196  0.0546 -0.0153
 1073YOPC   GL114689  12.643  13.996   5.886  0.2472  0.0109 -0.2152
 1073YOPC   GL214690  12.391  14.060   5.890  0.0647 -0.0445 -0.0343
 1073YOPC   C1A14691  12.637  13.846   6.289  0.2025 -0.2131  0.1485
 1073YOPC   D2A14692  12.424  13.676   6.570 -0.1309 -0.2161 -0.0327
 1073YOPC   C3A14693  12.328  14.094   6.724  0.2815 -0.2238 -0.1890
 1073YOPC   C4A14694  12.148  14.421   6.535 -0.1959 -0.2228 -0.0992
 1073YOPC   C1B14695  12.192  14.071   6.176 -0.0053  0.0644  0.1458
 1073YOPC   C2B14696  11.859  14.011   6.496 -0.4587  0.3671  0.3140
 1073YOPC   D3B14697  12.033  13.737   6.849  0.1504  0.1269  0.0358
 1073YOPC   C4B14698  12.478  13.672   7.051  0.0909  0.0088  0.0550
 1074YOPC   NC314699   4.873   2.306   4.897 -0.0131  0.2313 -0.0143
 1074YOPC   PO414700   4.806   2.534   5.176  0.1283 -0.0040  0.0582
 1074YOPC   GL114701   4.748   2.480   5.617 -0.0190  0.1950 -0.1475
 1074YOPC   GL214702   4.556   2.646   5.750 -0.0176  0.1105 -0.1000
 1074YOPC   C1A14703   4.786   2.487   6.120  0.0609 -0.0152 -0.2694
 1074YOPC   D2A14704   4.592   2.758   6.378 -0.1566 -0.0211 -0.2135
 1074YOPC   C3A14705   4.472   2.749   6.832 -0.1401 -0.0853 -0.0301
 1074YOPC   C4A14706   4.212   2.977   7.169 -0.1829 -0.2570 -0.1410
 1074YOPC   C1B14707   4.349   2.904   6.003  0.1040  0.1544 -0.1194
 1074YOPC   C2B14708   4.221   3.262   6.188  0.1692  0.0339 -0.0032
 1074YOPC   D3B14709   4.579   3.218   6.543  0.2761  0.1542 -0.0375
 1074YOPC   C4B14710   4.555   3.389   6.928  0.1852  0.1419 -0.1708
 1075YOPC   NC314711   3.964   0.363   4.827 -0.0227  0.4201 -0.0083
 1075YOPC   PO414712   3.840   0.521   5.166  0.0249 -0.3317  0.1879
 1075YOPC   GL114713   3.816   0.381   5.586 -0.0490 -0.2369  0.1163
 1075YOPC   GL214714   4.115   0.354   5.739 -0.2847 -0.0078 -0.0942
 1075YOPC   C1A14715   3.547   0.474   5.956  0.0278  0.2408  0.2361
 1075YOPC   D2A14716   3.508   0.589   6.311 -0.2754  0.1451  0.0984
 1075YOPC   C3A14717   3.869   0.884   6.460 -0.0227 -0.1396 -0.0395
 1075YOPC   C4A14718   4.168   1.114   6.497  0.3120  0.0560 -0.1808
 1075YOPC   C1B14719   3.986   0.314   6.168 -0.1131 -0.1054  0.1252
 1075YOPC   C2B14720   3.951   0.425   6.599  0.1146  0.2121  0.0278
 1075YOPC   D3B14721   3.733   0.631   6.853  0.1476  0.2048  0.0863
 1075YOPC   C4B14722   3.668   0.742   7.283 -0.1635  0.1565  0.1040
 1076YOPC   NC314723  15.338  17.607   5.709  0.0572 -0.1338  0.0439
 1076YOPC   PO414724  15.429  17.362   5.902  0.1232 -0.1003  0.0610
 1076YOPC   GL114725  15.262  17.442   6.211  0.5392  0.0688 -0.4216
 1076YOPC   GL214726  15.096  17.177   6.361  0.3025  0.1591 -0.1848
 1076YOPC   C1A14727  15.355  17.718   6.468  0.5623  0.2400 -0.1521
 1076YOPC   D2A14728  15.381  17.766   6.928 -0.0735  0.1434  0.0681
 1076YOPC   C3A14729  15.670  17.574   7.215 -0.1414  0.2391 -0.2394
 1076YOPC   C4A14730  15.416  17.506   7.553  0.2036  0.0369 -0.2280
 1076YOPC   C1B14731  15.204  17.219   6.746  0.2964 -0.3275  0.1232
 1076YOPC   C2B14732  15.148  17.053   7.153 -0.0535  0.2391  0.1496
 1076YOPC   D3B14733  15.337  16.987   7.536  0.0343 -0.1495 -0.0794
 1076YOPC   C4B14734  15.282  17.088   8.020  0.0137 -0.2412 -0.5412
 1077YOPC   NC314735  15.539   2.017   5.450 -0.1692  0.2903  0.5088
 1077YOPC   PO414736  15.886   1.715   5.312 -0.0342  0.3139 -0.0118
 1077YOPC   GL114737  15.956   1.810   5.733  0.1196 -0.0436  0.1705
 1077YOPC   GL214738  15.878   1.541   5.884 -0.3273  0.0686 -0.3311
 1077YOPC   C1A14739  16.054   2.154   5.901  0.2213  0.1613 -0.2310
 1077YOPC   D2A14740  15.817   2.509   6.101 -0.1681  0.0171  0.0114
 1077YOPC   C3A14741  15.756   2.595   6.514  0.1917 -0.1123  0.0941
 1077YOPC   C4A14742  15.552   2.738   6.897 -0.2216 -0.2096 -0.3717
 1077YOPC   C1B14743  15.966   1.801   6.328 -0.0366 -0.1663 -0.0364
 1077YOPC   C2B14744  16.119   2.256   6.390  0.1868 -0.1719  0.1726
 1077YOPC   D3B14745  16.173   2.395   6.869 -0.1497 -0.0620 -0.2169
 1077YOPC   C4B14746  16.178   2.299   7.261  0.0000 -0.3310 -0.0222
 1078YOPC   NC314747  13.163  12.229   5.618 -0.1740  0.1187 -0.0925
 1078YOPC   PO414748  12.822  12.466   5.371 -0.1682 -0.2531  0.1522
 1078YOPC   GL114749  12.716  12.443   5.861 -0.0694  0.1927  0.0373
 1078YOPC   GL214750  12.487  12.468   5.960 -0.4269 -0.0115  0.0328
 1078YOPC   C1A14751  12.933  12.277   6.303  0.1051  0.1405  0.0569
 1078YOPC   D2A14752  12.845  12.220   6.797 -0.1159  0.0255  0.1629
 1078YOPC   C3A14753  12.820  12.639   7.004  0.0000 -0.3179  0.2662
 1078YOPC   C4A14754  13.216  12.642   7.034 -0.2296 -0.3521 -0.3318
 1078YOPC   C1B14755  12.481  12.530   6.297 -0.1745 -0.0310 -0.0954
 1078YOPC   C2B14756  12.406  12.447   6.738 -0.2215 -0.3844 -0.0386
 1078YOPC   D3B14757  12.316  12.733   6.944 -0.1408 -0.2738 -0.0755
 1078YOPC   C4B14758  12.449  12.908   7.394  0.0409 -0.1472  0.2733
 1079YOPC   NC314759  18.251   3.067   5.018 -0.1704 -0.4737  0.0636
 1079YOPC   PO414760  18.503   3.485   5.023 -0.0752  0.0794 -0.0135
 1079YOPC   GL114761  18.859   3.186   5.305  0.0796  0.1186 -0.1302
 1079YOPC   GL214762  18.663   3.317   5.599  0.2231  0.2262  0.1348
 1079YOPC   C1A14763  19.201   2.993   5.562 -0.1494  0.3353 -0.0319
 1079YOPC   D2A14764  19.458   2.708   5.452 -0.0477 -0.2813 -0.1871
 1079YOPC   C3A14765  19.302   2.283   5.462 -0.0871 -0.0669 -0.0771
 1079YOPC   C4A14766  19.388   1.852   5.604 -0.1145  0.1926  0.1355
 1079YOPC   C1B14767  18.920   3.170   5.911  0.1955  0.0333  0.1730
 1079YOPC   C2B14768  19.188   3.021   6.202 -0.1672  0.1648  0.0014
 1079YOPC   D3B14769  19.491   2.649   6.023  0.0643 -0.2721  0.0817
 1079YOPC   C4B14770  19.512   2.224   5.911  0.1917 -0.1038 -0.2307
 1080YOPC   NC314771  15.086   9.382   5.479 -0.2341  0.0749 -0.0785
 1080YOPC   PO414772  14.636   9.324   5.499  0.0533  0.1180  0.0528
 1080YOPC   GL114773  14.807   9.238   5.875  0.3521  0.1069 -0.2153
 1080YOPC   GL214774  15.134   9.318   5.963  0.0736 -0.2130 -0.1624
 1080YOPC   C1A14775  14.685   9.390   6.337  0.0615 -0.1753 -0.0459
 1080YOPC   D2A14776  14.594   9.598   6.803 -0.1567 -0.1348  0.0278
 1080YOPC   C3A14777  14.819   9.483   7.178 -0.0163 -0.0997  0.0051
 1080YOPC   C4A14778  15.113   9.439   7.521 -0.0992  0.0631  0.1467
 1080YOPC   C1B14779  15.340   9.075   6.374 -0.1619  0.0272 -0.0980
 1080YOPC   C2B14780  15.224   8.597   6.628 -0.0795  0.5086  0.1693
 1080YOPC   D3B14781  15.341   8.422   7.136  0.2951  0.4287  0.0552
 1080YOPC   C4B14782  15.417   8.233   7.575  0.0346  0.0098  0.0104
 1081YOPC   NC314783  17.057   7.130   5.236  0.1910 -0.3115  0.0636
 1081YOPC   PO414784  16.721   6.993   5.538 -0.2930  0.1737 -0.1921
 1081YOPC   GL114785  16.520   7.030   5.926  0.2022 -0.1621 -0.1751
 1081YOPC   GL214786  16.178   7.059   6.011 -0.0649  0.0101 -0.0514
 1081YOPC   C1A14787  16.463   6.887   6.381  0.0458  0.0997 -0.4822
 1081YOPC   D2A14788  16.388   6.727   6.756  0.0881 -0.2326  0.1367
 1081YOPC   C3A14789  16.025   6.656   6.975 -0.1595 -0.2301  0.0381
 1081YOPC   C4A14790  15.782   6.322   6.941  0.0819  0.3324  0.0151
 1081YOPC   C1B14791  15.755   7.121   6.224 -0.0580 -0.0822 -0.4235
 1081YOPC   C2B14792  15.497   7.136   6.606 -0.0095 -0.1879 -0.1327
 1081YOPC   D3B14793  15.688   7.090   7.033  0.0829  0.3541  0.0620
 1081YOPC   C4B14794  15.980   7.027   7.353 -0.0776  0.2518 -0.0531
 1082YOPC   NC314795  18.721   6.747   5.585  0.1128 -0.0917  0.3102
 1082YOPC   PO414796  18.648   6.339   5.497  0.0007 -0.0925  0.2743
 1082YOPC   GL114797  18.557   6.254   5.792 -0.0755  0.0717 -0.0894
 1082YOPC   GL214798  18.341   6.430   6.029 -0.0019  0.0536 -0.2162
 1082YOPC   C1A14799  18.567   5.984   6.238  0.0674 -0.0127 -0.2449
 1082YOPC   D2A14800  18.566   5.534   6.492  0.2092  0.5361  0.2374
 1082YOPC   C3A14801  18.819   5.646   6.887  0.0642  0.0255  0.0162
 1082YOPC   C4A14802  19.058   5.492   7.192 -0.3778  0.4818 -0.1788
 1082YOPC   C1B14803  18.090   6.367   6.396  0.0897  0.1060 -0.1630
 1082YOPC   C2B14804  18.237   6.450   6.743 -0.0817  0.2215 -0.2076
 1082YOPC   D3B14805  17.906   6.200   6.983  0.3500 -0.0603 -0.2903
 1082YOPC   C4B14806  17.551   5.870   6.941  0.0021  0.2289  0.1150
 1083YOPC   NC314807  14.376  18.647   5.931 -0.0517 -0.0196  0.3244
 1083YOPC   PO414808  14.633  19.008   5.805  0.1967  0.1787 -0.0204
 1083YOPC   GL114809  14.909  19.283   6.034  0.3633  0.0024 -0.4520
 1083YOPC   GL214810  15.196  19.127   6.097 -0.0920 -0.2572  0.2437
 1083YOPC   C1A14811  14.902  19.526   6.429 -0.0983  0.1740  0.0769
 1083YOPC   D2A14812  14.599  19.640   6.778  0.0146  0.3216  0.0010
 1083YOPC   C3A14813  14.613  19.479   7.130  0.1029  0.0083 -0.2113
 1083YOPC   C4A14814  14.707  19.341   7.399  0.0052  0.1141 -0.2409
 1083YOPC   C1B14815  15.053  18.985   6.457  0.1887 -0.1931 -0.0473
 1083YOPC   C2B14816  14.971  19.269   6.848 -0.5208  0.2957 -0.2673
 1083YOPC   D3B14817  15.190  19.236   7.277 -0.1639 -0.0103 -0.1913
 1083YOPC   C4B14818  15.023  19.036   7.672 -0.1588 -0.3597 -0.2299
 1084YOPC   NC314819  15.903  17.301   6.215 -0.2967 -0.1669 -0.0111
 1084YOPC   PO414820  15.596  16.986   6.311 -0.1332  0.0381  0.0674
 1084YOPC   GL114821  15.663  16.831   6.651  0.1567 -0.1011  0.1378
 1084YOPC   GL214822  15.735  16.585   6.744 -0.0102  0.2827  0.1361
 1084YOPC   C1A14823  15.761  17.032   6.993  0.2913  0.0080 -0.0158
 1084YOPC   D2A14824  15.871  17.062   7.422 -0.0324  0.0291 -0.0783
 1084YOPC   C3A14825  15.856  16.814   7.765 -0.0785  0.1228 -0.0470
 1084YOPC   C4A14826  15.596  16.427   8.047 -0.0249  0.0140  0.0275
 1084YOPC   C1B14827  15.532  16.653   7.140  0.0255  0.3657 -0.0077
 1084YOPC   C2B14828  15.502  16.541   7.588 -0.0365  0.2409  0.0693
 1084YOPC   D3B14829  15.143  16.470   7.865  0.1073  0.1928 -0.1887
 1084YOPC   C4B14830  14.866  16.236   7.875  0.1803  0.0103 -0.3193
 1085YOPC   NC314831  13.349   1.586   5.193  0.3880 -0.2288 -0.1756
 1085YOPC   PO414832  13.232   1.963   5.317 -0.1909  0.0642  0.0687
 1085YOPC   GL114833  13.062   1.806   5.574 -0.0898  0.2210 -0.1427
 1085YOPC   GL214834  13.066   1.503   5.703  0.0230 -0.2831 -0.5736
 1085YOPC   C1A14835  12.771   1.975   5.990 -0.1586  0.1588 -0.2853
 1085YOPC   D2A14836  12.606   1.992   6.403 -0.0561  0.3242 -0.1873
 1085YOPC   C3A14837  12.712   2.295   6.721  0.1418 -0.3727 -0.1212
 1085YOPC   C4A14838  12.626   2.314   7.197  0.1407  0.0677  0.2262
 1085YOPC   C1B14839  13.199   1.679   6.159 -0.1248  0.0747  0.2091
 1085YOPC   C2B14840  13.506   1.920   6.400  0.1922  0.3697  0.3795
 1085YOPC   D3B14841  13.677   2.325   6.274 -0.1395 -0.2261 -0.0767
 1085YOPC   C4B14842  13.881   2.710   6.187  0.1812  0.0413  0.5586
 1086YOPC   NC314843   0.813  12.181   5.147 -0.1796 -0.0652 -0.3008
 1086YOPC   PO414844   0.667  12.229   5.632  0.0511 -0.0907  0.2007
 1086YOPC   GL114845   0.655  11.988   5.985  0.1716 -0.0849 -0.1265
 1086YOPC   GL214846   0.979  12.023   6.128 -0.1844 -0.0828  0.3630
 1086YOPC   C1A14847   0.500  11.936   6.412 -0.0379  0.0080 -0.0443
 1086YOPC   D2A14848   0.655  12.010   6.784  0.0627  0.0986  0.2717
 1086YOPC   C3A14849   0.620  11.786   7.134 -0.0793 -0.2664 -0.0605
 1086YOPC   C4A14850   0.680  11.642   7.571 -0.0455 -0.3330  0.2333
 1086YOPC   C1B14851   1.273  11.703   6.421 -0.1556  0.0104  0.1575
 1086YOPC   C2B14852   1.652  11.853   6.614 -0.0690  0.3138 -0.3432
 1086YOPC   D3B14853   1.730  11.927   7.055  0.1009  0.4785 -0.5585
 1086YOPC   C4B14854   1.606  11.902   7.455 -0.1347  0.1000  0.1925
 1087YOPC   NC314855   6.692  10.817   5.850 -0.4159  0.0149 -0.2610
 1087YOPC   PO414856   6.556  11.233   5.937  0.1101  0.2662 -0.1499
 1087YOPC   GL114857   6.853  11.073   6.331  0.2647  0.0052 -0.1036
 1087YOPC   GL214858   7.107  10.915   6.304  0.1386  0.0031 -0.0128
 1087YOPC   C1A14859   6.795  11.015   6.788 -0.1256 -0.0602  0.3014
 1087YOPC   D2A14860   7.093  11.045   7.249 -0.1088 -0.1614  0.1807
 1087YOPC   C3A14861   6.897  11.280   7.555 -0.2194  0.1317  0.2224
 1087YOPC   C4A14862   6.735  11.372   7.886  0.0370 -0.1026 -0.1507
 1087YOPC   C1B14863   7.276  10.881   6.784 -0.1200  0.1008 -0.0833
 1087YOPC   C2B14864   7.595  10.948   7.057 -0.1526 -0.2211  0.2201
 1087YOPC   D3B14865   7.835  10.596   7.280  0.0495 -0.0361 -0.2835
 1087YOPC   C4B14866   7.924  10.423   7.572 -0.1010 -0.0979 -0.2635
 1088YOPC   NC314867   8.865   1.470   4.641  0.1410 -0.0209  0.0344
 1088YOPC   PO414868   8.779   1.789   4.868  0.1942  0.1011  0.0191
 1088YOPC   GL114869   8.649   1.929   5.282  0.0014 -0.0457 -0.5314
 1088YOPC   GL214870   8.694   2.269   5.378 -0.2352 -0.0927  0.1598
 1088YOPC   C1A14871   8.479   1.893   5.698  0.0392  0.1326  0.1096
 1088YOPC   D2A14872   8.389   1.717   6.122 -0.1254 -0.0663 -0.0942
 1088YOPC   C3A14873   8.331   1.867   6.560 -0.0633  0.2005  0.0471
 1088YOPC   C4A14874   8.597   1.831   6.923 -0.2760 -0.0015  0.1132
 1088YOPC   C1B14875   8.518   2.416   5.784  0.2086 -0.2948 -0.1810
 1088YOPC   C2B14876   8.612   2.323   6.194  0.2802  0.1375  0.3692
 1088YOPC   D3B14877   8.987   2.183   6.344 -0.0191  0.1608 -0.0534
 1088YOPC   C4B14878   9.425   2.161   6.678 -0.3028 -0.0909  0.2259
 1089YOPC   NC314879  18.802   5.940   5.268 -0.1234  0.3494  0.3334
 1089YOPC   PO414880  19.220   6.038   5.361 -0.0239  0.1929  0.0202
 1089YOPC   GL114881  19.532   5.870   5.740  0.0063 -0.0621 -0.0847
 1089YOPC   GL214882  19.404   5.551   5.709 -0.3288 -0.1339  0.1725
 1089YOPC   C1A14883  19.577   6.027   6.171  0.1039 -0.1827  0.2752
 1089YOPC   D2A14884  19.452   6.156   6.597 -0.0029  0.1073 -0.1494
 1089YOPC   C3A14885  19.036   6.177   6.780 -0.4369  0.0856 -0.2097
 1089YOPC   C4A14886  18.922   6.097   7.102 -0.3811  0.0443 -0.4174
 1089YOPC   C1B14887  19.752   5.461   5.993 -0.2305 -0.1919  0.3076
 1089YOPC   C2B14888  19.822   4.957   6.211 -0.0611 -0.4837 -0.2719
 1089YOPC   D3B14889  19.748   5.084   6.600  0.1481  0.2794  0.3174
 1089YOPC   C4B14890  19.605   4.849   7.044  0.2878 -0.4314 -0.0942
 1090YOPC   NC314891   2.148   6.128   4.954  0.1455  0.0063 -0.0140
 1090YOPC   PO414892   2.124   6.024   5.436  0.0466  0.3821  0.1466
 1090YOPC   GL114893   2.194   6.182   5.805 -0.2051  0.4352 -0.2955
 1090YOPC   GL214894   2.280   6.002   6.008 -0.1210  0.0559 -0.2765
 1090YOPC   C1A14895   2.059   6.523   6.051  0.0904 -0.3099  0.3356
 1090YOPC   D2A14896   1.849   6.794   6.418 -0.1197 -0.0803  0.1729
 1090YOPC   C3A14897   1.755   6.580   6.860  0.2458 -0.1186  0.0774
 1090YOPC   C4A14898   1.862   6.570   7.249 -0.1895 -0.0375 -0.0576
 1090YOPC   C1B14899   2.039   5.685   6.248 -0.2208 -0.0278 -0.3645
 1090YOPC   C2B14900   1.812   5.629   6.603  0.2296 -0.0240  0.1320
 1090YOPC   D3B14901   2.136   5.358   6.699  0.0081 -0.0815  0.0272
 1090YOPC   C4B14902   2.351   4.937   6.934 -0.0164 -0.0578  0.3124
 1091YOPC   NC314903  16.730   9.979   5.010  0.3597 -0.0996  0.2280
 1091YOPC   PO414904  16.931   9.632   5.295  0.0147  0.1767  0.3355
 1091YOPC   GL114905  16.849   9.480   5.722 -0.0662  0.1040  0.1299
 1091YOPC   GL214906  17.153   9.361   5.835  0.2636  0.1140 -0.0419
 1091YOPC   C1A14907  16.987   9.061   6.173  0.1918 -0.0971 -0.1804
 1091YOPC   D2A14908  16.906   8.945   6.622  0.0639 -0.0427  0.3747
 1091YOPC   C3A14909  16.641   8.706   6.889  0.3298 -0.3111 -0.2377
 1091YOPC   C4A14910  16.345   8.666   7.195 -0.2584 -0.0855 -0.0910
 1091YOPC   C1B14911  16.931   9.613   6.197  0.0518  0.0644 -0.1072
 1091YOPC   C2B14912  16.633   9.887   6.448  0.0078  0.2095 -0.0739
 1091YOPC   D3B14913  16.555   9.829   6.948  0.1175  0.3111  0.2436
 1091YOPC   C4B14914  16.777   9.773   7.353  0.3588  0.1883  0.3443
 1092YOPC   NC314915   9.727   7.959   4.829 -0.1065  0.2981 -0.0309
 1092YOPC   PO414916  10.053   7.685   5.118  0.1528 -0.2389  0.0423
 1092YOPC   GL114917   9.965   7.547   5.556  0.0357  0.0663  0.0547
 1092YOPC   GL214918  10.051   7.585   5.828  0.0797 -0.0146 -0.0345
 1092YOPC   C1A14919   9.626   7.299   5.839 -0.5808  0.0423 -0.1039
 1092YOPC   D2A14920   9.626   7.531   6.260 -0.3740 -0.0028 -0.0854
 1092YOPC   C3A14921   9.734   7.322   6.714  0.2464 -0.1692  0.3061
 1092YOPC   C4A14922   9.649   7.314   7.115 -0.1258 -0.0411  0.2392
 1092YOPC   C1B14923  10.189   7.420   6.297  0.2152  0.1508 -0.0656
 1092YOPC   C2B14924  10.338   7.302   6.738  0.1594 -0.4789  0.0526
 1092YOPC   D3B14925  10.349   7.055   7.075 -0.3314  0.3313 -0.2777
 1092YOPC   C4B14926  10.563   6.905   7.421  0.0222  0.1287 -0.1660
 1093YOPC   NC314927   7.819   1.967   4.461 -0.1145 -0.2408  0.3131
 1093YOPC   PO414928   7.778   2.081   4.874 -0.0520  0.2290  0.1242
 1093YOPC   GL114929   7.908   2.220   5.271 -0.0807  0.1567  0.1349
 1093YOPC   GL214930   7.646   2.331   5.424  0.0985  0.4375 -0.2684
 1093YOPC   C1A14931   8.058   2.147   5.601 -0.3021 -0.0515 -0.0493
 1093YOPC   D2A14932   8.115   2.272   6.073 -0.0341 -0.2501 -0.1974
 1093YOPC   C3A14933   7.741   2.426   6.299  0.1074 -0.1473  0.1284
 1093YOPC   C4A14934   7.585   2.710   6.480 -0.0109 -0.1916  0.3482
 1093YOPC   C1B14935   7.618   2.201   5.865  0.1012 -0.0795 -0.1648
 1093YOPC   C2B14936   7.336   2.312   6.082  0.0780 -0.0122 -0.0950
 1093YOPC   D3B14937   7.392   2.057   6.398  0.2489  0.0314 -0.1070
 1093YOPC   C4B14938   7.487   2.073   6.793 -0.0706 -0.3607 -0.1611
 1094YOPC   NC314939   1.715   7.701   5.580  0.2992  0.0388 -0.1158
 1094YOPC   PO414940   1.829   7.484   5.365 -0.2918 -0.1279  0.1040
 1094YOPC   GL114941   2.075   7.418   5.727  0.2205 -0.1292  0.0852
 1094YOPC   GL214942   2.159   7.098   5.667 -0.0229  0.2059  0.4250
 1094YOPC   C1A14943   2.119   7.310   6.124  0.0166  0.3095  0.1088
 1094YOPC   D2A14944   1.965   7.386   6.530 -0.0772 -0.0357 -0.2916
 1094YOPC   C3A14945   1.644   7.149   6.639  0.1521  0.1705 -0.0760
 1094YOPC   C4A14946   1.278   7.036   6.899 -0.2608 -0.0669  0.1495
 1094YOPC   C1B14947   1.750   6.953   5.861 -0.1444 -0.3506  0.3661
 1094YOPC   C2B14948   1.537   6.578   5.966 -0.2360 -0.0130  0.0340
 1094YOPC   D3B14949   1.423   6.483   6.407  0.3277  0.2842  0.0935
 1094YOPC   C4B14950   1.179   6.587   6.673 -0.4487 -0.2173 -0.3470
 1095YOPC   NC314951   5.955  14.033   5.417 -0.2526 -0.4706 -0.6276
 1095YOPC   PO414952   6.294  13.690   5.376 -0.2899 -0.1448  0.0814
 1095YOPC   GL114953   5.894  13.496   5.562  0.0090 -0.0042 -0.0450
 1095YOPC   GL214954   5.865  13.240   5.750  0.0248 -0.0360  0.1999
 1095YOPC   C1A14955   5.572  13.597   5.911 -0.0997 -0.1864 -0.0358
 1095YOPC   D2A14956   5.419  13.398   6.262 -0.0132  0.2058  0.0446
 1095YOPC   C3A14957   5.329  13.500   6.635  0.1379 -0.0852 -0.2004
 1095YOPC   C4A14958   5.136  13.542   7.001  0.0075 -0.0417  0.1815
 1095YOPC   C1B14959   6.056  13.440   6.083 -0.1545 -0.0600  0.0232
 1095YOPC   C2B14960   6.356  13.426   6.417  0.0723  0.5633 -0.3064
 1095YOPC   D3B14961   6.360  13.069   6.614 -0.0331 -0.0633  0.1700
 1095YOPC   C4B14962   6.330  12.775   6.998 -0.2168  0.1823 -0.0850
 1096YOPC   NC314963  15.655  18.440   5.719 -0.1729  0.1525 -0.2335
 1096YOPC   PO414964  15.259  18.781   5.763 -0.2528  0.3611 -0.1388
 1096YOPC   GL114965  15.400  18.636   6.271 -0.1565  0.1258  0.3626
 1096YOPC   GL214966  15.686  18.836   6.104  0.3906  0.1165  0.1722
 1096YOPC   C1A14967  15.459  18.803   6.624 -0.1645  0.2144  0.0578
 1096YOPC   D2A14968  15.222  18.800   6.944  0.0672 -0.3053  0.0376
 1096YOPC   C3A14969  14.901  18.346   6.769  0.1272 -0.2195 -0.1867
 1096YOPC   C4A14970  14.888  18.088   6.506  0.1559  0.2142  0.1379
 1096YOPC   C1B14971  15.903  19.087   6.389  0.3120  0.1225 -0.1886
 1096YOPC   C2B14972  15.893  19.448   6.640 -0.0475  0.0756 -0.1898
 1096YOPC   D3B14973  16.085  19.508   7.009  0.1751  0.0781  0.1769
 1096YOPC   C4B14974  16.087  19.670   7.374 -0.0675 -0.1093  0.4059
 1097YOPC   NC314975   8.626   6.101   5.062 -0.1650  0.0073 -0.1161
 1097YOPC   PO414976   8.791   5.837   5.290 -0.0514 -0.1172  0.3913
 1097YOPC   GL114977   8.867   5.775   5.833 -0.1966 -0.1216  0.1406
 1097YOPC   GL214978   8.789   5.778   6.102  0.0233 -0.2171 -0.4742
 1097YOPC   C1A14979   9.322   5.820   6.058 -0.5930  0.2073 -0.1591
 1097YOPC   D2A14980   9.534   5.506   6.199  0.1080  0.0838  0.1485
 1097YOPC   C3A14981   9.542   5.436   6.696 -0.1975  0.4944 -0.0886
 1097YOPC   C4A14982   9.300   5.432   7.042  0.2598 -0.0846 -0.2650
 1097YOPC   C1B14983   8.759   5.322   6.323 -0.2053 -0.2650 -0.3255
 1097YOPC   C2B14984   8.840   5.152   6.699 -0.1073  0.4648 -0.2015
 1097YOPC   D3B14985   8.594   5.130   7.058  0.1793 -0.0995  0.1715
 1097YOPC   C4B14986   8.597   5.099   7.434 -0.0919 -0.4072 -0.0095
 1098YOPC   NC314987  16.355   7.294   5.366  0.3004  0.2635  0.0186
 1098YOPC   PO414988  16.765   7.505   5.464 -0.0574 -0.0159 -0.0647
 1098YOPC   GL114989  16.918   7.361   5.851  0.1114  0.1928 -0.1189
 1098YOPC   GL214990  17.137   7.619   6.117  0.3179  0.0300 -0.0868
 1098YOPC   C1A14991  16.691   7.315   6.267  0.1092 -0.1188  0.0368
 1098YOPC   D2A14992  16.411   7.433   6.590 -0.3739 -0.1481  0.0171
 1098YOPC   C3A14993  16.087   7.070   6.593 -0.1730 -0.2836 -0.1683
 1098YOPC   C4A14994  15.946   6.727   6.479 -0.0273 -0.0657 -0.1372
 1098YOPC   C1B14995  17.036   7.493   6.534 -0.1842 -0.2455  0.0825
 1098YOPC   C2B14996  16.817   7.158   6.706  0.0617 -0.1932  0.1488
 1098YOPC   D3B14997  17.000   6.858   7.006 -0.1680  0.0405  0.3631
 1098YOPC   C4B14998  17.099   6.703   7.386  0.1188 -0.0512  0.2411
 1099YOPC   NC314999  13.800   5.955   5.230 -0.1293  0.1603  0.0770
 1099YOPC   PO415000  13.711   5.499   5.313  0.2059  0.0485 -0.0115
 1099YOPC   GL115001  13.704   5.619   5.695  0.0384 -0.3110  0.1973
 1099YOPC   GL215002  13.448   5.391   5.729  0.0816 -0.5005 -0.0111
 1099YOPC   C1A15003  13.966   5.617   6.033  0.0901  0.1635  0.2954
 1099YOPC   D2A15004  14.383   5.630   6.247  0.0092 -0.1109 -0.1522
 1099YOPC   C3A15005  14.509   5.946   6.458  0.0782  0.1754 -0.2493
 1099YOPC   C4A15006  14.237   6.023   6.722  0.0282 -0.2726  0.2432
 1099YOPC   C1B15007  13.186   5.353   6.051  0.1466 -0.2652 -0.0347
 1099YOPC   C2B15008  13.238   5.404   6.489  0.2376 -0.5729  0.0758
 1099YOPC   D3B15009  13.455   5.742   6.705 -0.1015 -0.0354 -0.1614
 1099YOPC   C4B15010  13.992   5.623   6.565 -0.1117  0.3016  0.4857
 1100YOPC   NC315011  10.569   4.743   5.295  0.0924  0.2496 -0.1622
 1100YOPC   PO415012  10.794   5.152   5.252 -0.2447  0.0636 -0.0817
 1100YOPC   GL115013  10.767   5.206   5.738  0.0534  0.0249 -0.1640
 1100YOPC   GL215014  10.674   4.925   5.764  0.4547 -0.2856  0.0044
 1100YOPC   C1A15015  10.597   5.583   5.960 -0.0848 -0.0239  0.0078
 1100YOPC   D2A15016  10.355   5.943   6.120  0.0438 -0.4856  0.0379
 1100YOPC   C3A15017  10.235   6.064   6.599 -0.0598  0.1131  0.1782
 1100YOPC   C4A15018  10.123   6.112   7.038  0.1189 -0.1107 -0.4083
 1100YOPC   C1B15019  10.848   5.117   6.170 -0.0389 -0.1139  0.1885
 1100YOPC   C2B15020  11.040   5.451   6.253  0.2806  0.1958 -0.4901
 1100YOPC   D3B15021  11.061   5.538   6.734 -0.0153  0.1554  0.2923
 1100YOPC   C4B15022  10.859   5.537   7.079  0.0425 -0.0163  0.0625
 1101YOPC   NC315023  14.957  10.809   5.421  0.3650  0.0921 -0.0062
 1101YOPC   PO415024  14.797  10.425   5.746  0.1646  0.2881  0.0918
 1101YOPC   GL115025  15.115  10.703   5.906  0.4063 -0.0353  0.0949
 1101YOPC   GL215026  15.230  10.588   6.207 -0.3643 -0.2027 -0.2484
 1101YOPC   C1A15027  15.506  10.999   6.125 -0.0374 -0.1189  0.1869
 1101YOPC   D2A15028  15.584  11.352   6.106 -0.1598  0.2779 -0.2075
 1101YOPC   C3A15029  15.585  11.579   6.424 -0.0473  0.1162  0.1841
 1101YOPC   C4A15030  16.007  11.624   6.617 -0.0246  0.0635  0.4910
 1101YOPC   C1B15031  14.966  10.453   6.530  0.0194 -0.0033 -0.0178
 1101YOPC   C2B15032  14.934  10.318   6.955  0.2642 -0.0925  0.1545
 1101YOPC   D3B15033  14.406  10.517   7.086 -0.4223  0.0456 -0.5859
 1101YOPC   C4B15034  13.886  10.555   6.908  0.1512  0.0032  0.1966
 1102YOPC   NC315035  17.764   5.220   5.122  0.0038 -0.1524  0.0932
 1102YOPC   PO415036  17.767   4.754   5.370 -0.0560 -0.0392 -0.0952
 1102YOPC   GL115037  17.820   4.567   5.757  0.1446  0.0412  0.0730
 1102YOPC   GL215038  17.601   4.673   5.904 -0.2645  0.1543  0.1304
 1102YOPC   C1A15039  17.930   4.652   6.293 -0.1765 -0.3160  0.2193
 1102YOPC   D2A15040  18.136   4.496   6.666 -0.0375 -0.1492  0.5876
 1102YOPC   C3A15041  18.310   4.094   6.663 -0.3205  0.0370 -0.1345
 1102YOPC   C4A15042  18.719   3.850   6.476  0.0588  0.1706 -0.0916
 1102YOPC   C1B15043  17.475   4.477   6.315  0.2734 -0.0978 -0.0206
 1102YOPC   C2B15044  17.635   4.478   6.692 -0.2391  0.2073  0.0248
 1102YOPC   D3B15045  17.690   4.801   6.945  0.1743  0.0050 -0.1310
 1102YOPC   C4B15046  17.788   5.107   7.252 -0.1384  0.1210 -0.0797
 1103YOPC   NC315047  11.822   7.918   5.680  0.2591  0.1553  0.0390
 1103YOPC   PO415048  12.026   8.200   5.492  0.2106  0.1123 -0.0718
 1103YOPC   GL115049  12.307   8.093   5.903  0.1786 -0.3447  0.3537
 1103YOPC   GL215050  12.301   7.752   5.862  0.1880  0.1202 -0.1223
 1103YOPC   C1A15051  12.151   7.912   6.264 -0.3712  0.2424 -0.2083
 1103YOPC   D2A15052  12.119   7.775   6.691 -0.0554  0.0313  0.0392
 1103YOPC   C3A15053  12.487   7.613   6.755  0.2196  0.1881 -0.1925
 1103YOPC   C4A15054  12.912   7.580   6.999  0.0939 -0.0922  0.0909
 1103YOPC   C1B15055  12.289   7.451   6.309  0.0418 -0.1589 -0.3830
 1103YOPC   C2B15056  12.354   7.169   6.643  0.1051  0.1029 -0.0223
 1103YOPC   D3B15057  12.205   7.272   7.007  0.1863 -0.1708 -0.0269
 1103YOPC   C4B15058  12.477   7.265   7.348  0.0685  0.0995 -0.1400
 1104YOPC   NC315059  17.878   6.851   5.118  0.1955  0.2200 -0.2432
 1104YOPC   PO415060  17.709   6.630   5.449  0.2165  0.1009 -0.1964
 1104YOPC   GL115061  17.856   6.617   5.801  0.1114  0.2011 -0.1245
 1104YOPC   GL215062  17.604   6.708   6.020  0.2061 -0.1502 -0.2856
 1104YOPC   C1A15063  17.802   6.223   6.019  0.1271 -0.0387 -0.1631
 1104YOPC   D2A15064  17.666   6.059   6.421  0.0340 -0.1945  0.0420
 1104YOPC   C3A15065  17.262   6.055   6.541  0.2298  0.2674 -0.1598
 1104YOPC   C4A15066  17.040   6.004   6.874 -0.0791 -0.0754  0.0435
 1104YOPC   C1B15067  17.557   6.599   6.504  0.1507 -0.2218  0.0551
 1104YOPC   C2B15068  17.376   6.434   6.922 -0.0892  0.0736 -0.0325
 1104YOPC   D3B15069  17.219   6.235   7.310 -0.1527 -0.0348 -0.0694
 1104YOPC   C4B15070  17.249   6.342   7.779 -0.2447  0.1783  0.1818
 1105YOPC   NC315071   2.219  14.690   4.744  0.2911 -0.0538  0.2060
 1105YOPC   PO415072   2.183  14.837   5.194 -0.0453  0.0550 -0.2336
 1105YOPC   GL115073   2.224  14.512   5.595 -0.0689 -0.2556 -0.1621
 1105YOPC   GL215074   2.484  14.390   5.818 -0.3035 -0.1732  0.3024
 1105YOPC   C1A15075   2.033  14.271   5.932 -0.3126 -0.2277 -0.3175
 1105YOPC   D2A15076   2.183  14.109   6.328 -0.3731 -0.0393 -0.2645
 1105YOPC   C3A15077   2.531  14.327   6.634 -0.0107 -0.1225 -0.3379
 1105YOPC   C4A15078   2.711  14.265   6.972  0.0554  0.3492  0.0774
 1105YOPC   C1B15079   2.571  14.443   6.166 -0.0275  0.1729  0.0561
 1105YOPC   C2B15080   3.004  14.435   6.380 -0.0391  0.2881  0.0028
 1105YOPC   D3B15081   3.118  14.426   6.778  0.0651 -0.2862  0.1628
 1105YOPC   C4B15082   3.557  14.678   6.839 -0.0524  0.2774 -0.1401
 1106YOPC   NC315083  18.260   8.524   5.305  0.1591  0.0920 -0.1052
 1106YOPC   PO415084  18.166   8.520   5.681 -0.3395  0.1876 -0.0457
 1106YOPC   GL115085  17.976   8.267   6.038 -0.2040  0.0742  0.0083
 1106YOPC   GL215086  17.676   8.018   5.993 -0.1001  0.0146 -0.2958
 1106YOPC   C1A15087  17.969   7.946   6.377  0.1598 -0.0705  0.0661
 1106YOPC   D2A15088  17.637   8.010   6.741  0.1085  0.0575  0.3848
 1106YOPC   C3A15089  17.765   8.410   6.879  0.4941 -0.0402 -0.0250
 1106YOPC   C4A15090  17.719   8.807   6.815  0.1202  0.0715  0.0798
 1106YOPC   C1B15091  17.465   7.797   6.374  0.3737  0.0590 -0.2421
 1106YOPC   C2B15092  17.155   8.034   6.666  0.0097  0.0917  0.3157
 1106YOPC   D3B15093  17.203   7.940   7.066 -0.0136 -0.2722  0.1943
 1106YOPC   C4B15094  17.150   7.796   7.467 -0.2311 -0.1638  0.1418
 1107YOPC   NC315095  16.454   2.801   4.862 -0.0378  0.2826  0.3736
 1107YOPC   PO415096  16.670   3.064   5.009 -0.2013 -0.0035  0.1720
 1107YOPC   GL115097  16.906   3.277   5.321 -0.2089  0.1969  0.0363
 1107YOPC   GL215098  17.145   3.282   5.413  0.0610  0.1885  0.3642
 1107YOPC   C1A15099  16.659   3.315   5.694  0.1892 -0.0882  0.1008
 1107YOPC   D2A15100  16.424   3.330   6.067  0.2239 -0.0089 -0.0526
 1107YOPC   C3A15101  16.356   3.123   6.422 -0.2020 -0.2533  0.2300
 1107YOPC   C4A15102  16.280   2.740   6.523 -0.3432 -0.0464 -0.0750
 1107YOPC   C1B15103  17.595   3.295   5.673  0.0395 -0.1302 -0.1677
 1107YOPC   C2B15104  17.899   3.498   6.022  0.2416  0.0156  0.4242
 1107YOPC   D3B15105  17.932   3.558   6.481  0.1479 -0.3016  0.3579
 1107YOPC   C4B15106  18.242   3.630   6.850 -0.0918 -0.0135 -0.0610
 1108YOPC   NC315107   1.912   4.438   5.225  0.2134 -0.0471  0.0603
 1108YOPC   PO415108   1.915   4.859   5.222 -0.3247 -0.0635  0.1065
 1108YOPC   GL115109   2.077   4.868   5.594  0.0827  0.0068  0.2390
 1108YOPC   GL215110   2.030   4.629   5.653 -0.0415 -0.2397  0.1214
 1108YOPC   C1A15111   2.391   4.952   5.910  0.1003 -0.1971  0.1445
 1108YOPC   D2A15112   2.660   4.662   6.237 -0.1351 -0.0521 -0.0268
 1108YOPC   C3A15113   2.769   4.912   6.654 -0.1234 -0.2050  0.1576
 1108YOPC   C4A15114   3.166   5.218   6.767 -0.0233 -0.2428  0.1774
 1108YOPC   C1B15115   2.077   4.517   6.019 -0.3148  0.0477  0.1749
 1108YOPC   C2B15116   1.944   4.224   6.316  0.1130  0.0166  0.0388
 1108YOPC   D3B15117   2.115   3.972   6.659 -0.2714  0.3124  0.1766
 1108YOPC   C4B15118   2.320   3.634   6.789  0.2488 -0.2080  0.1922
 1109YOPC   NC315119  17.539   4.337   5.342 -0.0627  0.1234 -0.1206
 1109YOPC   PO415120  17.736   3.995   5.216  0.1479 -0.0279 -0.0374
 1109YOPC   GL115121  17.711   3.843   5.596 -0.0663  0.0078  0.1521
 1109YOPC   GL215122  17.419   3.755   5.568  0.0385  0.1625 -0.1673
 1109YOPC   C1A15123  17.449   3.619   6.039 -0.0221  0.1573 -0.0778
 1109YOPC   D2A15124  17.417   3.490   6.447 -0.3385  0.1289 -0.0105
 1109YOPC   C3A15125  17.519   3.485   6.842 -0.2103  0.1060 -0.4608
 1109YOPC   C4A15126  17.770   3.242   7.078 -0.1368 -0.0563  0.0412
 1109YOPC   C1B15127  17.043   3.707   5.825 -0.3564  0.1102 -0.1561
 1109YOPC   C2B15128  16.860   3.613   6.171  0.1853 -0.3982  0.3263
 1109YOPC   D3B15129  16.972   3.698   6.571 -0.1332  0.0371  0.2371
 1109YOPC   C4B15130  16.775   4.013   6.841  0.2870  0.0526  0.4450
 1110YOPC   NC315131   5.356   5.596   5.241  0.3384  0.1553 -0.3419
 1110YOPC   PO415132   4.922   5.535   5.241 -0.0198  0.1073 -0.1059
 1110YOPC   GL115133   5.007   5.536   5.641 -0.1625 -0.1325 -0.1392
 1110YOPC   GL215134   5.408   5.520   5.764 -0.3992 -0.0100 -0.2316
 1110YOPC   C1A15135   4.643   5.538   5.888  0.0663  0.1136  0.2454
 1110YOPC   D2A15136   4.370   5.842   6.014 -0.0005 -0.4359 -0.1974
 1110YOPC   C3A15137   4.131   6.063   6.393  0.0487 -0.0381 -0.0104
 1110YOPC   C4A15138   4.009   5.943   6.866 -0.0617 -0.0428  0.2427
 1110YOPC   C1B15139   5.157   5.735   6.071 -0.4801  0.0981 -0.1490
 1110YOPC   C2B15140   4.849   5.731   6.326 -0.4622 -0.0869  0.0446
 1110YOPC   D3B15141   4.894   5.649   6.799  0.3271 -0.0086 -0.3463
 1110YOPC   C4B15142   4.974   5.553   7.270 -0.1552 -0.2647  0.0506
 1111YOPC   NC315143   3.239   4.937   5.079 -0.1963  0.2250  0.1979
 1111YOPC   PO415144   2.765   5.102   5.098 -0.2347 -0.0648 -0.3887
 1111YOPC   GL115145   2.785   5.110   5.625 -0.0570  0.2316  0.2017
 1111YOPC   GL215146   2.672   5.410   5.620  0.0187 -0.0665 -0.0325
 1111YOPC   C1A15147   2.852   5.240   6.076  0.1032  0.1137  0.1304
 1111YOPC   D2A15148   2.935   5.548   6.459 -0.2316  0.0152 -0.1476
 1111YOPC   C3A15149   2.915   5.963   6.695  0.3468 -0.4352  0.1858
 1111YOPC   C4A15150   2.651   6.038   7.002  0.1646  0.0726  0.1223
 1111YOPC   C1B15151   2.256   5.448   5.817 -0.0478 -0.0006 -0.1472
 1111YOPC   C2B15152   1.828   5.505   5.879  0.2151  0.2494 -0.0015
 1111YOPC   D3B15153   1.493   5.684   6.224  0.1952  0.0677 -0.2122
 1111YOPC   C4B15154   1.319   5.540   6.575  0.2151 -0.0260 -0.1781
 1112YOPC   NC315155   6.273   5.792   5.389  0.0942  0.1447  0.1730
 1112YOPC   PO415156   6.538   6.086   5.563  0.3002 -0.0659  0.1961
 1112YOPC   GL115157   6.686   6.007   5.945 -0.1667  0.1196  0.0273
 1112YOPC   GL215158   6.722   5.771   5.986 -0.0488 -0.0408  0.1218
 1112YOPC   C1A15159   7.036   6.132   6.311 -0.1242  0.1624 -0.0314
 1112YOPC   D2A15160   7.057   5.893   6.762  0.1945 -0.1026  0.2678
 1112YOPC   C3A15161   6.800   6.136   7.005  0.1141  0.0505  0.1209
 1112YOPC   C4A15162   6.775   6.237   7.453  0.1622  0.0402  0.2507
 1112YOPC   C1B15163   6.699   5.540   6.293 -0.1952 -0.0073 -0.2783
 1112YOPC   C2B15164   6.679   5.464   6.761 -0.3223 -0.2690  0.0604
 1112YOPC   D3B15165   6.394   5.240   6.871  0.0241  0.0359  0.1025
 1112YOPC   C4B15166   6.246   5.062   7.237 -0.0652  0.0720  0.0808
 1113YOPC   NC315167   8.815  16.541   5.449  0.0144  0.0038 -0.2332
 1113YOPC   PO415168   9.173  16.488   5.243  0.1631 -0.0335 -0.0594
 1113YOPC   GL115169   9.244  16.423   5.721  0.2202  0.0278  0.1529
 1113YOPC   GL215170   9.391  16.173   5.848  0.0549  0.0496  0.4130
 1113YOPC   C1A15171   9.244  16.705   6.022  0.2646  0.1526  0.0473
 1113YOPC   D2A15172   9.039  16.903   6.405  0.1123 -0.0515 -0.0256
 1113YOPC   C3A15173   8.953  16.804   6.814  0.2865 -0.1451 -0.2759
 1113YOPC   C4A15174   9.164  16.830   7.220 -0.1353 -0.1489 -0.0474
 1113YOPC   C1B15175   8.957  16.131   5.959 -0.2530  0.1700 -0.0550
 1113YOPC   C2B15176   8.677  15.974   6.134 -0.0268  0.1582 -0.2468
 1113YOPC   D3B15177   8.447  16.128   6.471  0.3834 -0.0734 -0.0526
 1113YOPC   C4B15178   8.447  16.386   6.876 -0.0036  0.0284  0.0494
 1114YOPC   NC315179  18.943  17.532   5.463 -0.0127 -0.1140  0.0682
 1114YOPC   PO415180  19.303  17.419   5.866 -0.0944 -0.1601  0.2593
 1114YOPC   GL115181  19.477  17.000   6.173 -0.1101 -0.2422 -0.2267
 1114YOPC   GL215182  19.212  16.744   6.168 -0.0900 -0.1661 -0.0497
 1114YOPC   C1A15183  19.729  17.009   6.515  0.0894 -0.0357  0.0523
 1114YOPC   D2A15184  20.078  16.745   6.562 -0.0912  0.3664 -0.1886
 1114YOPC   C3A15185  20.379  16.613   6.893 -0.1774  0.2181 -0.2332
 1114YOPC   C4A15186  20.410  16.624   7.431 -0.2346 -0.0297 -0.2338
 1114YOPC   C1B15187  19.324  16.796   6.703 -0.1144  0.0110  0.4211
 1114YOPC   C2B15188  19.677  16.753   7.012 -0.1007  0.0871 -0.1817
 1114YOPC   D3B15189  19.632  16.278   7.222 -0.0939  0.2432 -0.2229
 1114YOPC   C4B15190  19.517  15.919   7.618 -0.1592 -0.1330 -0.2497
 1115YOPC   NC315191  12.067  12.816   5.034 -0.2397  0.3758  0.1049
 1115YOPC   PO415192  11.847  12.891   5.359 -0.4147  0.1177  0.3535
 1115YOPC   GL115193  11.819  13.027   5.855  0.2242 -0.4593  0.0407
 1115YOPC   GL215194  12.043  12.746   5.982 -0.1210 -0.0575 -0.1075
 1115YOPC   C1A15195  11.621  13.192   6.145  0.0028 -0.0081  0.0272
 1115YOPC   D2A15196  11.524  13.397   6.504  0.0975 -0.1711 -0.1881
 1115YOPC   C3A15197  11.064  13.398   6.539  0.0184 -0.1612 -0.4201
 1115YOPC   C4A15198  10.720  13.792   6.494  0.1205 -0.2426 -0.2193
 1115YOPC   C1B15199  11.954  12.795   6.392  0.3702  0.0258  0.2596
 1115YOPC   C2B15200  11.824  12.903   6.841 -0.3088  0.0202  0.1161
 1115YOPC   D3B15201  12.131  13.193   6.922 -0.1312 -0.0417 -0.0462
 1115YOPC   C4B15202  12.648  13.234   6.965 -0.0801  0.0302  0.0251
 1116YOPC   NC315203  10.022  17.653   5.628  0.1436  0.1410 -0.1417
 1116YOPC   PO415204  10.377  17.907   5.718  0.4365  0.0838  0.2281
 1116YOPC   GL115205  10.544  18.288   5.941 -0.0540 -0.2911  0.0520
 1116YOPC   GL215206  10.792  18.169   6.016  0.2728 -0.2480 -0.1642
 1116YOPC   C1A15207  10.599  18.487   6.337  0.1513  0.0035  0.1212
 1116YOPC   D2A15208  10.744  18.584   6.676  0.2079  0.2774 -0.1477
 1116YOPC   C3A15209  10.984  18.333   6.950 -0.2091 -0.5024  0.0184
 1116YOPC   C4A15210  11.482  18.256   6.870  0.4110  0.2503  0.3534
 1116YOPC   C1B15211  11.029  18.204   6.370  0.0992  0.2335 -0.1357
 1116YOPC   C2B15212  11.170  17.862   6.654  0.1891  0.0303 -0.3095
 1116YOPC   D3B15213  11.053  17.845   7.052 -0.0373  0.0789  0.2562
 1116YOPC   C4B15214  11.015  17.902   7.554  0.0619  0.1532  0.0982
 1117YOPC   NC315215  13.827   9.672   5.276 -0.1786  0.2785  0.0016
 1117YOPC   PO415216  13.494   9.655   5.600 -0.0940 -0.1334 -0.0778
 1117YOPC   GL115217  13.379   9.920   6.046  0.1765  0.1136 -0.1428
 1117YOPC   GL215218  13.645  10.105   6.149 -0.0456  0.2596  0.3008
 1117YOPC   C1A15219  13.200   9.872   6.516  0.1838  0.0272  0.4347
 1117YOPC   D2A15220  12.838   9.890   6.875 -0.2702  0.3129  0.0713
 1117YOPC   C3A15221  12.773   9.577   6.996 -0.0278  0.0980 -0.3495
 1117YOPC   C4A15222  12.708   9.163   6.821  0.3487  0.5336 -0.1567
 1117YOPC   C1B15223  13.615  10.186   6.626  0.1113  0.0165 -0.4462
 1117YOPC   C2B15224  13.459  10.300   7.074 -0.1158 -0.4463 -0.4227
 1117YOPC   D3B15225  13.541  10.578   7.345  0.1582  0.0491  0.0722
 1117YOPC   C4B15226  13.474  10.967   7.656  0.4267  0.0584  0.1320
 1118YOPC   NC315227   2.287   3.676   5.136  0.2197  0.3067  0.3338
 1118YOPC   PO415228   2.305   4.154   5.217  0.4061  0.1778 -0.1648
 1118YOPC   GL115229   2.712   3.950   5.355  0.2141  0.1374 -0.3277
 1118YOPC   GL215230   2.514   3.822   5.612 -0.3224  0.1806  0.0049
 1118YOPC   C1A15231   2.961   4.126   5.689  0.0522 -0.0351  0.1092
 1118YOPC   D2A15232   3.020   4.215   6.112 -0.3203 -0.0817 -0.0993
 1118YOPC   C3A15233   2.752   4.207   6.514 -0.1993  0.0115  0.1346
 1118YOPC   C4A15234   2.391   4.388   6.693 -0.0776 -0.1421 -0.0522
 1118YOPC   C1B15235   2.217   3.694   5.971 -0.0297  0.1621 -0.1210
 1118YOPC   C2B15236   2.183   3.429   6.381 -0.0078 -0.3703 -0.0901
 1118YOPC   D3B15237   2.373   3.057   6.279 -0.1398 -0.0039 -0.0433
 1118YOPC   C4B15238   2.598   2.763   6.273  0.1327 -0.0177  0.2346
 1119YOPC   NC315239  11.829  17.690   5.372  0.2833 -0.4756  0.1149
 1119YOPC   PO415240  11.618  17.348   5.505  0.2849 -0.0792  0.1077
 1119YOPC   GL115241  11.644  17.059   5.861 -0.1370 -0.2534  0.3055
 1119YOPC   GL215242  11.891  16.961   5.982 -0.1921  0.2197 -0.3484
 1119YOPC   C1A15243  11.481  16.861   6.273  0.2109 -0.1598  0.3475
 1119YOPC   D2A15244  11.511  16.771   6.794  0.2830 -0.2881 -0.0437
 1119YOPC   C3A15245  11.269  16.847   7.138  0.2014 -0.2706  0.1896
 1119YOPC   C4A15246  10.925  16.948   7.473 -0.0375  0.0662 -0.3133
 1119YOPC   C1B15247  11.993  16.960   6.514  0.0732  0.0202 -0.3150
 1119YOPC   C2B15248  11.931  16.996   6.993 -0.2587  0.2261  0.1887
 1119YOPC   D3B15249  11.748  16.914   7.223 -0.0831  0.1880  0.0479
 1119YOPC   C4B15250  11.454  17.020   7.594  0.3709  0.0461  0.0373
 1120YOPC   NC315251  10.863  17.883   5.547  0.1390  0.1604 -0.2851
 1120YOPC   PO415252  11.233  18.145   5.716 -0.1495  0.1030 -0.0424
 1120YOPC   GL115253  11.583  18.410   5.974  0.0014  0.0905  0.2136
 1120YOPC   GL215254  11.615  18.758   5.903 -0.2047  0.1992 -0.1157
 1120YOPC   C1A15255  11.725  18.417   6.421  0.1562  0.0309 -0.2838
 1120YOPC   D2A15256  11.765  18.760   6.580 -0.0300 -0.1594 -0.2307
 1120YOPC   C3A15257  11.736  18.651   6.958 -0.3885 -0.1761 -0.1390
 1120YOPC   C4A15258  11.644  18.708   7.434 -0.0675  0.1989 -0.0812
 1120YOPC   C1B15259  11.617  19.055   6.217  0.1600 -0.3270 -0.4365
 1120YOPC   C2B15260  11.361  19.118   6.507  0.2762  0.5413  0.2721
 1120YOPC   D3B15261  11.195  19.325   6.889 -0.2062 -0.1010  0.1075
 1120YOPC   C4B15262  11.267  19.512   7.350  0.0612  0.0800 -0.1564
 1121YOPC   NC315263   1.756  15.132   5.152 -0.0642  0.2206 -0.0134
 1121YOPC   PO415264   1.262  15.315   5.335 -0.0811  0.1081  0.4172
 1121YOPC   GL115265   1.235  15.193   5.856 -0.2384  0.1438 -0.1173
 1121YOPC   GL215266   1.602  15.226   5.845 -0.2875 -0.2979 -0.0799
 1121YOPC   C1A15267   1.089  15.295   6.309  0.3415 -0.1567 -0.2388
 1121YOPC   D2A15268   0.814  15.464   6.697  0.0255 -0.0808  0.0783
 1121YOPC   C3A15269   0.933  15.343   7.070 -0.0033 -0.0066  0.2675
 1121YOPC   C4A15270   1.236  15.214   7.362 -0.1742  0.3447 -0.3255
 1121YOPC   C1B15271   2.037  15.425   6.079 -0.2110 -0.0729 -0.0217
 1121YOPC   C2B15272   1.992  15.713   6.303  0.4704  0.0730 -0.0788
 1121YOPC   D3B15273   1.779  15.856   6.670 -0.0751 -0.2908  0.1798
 1121YOPC   C4B15274   1.955  16.069   7.038 -0.0158 -0.0631 -0.1838
 1122YOPC   NC315275   5.559  11.872   5.583 -0.0282  0.0278  0.0703
 1122YOPC   PO415276   5.169  11.683   5.730 -0.1219 -0.1050 -0.1567
 1122YOPC   GL115277   5.317  11.437   6.103 -0.1256 -0.1042  0.6398
 1122YOPC   GL215278   5.271  10.996   6.068  0.1771 -0.0720  0.2257
 1122YOPC   C1A15279   5.574  11.538   6.434 -0.0594  0.4319 -0.1732
 1122YOPC   D2A15280   5.510  11.387   6.931  0.1826  0.2543 -0.2487
 1122YOPC   C3A15281   5.457  11.154   7.322 -0.0306 -0.0957 -0.1204
 1122YOPC   C4A15282   5.692  10.980   7.698 -0.1155 -0.2375 -0.0552
 1122YOPC   C1B15283   4.911  10.839   6.373  0.1874  0.2179 -0.0629
 1122YOPC   C2B15284   4.720  10.926   6.686 -0.0208  0.0089  0.2849
 1122YOPC   D3B15285   4.861  11.229   6.986  0.2517 -0.2445 -0.2119
 1122YOPC   C4B15286   4.781  11.436   7.333 -0.0136 -0.1299 -0.1071
 1123YOPC   NC315287  11.773   8.674   5.411 -0.1342  0.1630 -0.2739
 1123YOPC   PO415288  11.982   9.027   5.637 -0.2641 -0.0580  0.1388
 1123YOPC   GL115289  11.960   9.091   6.050 -0.0586 -0.0156 -0.2142
 1123YOPC   GL215290  11.960   8.747   6.159  0.1666 -0.1658  0.0536
 1123YOPC   C1A15291  12.013   9.227   6.419  0.0104  0.1376  0.0744
 1123YOPC   D2A15292  12.147   9.340   6.754  0.0538 -0.2333 -0.1034
 1123YOPC   C3A15293  12.322   9.732   6.790  0.0685 -0.0044 -0.0899
 1123YOPC   C4A15294  12.428   9.876   7.254  0.3396 -0.2422 -0.2268
 1123YOPC   C1B15295  11.664   8.816   6.539  0.1311  0.0366  0.0051
 1123YOPC   C2B15296  11.545   9.244   6.550 -0.4179  0.0355 -0.0309
 1123YOPC   D3B15297  11.164   9.445   6.552  0.2131  0.0405 -0.1389
 1123YOPC   C4B15298  10.794   9.504   6.284  0.4044 -0.0998  0.1023
 1124YOPC   NC315299   1.046   4.014   5.055 -0.2409  0.0441  0.0478
 1124YOPC   PO415300   0.651   4.210   5.203  0.0902 -0.4769 -0.2077
 1124YOPC   GL115301   0.544   4.076   5.760  0.2090  0.1109  0.0097
 1124YOPC   GL215302   0.255   3.995   5.618 -0.1305 -0.1162 -0.1313
 1124YOPC   C1A15303   0.529   3.969   6.195 -0.3219  0.0748 -0.3130
 1124YOPC   D2A15304   0.250   3.635   6.423  0.2959 -0.0091 -0.0073
 1124YOPC   C3A15305   0.029   3.717   6.716  0.0457  0.0024  0.0707
 1124YOPC   C4A15306   0.018   3.992   7.004 -0.0725 -0.0908  0.1437
 1124YOPC   C1B15307   0.055   3.968   5.997  0.2053  0.1284  0.1713
 1124YOPC   C2B15308  -0.087   4.153   6.283  0.2964  0.0180 -0.1346
 1124YOPC   D3B15309   0.224   4.291   6.665 -0.0897  0.2095  0.0493
 1124YOPC   C4B15310   0.539   4.586   6.605 -0.1433  0.0153  0.0830
 1125YOPC   NC315311  14.048  14.625   5.540 -0.1894  0.1429 -0.3381
 1125YOPC   PO415312  14.454  14.724   5.738 -0.1055 -0.4533  0.0146
 1125YOPC   GL115313  14.507  14.768   6.149  0.0842  0.1127 -0.1659
 1125YOPC   GL215314  14.285  14.613   6.347 -0.0761  0.2974 -0.1571
 1125YOPC   C1A15315  14.693  14.991   6.534 -0.0088 -0.0828  0.0577
 1125YOPC   D2A15316  14.748  15.100   6.993 -0.1008 -0.0981  0.0019
 1125YOPC   C3A15317  14.846  14.754   7.226 -0.0794  0.0176 -0.1905
 1125YOPC   C4A15318  15.289  14.501   7.420  0.0905 -0.1985 -0.1639
 1125YOPC   C1B15319  14.401  14.681   6.796  0.0287  0.1500  0.2700
 1125YOPC   C2B15320  14.295  14.611   7.289 -0.2395 -0.0952 -0.0122
 1125YOPC   D3B15321  14.189  14.178   7.234  0.6845 -0.0925 -0.0826
 1125YOPC   C4B15322  13.962  13.828   7.460 -0.0245  0.0455  0.1814
 1126YOPC   NC315323   1.224   1.051   5.196 -0.1745 -0.1991 -0.2309
 1126YOPC   PO415324   0.992   1.255   4.859 -0.0497 -0.1305 -0.1261
 1126YOPC   GL115325   0.874   1.393   5.342 -0.1304 -0.3175  0.3043
 1126YOPC   GL215326   1.175   1.466   5.582 -0.1038  0.3017 -0.3749
 1126YOPC   C1A15327   0.575   1.513   5.637  0.1380 -0.1586 -0.0584
 1126YOPC   D2A15328   0.298   1.777   6.073  0.0516  0.3951 -0.2298
 1126YOPC   C3A15329   0.363   1.456   6.436 -0.2771 -0.0710  0.0348
 1126YOPC   C4A15330   0.502   1.306   6.810 -0.1982 -0.1629 -0.0493
 1126YOPC   C1B15331   0.914   1.464   6.031 -0.4009  0.1263 -0.1624
 1126YOPC   C2B15332   0.834   1.203   6.335  0.1418 -0.3274  0.1210
 1126YOPC   D3B15333   0.760   0.835   6.184  0.1288 -0.0461  0.3395
 1126YOPC   C4B15334   0.652   0.623   5.951  0.1805  0.0146  0.1626
 1127YOPC   NC315335  14.846  15.946   5.914  0.1596 -0.0095 -0.0733
 1127YOPC   PO415336  14.879  16.402   5.817 -0.0445  0.1624 -0.0750
 1127YOPC   GL115337  15.186  16.355   6.116 -0.0631  0.1948  0.5064
 1127YOPC   GL215338  15.353  16.549   6.402  0.0130  0.0403 -0.2829
 1127YOPC   C1A15339  15.053  16.185   6.506 -0.1360 -0.4322 -0.0821
 1127YOPC   D2A15340  14.890  15.969   6.761  0.0225  0.0345 -0.1120
 1127YOPC   C3A15341  14.452  16.115   6.820 -0.5163  0.0438 -0.0843
 1127YOPC   C4A15342  14.162  16.200   7.222  0.4315 -0.1552 -0.0114
 1127YOPC   C1B15343  15.163  16.740   6.734  0.0139 -0.1596 -0.1883
 1127YOPC   C2B15344  14.919  16.472   6.937 -0.1560 -0.0649  0.2741
 1127YOPC   D3B15345  14.618  16.381   7.242  0.2004  0.1080 -0.1092
 1127YOPC   C4B15346  14.522  16.578   7.587  0.2000  0.2891 -0.1752
 1128YOPC   NC315347   2.628  15.560   5.092 -0.0230 -0.3314 -0.1576
 1128YOPC   PO415348   2.924  15.222   5.258 -0.3464  0.1497 -0.2232
 1128YOPC   GL115349   2.929  15.423   5.811  0.2698 -0.1722 -0.0613
 1128YOPC   GL215350   3.130  15.703   5.941  0.0001 -0.2173 -0.0299
 1128YOPC   C1A15351   2.843  15.457   6.239  0.2341  0.2980  0.1787
 1128YOPC   D2A15352   2.791  15.646   6.592  0.1054  0.2282 -0.1401
 1128YOPC   C3A15353   2.988  15.498   7.033 -0.0742  0.3093  0.0396
 1128YOPC   C4A15354   2.792  15.297   7.349 -0.0040  0.1130  0.1313
 1128YOPC   C1B15355   3.197  15.896   6.345  0.3163  0.0334 -0.0815
 1128YOPC   C2B15356   3.062  15.988   6.750  0.3154  0.1588 -0.0987
 1128YOPC   D3B15357   3.335  15.966   7.102 -0.0020  0.2041 -0.0829
 1128YOPC   C4B15358   3.610  16.117   7.348  0.0096 -0.0627 -0.0224
 1129YOPC   NC315359   2.955  18.736   4.913 -0.1327 -0.1101 -0.1040
 1129YOPC   PO415360   2.909  19.177   5.104 -0.0897 -0.3475 -0.0968
 1129YOPC   GL115361   3.157  19.198   5.400  0.0628 -0.0127  0.0855
 1129YOPC   GL215362   3.209  19.603   5.467 -0.0119 -0.0310 -0.1126
 1129YOPC   C1A15363   3.531  19.133   5.642  0.2986 -0.1059  0.0894
 1129YOPC   D2A15364   3.673  19.007   6.060  0.0342  0.0326  0.0657
 1129YOPC   C3A15365   3.770  19.126   6.472 -0.4471  0.0886 -0.0032
 1129YOPC   C4A15366   4.015  18.940   6.810 -0.3024  0.0481  0.0992
 1129YOPC   C1B15367   3.116  19.439   5.857 -0.2033 -0.1420 -0.1236
 1129YOPC   C2B15368   3.295  19.254   6.236  0.1172 -0.0860  0.2356
 1129YOPC   D3B15369   3.352  18.777   6.385 -0.1260  0.0832  0.2287
 1129YOPC   C4B15370   3.725  18.604   6.412 -0.0646 -0.2332  0.3003
 1130YOPC   NC315371   6.891   1.035   4.288  0.0594 -0.1547 -0.1591
 1130YOPC   PO415372   7.038   0.993   4.633 -0.1589 -0.4194 -0.1222
 1130YOPC   GL115373   6.929   1.164   5.099  0.0628 -0.1033  0.1876
 1130YOPC   GL215374   6.588   1.170   5.202  0.0665 -0.1317 -0.4593
 1130YOPC   C1A15375   7.017   1.224   5.529 -0.1057  0.2519  0.0376
 1130YOPC   D2A15376   7.303   1.135   5.782  0.0930  0.3404  0.0102
 1130YOPC   C3A15377   7.268   0.738   6.141  0.0533  0.5342  0.1480
 1130YOPC   C4A15378   6.952   0.479   6.321  0.1663  0.0561  0.0149
 1130YOPC   C1B15379   6.560   1.487   5.541 -0.1137 -0.0730  0.0120
 1130YOPC   C2B15380   6.454   1.733   5.926  0.1350  0.1151 -0.0990
 1130YOPC   D3B15381   6.628   1.622   6.317 -0.0395  0.0811 -0.0885
 1130YOPC   C4B15382   6.579   1.354   6.551 -0.0529  0.1269  0.0267
 1131YOPC   NC315383  13.534  11.041   5.698  0.7072 -0.0768 -0.1622
 1131YOPC   PO415384  13.720  10.609   5.643 -0.0742  0.1246 -0.0762
 1131YOPC   GL115385  13.390  10.474   6.001  0.0061  0.2732 -0.3001
 1131YOPC   GL215386  13.248  10.750   5.954  0.2297 -0.2883  0.1004
 1131YOPC   C1A15387  13.127  10.333   6.271  0.1266  0.1319  0.1811
 1131YOPC   D2A15388  12.863  10.386   6.645  0.0757 -0.1413 -0.0956
 1131YOPC   C3A15389  12.927  10.259   7.144 -0.0832 -0.0401  0.0447
 1131YOPC   C4A15390  13.087   9.943   7.358 -0.2176 -0.1143  0.0960
 1131YOPC   C1B15391  13.091  10.819   6.331 -0.1501  0.0313 -0.4287
 1131YOPC   C2B15392  12.816  10.918   6.651 -0.4428  0.2674 -0.0542
 1131YOPC   D3B15393  12.714  10.787   7.076  0.3281 -0.1558  0.0360
 1131YOPC   C4B15394  12.238  10.832   7.189 -0.0664 -0.2209  0.4602
 1132YOPC   NC315395   4.023   9.112   5.485 -0.1192 -0.2432  0.1314
 1132YOPC   PO415396   3.789   8.857   5.527  0.0510 -0.1979 -0.2705
 1132YOPC   GL115397   3.459   8.894   5.997  0.1252  0.2425  0.3817
 1132YOPC   GL215398   3.257   8.655   5.999  0.3830  0.1784  0.1573
 1132YOPC   C1A15399   3.449   9.141   6.367 -0.3149 -0.1901  0.4629
 1132YOPC   D2A15400   3.223   9.146   6.707 -0.0382  0.2095 -0.2487
 1132YOPC   C3A15401   3.343   9.125   7.245  0.1104  0.1190 -0.1679
 1132YOPC   C4A15402   3.669   9.183   7.529  0.0960  0.2873  0.1347
 1132YOPC   C1B15403   3.338   8.651   6.450  0.0311  0.1495  0.3571
 1132YOPC   C2B15404   3.725   8.865   6.677  0.1357 -0.1907 -0.1562
 1132YOPC   D3B15405   3.759   9.218   7.004 -0.1608  0.1566 -0.2132
 1132YOPC   C4B15406   3.566   9.577   7.129 -0.2638  0.2664  0.2281
 1133YOPC   NC315407   0.427   6.359   5.408  0.4038  0.0535  0.1625
 1133YOPC   PO415408   0.737   6.137   5.339  0.0647  0.0710  0.1745
 1133YOPC   GL115409   0.897   6.098   5.732  0.0300 -0.1606  0.0447
 1133YOPC   GL215410   0.710   6.323   5.886  0.0067 -0.0727 -0.0744
 1133YOPC   C1A15411   1.272   6.174   6.038 -0.1090 -0.1883  0.2972
 1133YOPC   D2A15412   1.750   6.088   6.059  0.0707 -0.1228 -0.3476
 1133YOPC   C3A15413   1.918   6.124   6.456  0.2803 -0.2478  0.3702
 1133YOPC   C4A15414   1.837   6.064   6.946  0.2430  0.2615 -0.0677
 1133YOPC   C1B15415   1.078   6.671   6.104  0.0025  0.2414  0.0867
 1133YOPC   C2B15416   1.215   6.980   6.375 -0.1819 -0.1831 -0.1184
 1133YOPC   D3B15417   1.036   7.322   6.596 -0.3516 -0.1921 -0.2171
 1133YOPC   C4B15418   1.024   7.791   6.772  0.1999 -0.1469 -0.4723
 1134YOPC   NC315419  16.561   9.374   5.201  0.0104 -0.0429  0.0507
 1134YOPC   PO415420  16.506   8.946   5.045 -0.0795  0.0973  0.0442
 1134YOPC   GL115421  16.379   8.978   5.517 -0.0319  0.1484  0.0878
 1134YOPC   GL215422  16.349   9.334   5.639  0.3148 -0.3416 -0.1222
 1134YOPC   C1A15423  16.618   8.849   5.829  0.1192  0.0580 -0.1948
 1134YOPC   D2A15424  16.502   8.944   6.218  0.1502  0.2853 -0.2179
 1134YOPC   C3A15425  16.242   8.960   6.574  0.1442 -0.1313  0.2104
 1134YOPC   C4A15426  16.023   9.005   6.955  0.1417  0.0516  0.0388
 1134YOPC   C1B15427  16.469   9.408   6.100  0.1186 -0.1577  0.1968
 1134YOPC   C2B15428  16.602   9.351   6.534 -0.0147 -0.3298 -0.1975
 1134YOPC   D3B15429  16.914   9.511   6.893  0.2948 -0.1043  0.1319
 1134YOPC   C4B15430  17.290   9.581   7.138  0.0399 -0.0281 -0.1702
 1135YOPC   NC315431  18.267   7.325   5.831  0.2749 -0.2406 -0.1567
 1135YOPC   PO415432  18.333   6.909   5.878 -0.1197 -0.1417 -0.1713
 1135YOPC   GL115433  18.743   6.702   6.115 -0.3029  0.2645  0.0743
 1135YOPC   GL215434  18.945   6.921   6.149  0.0710  0.0464 -0.0013
 1135YOPC   C1A15435  18.656   6.458   6.471 -0.1115  0.0454  0.3568
 1135YOPC   D2A15436  18.518   6.038   6.705 -0.2313  0.1606 -0.0877
 1135YOPC   C3A15437  18.340   6.039   7.143  0.0637 -0.1671  0.0986
 1135YOPC   C4A15438  18.111   5.926   7.475  0.1570 -0.2645 -0.2657
 1135YOPC   C1B15439  18.939   7.002   6.631 -0.0999  0.1799 -0.0222
 1135YOPC   C2B15440  18.842   7.049   7.122 -0.1514  0.2904 -0.5703
 1135YOPC   D3B15441  18.380   6.966   7.308 -0.0537  0.2196  0.2584
 1135YOPC   C4B15442  18.093   6.995   7.556  0.0085  0.0896  0.1676
 1136YOPC   NC315443  17.110  12.027   5.155  0.0742  0.2614 -0.0659
 1136YOPC   PO415444  16.753  11.745   5.132  0.0058  0.0158  0.0614
 1136YOPC   GL115445  16.861  11.634   5.556 -0.0554 -0.0325  0.0212
 1136YOPC   GL215446  17.200  11.600   5.687 -0.1986  0.2684 -0.4382
 1136YOPC   C1A15447  16.731  11.579   5.937  0.1844  0.0330  0.0931
 1136YOPC   D2A15448  16.561  11.551   6.348 -0.2201  0.1970  0.0077
 1136YOPC   C3A15449  16.537  11.895   6.592  0.2985 -0.5103 -0.0285
 1136YOPC   C4A15450  16.395  12.311   6.614 -0.2980 -0.0763  0.0966
 1136YOPC   C1B15451  17.489  11.609   6.067  0.1063 -0.0778 -0.2818
 1136YOPC   C2B15452  17.580  11.650   6.442  0.0439 -0.2583 -0.2341
 1136YOPC   D3B15453  17.427  11.676   6.824 -0.1339 -0.1389 -0.1262
 1136YOPC   C4B15454  17.272  11.673   7.174 -0.0375 -0.1160 -0.1104
 1137YOPC   NC315455  11.616  14.386   5.321  0.0977 -0.1068  0.0552
 1137YOPC   PO415456  11.949  14.595   5.604  0.2118 -0.4717  0.1396
 1137YOPC   GL115457  11.815  14.729   6.017 -0.6529 -0.3919  0.1485
 1137YOPC   GL215458  11.502  14.645   5.940 -0.2536  0.1042  0.0445
 1137YOPC   C1A15459  11.789  14.821   6.417 -0.0801 -0.0276  0.1889
 1137YOPC   D2A15460  11.589  14.450   6.604 -0.0155  0.3446 -0.1026
 1137YOPC   C3A15461  11.854  14.256   6.919  0.1941 -0.2232  0.1823
 1137YOPC   C4A15462  12.211  14.029   7.212 -0.1143  0.0861 -0.1993
 1137YOPC   C1B15463  11.290  14.617   6.239 -0.3288  0.0230  0.0870
 1137YOPC   C2B15464  10.992  14.731   6.548 -0.2653 -0.0340 -0.1181
 1137YOPC   D3B15465  11.019  14.932   6.897  0.0576  0.1179 -0.1643
 1137YOPC   C4B15466  10.940  15.288   7.034 -0.0489  0.0017 -0.0353
 1138YOPC   NC315467  12.352   3.301   4.939  0.1440  0.0531 -0.1349
 1138YOPC   PO415468  12.764   3.132   5.053 -0.0132  0.0186 -0.0542
 1138YOPC   GL115469  12.650   3.329   5.404 -0.0881 -0.3819 -0.1394
 1138YOPC   GL215470  12.832   3.743   5.354 -0.3098 -0.3696  0.0801
 1138YOPC   C1A15471  12.657   3.228   5.752 -0.1658 -0.0531  0.0915
 1138YOPC   D2A15472  12.567   3.125   6.166 -0.1629 -0.1447  0.0920
 1138YOPC   C3A15473  12.935   3.161   6.488  0.1920 -0.0275  0.3283
 1138YOPC   C4A15474  13.132   3.035   6.907 -0.1968  0.1017 -0.1399
 1138YOPC   C1B15475  12.915   3.666   5.758  0.1057 -0.3184  0.0447
 1138YOPC   C2B15476  13.024   3.521   6.199  0.0785 -0.1643 -0.0300
 1138YOPC   D3B15477  13.287   3.168   6.162  0.0986  0.1000 -0.2000
 1138YOPC   C4B15478  13.346   2.702   6.192 -0.1439 -0.0533 -0.0702
 1139YOPC   NC315479   7.281   8.818   5.361  0.1525 -0.1445  0.1136
 1139YOPC   PO415480   7.484   9.244   5.412  0.0642  0.1693  0.0477
 1139YOPC   GL115481   7.244   9.356   5.830 -0.1960 -0.0118 -0.0984
 1139YOPC   GL215482   7.031   9.322   6.090  0.0459 -0.1026  0.0037
 1139YOPC   C1A15483   7.289   9.650   6.302 -0.2038 -0.1993 -0.0900
 1139YOPC   D2A15484   7.447   9.929   6.625  0.0631  0.1753  0.1558
 1139YOPC   C3A15485   7.857   9.831   6.750 -0.4194 -0.2324  0.0806
 1139YOPC   C4A15486   8.241   9.765   6.950  0.3643 -0.1598 -0.0209
 1139YOPC   C1B15487   7.440   9.168   6.191  0.0191  0.0159 -0.2312
 1139YOPC   C2B15488   7.559   8.898   6.547  0.2440 -0.0170 -0.2413
 1139YOPC   D3B15489   7.631   9.006   6.936  0.1618 -0.2450 -0.0593
 1139YOPC   C4B15490   7.653   9.366   7.097 -0.0488  0.1969 -0.0622
 1140YOPC   NC315491   9.118  18.871   5.310 -0.2765  0.0532 -0.1017
 1140YOPC   PO415492   9.531  18.966   5.340 -0.0013 -0.2602 -0.1587
 1140YOPC   GL115493   9.325  18.965   5.773  0.3485 -0.0694  0.1589
 1140YOPC   GL215494   9.320  19.216   5.934  0.1708  0.0557  0.4183
 1140YOPC   C1A15495   9.441  18.882   6.214  0.2553  0.1204  0.1108
 1140YOPC   D2A15496   9.186  19.043   6.530  0.0646 -0.1538 -0.0543
 1140YOPC   C3A15497   9.312  19.398   6.733  0.0920  0.0700 -0.0119
 1140YOPC   C4A15498   9.160  19.592   6.993  0.0051 -0.0642 -0.0488
 1140YOPC   C1B15499   9.562  19.345   6.214 -0.1571 -0.0118  0.3076
 1140YOPC   C2B15500   9.773  19.191   6.528  0.0171  0.0041 -0.0393
 1140YOPC   D3B15501   9.812  19.353   6.926  0.0808 -0.0081 -0.0446
 1140YOPC   C4B15502  10.223  19.391   7.171 -0.0145 -0.0538 -0.0034
 1141YOPC   NC315503   8.324  10.802   5.384 -0.1450  0.1798 -0.2825
 1141YOPC   PO415504   7.876  10.628   5.403 -0.0672 -0.2908 -0.3313
 1141YOPC   GL115505   8.062  10.707   5.865  0.0473  0.1061 -0.0942
 1141YOPC   GL215506   8.426  10.585   5.829 -0.2214  0.0177 -0.1504
 1141YOPC   C1A15507   8.184  10.383   6.197  0.2122  0.2018 -0.1917
 1141YOPC   D2A15508   8.185  10.041   6.463  0.0660 -0.1259 -0.0459
 1141YOPC   C3A15509   8.567  10.125   6.709  0.1039 -0.1442  0.0166
 1141YOPC   C4A15510   8.616   9.982   7.169 -0.2659  0.0222 -0.1338
 1141YOPC   C1B15511   8.404  10.046   5.893 -0.0075  0.2241 -0.0261
 1141YOPC   C2B15512   8.069   9.649   5.996  0.0350 -0.0256  0.4142
 1141YOPC   D3B15513   7.793   9.475   6.323  0.0662 -0.0582 -0.1992
 1141YOPC   C4B15514   7.520   9.421   6.637 -0.0321  0.1300  0.3644
 1142YOPC   NC315515  18.445  13.821   5.641 -0.1022  0.0106 -0.1509
 1142YOPC   PO415516  18.644  14.238   5.904  0.3922  0.1192  0.0810
 1142YOPC   GL115517  18.473  14.227   6.316  0.1624  0.0242  0.1461
 1142YOPC   GL215518  18.536  14.341   6.546  0.0651 -0.3056  0.3610
 1142YOPC   C1A15519  18.039  14.352   6.496 -0.0780 -0.0797 -0.0232
 1142YOPC   D2A15520  18.138  14.413   6.841  0.0568 -0.1316  0.5377
 1142YOPC   C3A15521  18.579  14.455   7.018 -0.0876  0.2091  0.0334
 1142YOPC   C4A15522  18.940  14.663   7.242  0.0311  0.1045  0.0293
 1142YOPC   C1B15523  18.736  14.723   6.672 -0.0615 -0.0598 -0.0557
 1142YOPC   C2B15524  19.001  15.179   6.671  0.0367  0.4351  0.0018
 1142YOPC   D3B15525  18.984  15.272   7.194 -0.1085 -0.0526  0.2830
 1142YOPC   C4B15526  18.900  15.625   7.497 -0.0566  0.3694 -0.1185
 1143YOPC   NC315527  10.490  15.061   4.993 -0.1751  0.0397 -0.3560
 1143YOPC   PO415528  10.144  15.071   5.290  0.2484  0.0089  0.1520
 1143YOPC   GL115529  10.076  14.741   5.676 -0.0191  0.0132  0.1579
 1143YOPC   GL215530   9.721  14.645   5.758  0.2081 -0.0411  0.0897
 1143YOPC   C1A15531  10.156  14.447   5.891 -0.0176  0.1295  0.0136
 1143YOPC   D2A15532  10.343  14.271   6.209  0.1098  0.1023 -0.2708
 1143YOPC   C3A15533  10.246  13.943   6.527 -0.5733  0.1355 -0.0220
 1143YOPC   C4A15534   9.846  13.823   6.732  0.0817  0.1118  0.0273
 1143YOPC   C1B15535   9.909  14.704   6.195  0.2051 -0.4612 -0.0332
 1143YOPC   C2B15536  10.034  14.609   6.673  0.1184  0.3164 -0.0879
 1143YOPC   D3B15537   9.804  14.814   6.993  0.0743  0.0139 -0.2675
 1143YOPC   C4B15538   9.557  14.882   7.464 -0.0027 -0.0848 -0.1231
 1144ERGO   ROH15539   6.502  17.930   9.044  0.0072  0.1065 -0.1772
 1144ERGO    R115540   6.610  17.898   8.785  0.0565  0.2353 -0.1723
 1144ERGO    R215541   6.500  17.726   8.598  0.2361  0.1493 -0.1923
 1144ERGO    R315542   6.495  17.949   8.443  0.0332  0.1579 -0.1782
 1144ERGO    R415543   6.464  17.727   8.254  0.3453  0.1171 -0.2048
 1144ERGO    R515544   6.613  17.886   8.244  0.1753  0.2939 -0.1456
 1144ERGO    C115545   6.439  17.938   7.909  0.2183  0.1065 -0.1989
 1144ERGO    C215546   6.342  17.938   7.561 -0.1603  0.0023  0.2059
 1145ERGO   ROH15547   4.821  13.966   5.894 -0.1796 -0.0488  0.1058
 1145ERGO    R115548   4.747  14.237   5.927 -0.0248 -0.0135  0.1704
 1145ERGO    R215549   4.496  14.313   6.015 -0.0159  0.1102  0.0889
 1145ERGO    R315550   4.639  14.450   6.202 -0.0103 -0.0442  0.2003
 1145ERGO    R415551   4.383  14.592   6.185  0.1250  0.1906  0.0528
 1145ERGO    R515552   4.582  14.679   6.164  0.2208  0.0152  0.1925
 1145ERGO    C115553   4.451  14.883   6.459  0.2123  0.0925  0.1362
 1145ERGO    C215554   4.293  15.165   6.704 -0.2385 -0.0484 -0.0140
 1146ERGO   ROH15555   1.823  16.656   5.719 -0.0701 -0.1920  0.0716
 1146ERGO    R115556   1.791  16.654   6.000 -0.0132 -0.1548  0.0784
 1146ERGO    R215557   2.005  16.632   6.174  0.0398  0.0502  0.0423
 1146ERGO    R315558   1.900  16.859   6.280 -0.1171 -0.0064  0.0109
 1146ERGO    R415559   2.052  16.737   6.500  0.0629  0.1897 -0.0049
 1146ERGO    R515560   1.842  16.798   6.505  0.0122  0.0123  0.0489
 1146ERGO    C115561   1.980  17.011   6.790 -0.0710  0.2178 -0.0619
 1146ERGO    C215562   1.934  17.222   7.076  0.2961  0.0608 -0.1077
 1147ERGO   ROH15563  15.019   7.752   8.898 -0.1731  0.0460  0.1346
 1147ERGO    R115564  14.989   7.693   8.623 -0.1987  0.0450  0.1378
 1147ERGO    R215565  14.820   7.835   8.458 -0.0220  0.2106  0.0968
 1147ERGO    R315566  15.045   7.865   8.308  0.0349 -0.0515  0.1242
 1147ERGO    R415567  14.823   7.914   8.121  0.1121  0.0673  0.0631
 1147ERGO    R515568  14.987   7.772   8.095 -0.0078 -0.0900  0.1527
 1147ERGO    C115569  15.036   7.988   7.784  0.2434 -0.2621  0.0694
 1147ERGO    C215570  14.955   8.070   7.457  0.1631  0.1982 -0.1902
 1148ERGO   ROH15571  16.383   1.453   5.734  0.2088 -0.0623  0.1204
 1148ERGO    R115572  16.542   1.594   5.921  0.1486  0.0530  0.0844
 1148ERGO    R215573  16.446   1.809   6.066  0.0618  0.0571  0.0171
 1148ERGO    R315574  16.532   1.663   6.279  0.1116  0.1540  0.0646
 1148ERGO    R415575  16.460   1.926   6.391 -0.3728  0.0388  0.0494
 1148ERGO    R515576  16.651   1.822   6.414 -0.2295  0.3190  0.1851
 1148ERGO    C115577  16.549   1.857   6.780 -0.5791  0.1190  0.1127
 1148ERGO    C215578  16.522   2.003   7.086  0.0428 -0.0276  0.0148
 1149ERGO   ROH15579  15.561   2.114   6.005 -0.2094 -0.1484  0.0666
 1149ERGO    R115580  15.478   2.052   6.268 -0.2025  0.0442  0.1146
 1149ERGO    R215581  15.631   2.111   6.491 -0.1032  0.0204  0.0485
 1149ERGO    R315582  15.404   2.238   6.572  0.0194  0.2477  0.0486
 1149ERGO    R415583  15.565   2.211   6.815 -0.1076 -0.1563  0.1036
 1149ERGO    R515584  15.359   2.146   6.788 -0.1876  0.1253 -0.0399
 1149ERGO    C115585  15.314   2.388   7.080  0.0049 -0.0458  0.1357
 1149ERGO    C215586  14.907   2.537   7.241 -0.0927  0.4658  0.4280
 1150ERGO   ROH15587   1.284   7.656   6.312  0.0063  0.0290  0.0801
 1150ERGO    R115588   1.486   7.589   6.498  0.0969  0.1546  0.0284
 1150ERGO    R215589   1.626   7.780   6.642 -0.0690  0.2385  0.0801
 1150ERGO    R315590   1.542   7.634   6.855  0.0992  0.0759  0.0380
 1150ERGO    R415591   1.785   7.768   6.949 -0.1564  0.4853  0.1380
 1150ERGO    R515592   1.743   7.554   6.956  0.2030  0.4088  0.1053
 1150ERGO    C115593   1.798   7.623   7.327 -0.0494  0.4763  0.1322
 1150ERGO    C215594   1.798   7.670   7.775  0.0172  0.0408  0.2192
 1151ERGO   ROH15595  12.968   2.215   9.219 -0.0723  0.2203  0.0952
 1151ERGO    R115596  12.962   2.298   8.948 -0.0365  0.0491  0.0423
 1151ERGO    R215597  13.058   2.141   8.742 -0.1471 -0.1391  0.1453
 1151ERGO    R315598  12.809   2.181   8.639 -0.1249 -0.0527  0.1200
 1151ERGO    R415599  12.972   2.103   8.409 -0.1960 -0.5176  0.1949
 1151ERGO    R515600  12.848   2.281   8.426 -0.0412 -0.3699 -0.0287
 1151ERGO    C115601  12.689   2.120   8.119 -0.2035 -0.6568  0.2000
 1151ERGO    C215602  12.481   2.077   7.835 -0.0053 -0.0632 -0.2046
 1152ERGO   ROH15603   4.505  18.293   5.831 -0.0766 -0.0049  0.0139
 1152ERGO    R115604   4.596  18.168   6.068 -0.1144 -0.0639 -0.0019
 1152ERGO    R215605   4.858  18.186   6.155 -0.1234 -0.0930  0.0404
 1152ERGO    R315606   4.742  18.275   6.384 -0.1554 -0.1410  0.0424
 1152ERGO    R415607   4.963  18.105   6.474 -0.1232 -0.0915  0.0404
 1152ERGO    R515608   4.754  18.088   6.534 -0.1188 -0.1470  0.0283
 1152ERGO    C115609   4.916  18.141   6.875 -0.1532 -0.1356  0.0423
 1152ERGO    C215610   5.035  18.189   7.237 -0.2549 -0.1453  0.0104
 1153ERGO   ROH15611  19.062  11.653   9.787 -0.2547  0.1545  0.1916
 1153ERGO    R115612  18.997  11.565   9.526 -0.1341 -0.0169  0.2176
 1153ERGO    R215613  18.858  11.722   9.346 -0.1185 -0.1620  0.0749
 1153ERGO    R315614  19.071  11.670   9.185 -0.0433 -0.1910  0.1827
 1153ERGO    R415615  18.842  11.686   9.003  0.0866  0.0551  0.0400
 1153ERGO    R515616  18.985  11.522   9.018 -0.0222 -0.0389  0.0355
 1153ERGO    C115617  19.033  11.616   8.652  0.2765  0.1541  0.1207
 1153ERGO    C215618  18.912  11.608   8.278  0.1570 -0.0815 -0.0845
 1154ERGO   ROH15619   9.270   0.088   9.063  0.1649 -0.0801  0.1293
 1154ERGO    R115620   9.211   0.086   8.786  0.1186 -0.0673  0.1380
 1154ERGO    R215621   9.384   0.186   8.596  0.0681 -0.0043  0.1207
 1154ERGO    R315622   9.355  -0.060   8.485  0.1083 -0.0074  0.1015
 1154ERGO    R415623   9.491   0.097   8.279 -0.0710  0.0895  0.0470
 1154ERGO    R515624   9.307  -0.018   8.255 -0.0429  0.0113  0.1323
 1154ERGO    C115625   9.524  -0.187   7.992 -0.1141  0.1414 -0.0138
 1154ERGO    C215626   9.577  -0.222   7.662  0.1484  0.3873 -0.5023
 1155ERGO   ROH15627  18.656  14.454   9.284  0.0427  0.2653  0.0269
 1155ERGO    R115628  18.586  14.340   9.034  0.0769  0.1089  0.0880
 1155ERGO    R215629  18.422  14.468   8.853 -0.0039 -0.0605  0.0398
 1155ERGO    R315630  18.630  14.424   8.683  0.0026 -0.0392  0.0421
 1155ERGO    R415631  18.413  14.521   8.511 -0.0445 -0.1783  0.0219
 1155ERGO    R515632  18.528  14.337   8.485  0.0232 -0.1447  0.0768
 1155ERGO    C115633  18.603  14.510   8.153 -0.0619 -0.2270  0.0138
 1155ERGO    C215634  18.387  14.673   8.029  0.0715  0.2091  0.0639
 1156ERGO   ROH15635   0.817  14.908   6.203  0.0679  0.0220 -0.0278
 1156ERGO    R115636   0.705  14.951   6.459  0.0982 -0.0871  0.0053
 1156ERGO    R215637   0.686  14.751   6.649  0.1747 -0.1553 -0.0535
 1156ERGO    R315638   0.820  14.930   6.804  0.1595 -0.1738 -0.0208
 1156ERGO    R415639   0.700  14.741   6.994  0.0395 -0.1199 -0.0473
 1156ERGO    R515640   0.679  14.958   6.996  0.0944 -0.1167 -0.0787
 1156ERGO    C115641   0.833  14.903   7.341 -0.0535 -0.1166 -0.0130
 1156ERGO    C215642   0.750  15.052   7.618 -0.0176  0.1115 -0.1427
 1157ERGO   ROH15643   8.984  10.721   6.067  0.0053  0.1146  0.0724
 1157ERGO    R115644   9.104  10.647   6.313 -0.0975  0.1812  0.1437
 1157ERGO    R215645   9.178  10.832   6.504 -0.1242  0.2392  0.1027
 1157ERGO    R315646   9.023  10.679   6.666 -0.2176  0.3339  0.1025
 1157ERGO    R415647   9.224  10.796   6.845 -0.0839  0.1234  0.0850
 1157ERGO    R515648   9.177  10.584   6.824 -0.2659  0.1694  0.0490
 1157ERGO    C115649   9.105  10.631   7.195 -0.1482  0.1447  0.0746
 1157ERGO    C215650   9.172  10.734   7.443  0.0291 -0.0286  0.0741
 1158ERGO   ROH15651   7.615  11.722   8.922 -0.1353  0.3391  0.1993
 1158ERGO    R115652   7.663  11.746   8.644 -0.0247 -0.0139  0.1817
 1158ERGO    R215653   7.570  11.959   8.495 -0.1100 -0.2769 -0.1650
 1158ERGO    R315654   7.832  11.981   8.424 -0.0909 -0.1949 -0.0657
 1158ERGO    R415655   7.683  12.041   8.179 -0.0174  0.2813  0.0023
 1158ERGO    R515656   7.841  11.892   8.202 -0.0538  0.2080 -0.2304
 1158ERGO    C115657   7.994  12.109   7.928  0.0543  0.6833  0.1932
 1158ERGO    C215658   8.037  12.430   7.745  0.0572  0.2736  0.3988
 1159ERGO   ROH15659  13.232   8.375   6.117 -0.1624 -0.0230 -0.1328
 1159ERGO    R115660  13.131   8.373   6.381 -0.1238 -0.1812 -0.1186
 1159ERGO    R215661  13.207   8.184   6.568  0.2125 -0.0562 -0.1233
 1159ERGO    R315662  13.267   8.403   6.717 -0.1228  0.0521 -0.1384
 1159ERGO    R415663  13.193   8.199   6.913  0.2292 -0.0681 -0.1219
 1159ERGO    R515664  13.109   8.399   6.896 -0.0991 -0.1989 -0.1192
 1159ERGO    C115665  13.241   8.413   7.254 -0.0759  0.0266 -0.1353
 1159ERGO    C215666  13.220   8.430   7.584  0.2828 -0.1219 -0.4111
 1160ERGO   ROH15667   3.516  18.559   9.229  0.0661 -0.0870  0.0361
 1160ERGO    R115668   3.553  18.431   8.979 -0.0073 -0.0163 -0.0106
 1160ERGO    R215669   3.382  18.470   8.766 -0.0313  0.0969  0.0303
 1160ERGO    R315670   3.611  18.536   8.635 -0.0352  0.0787  0.0130
 1160ERGO    R415671   3.408  18.514   8.424 -0.1092  0.3422  0.0537
 1160ERGO    R515672   3.600  18.411   8.430 -0.1588  0.2372 -0.0799
 1160ERGO    C115673   3.638  18.602   8.102 -0.1581  0.4676  0.0510
 1160ERGO    C215674   3.631  18.658   7.690 -0.1446  0.0406  0.2152
 1161ERGO   ROH15675   6.646   7.016   9.683 -0.0710 -0.0394 -0.0174
 1161ERGO    R115676   6.671   6.998   9.402  0.0174 -0.0763 -0.0077
 1161ERGO    R215677   6.697   6.756   9.270 -0.2045 -0.1128  0.0099
 1161ERGO    R315678   6.483   6.848   9.129 -0.0498  0.1266 -0.0740
 1161ERGO    R415679   6.656   6.719   8.929 -0.1162 -0.0671 -0.0057
 1161ERGO    R515680   6.578   6.923   8.921  0.1140  0.0217 -0.0381
 1161ERGO    C115681   6.432   6.783   8.597  0.0805  0.1843 -0.0936
 1161ERGO    C215682   6.532   6.666   8.264  0.1465  0.1297  0.0028
 1162ERGO   ROH15683   7.286  12.915   8.964 -0.1273 -0.0812 -0.0060
 1162ERGO    R115684   7.166  12.882   8.710 -0.0932  0.0759 -0.0431
 1162ERGO    R215685   7.238  13.033   8.491  0.1138  0.0400  0.0012
 1162ERGO    R315686   7.276  12.790   8.375 -0.0945  0.0196 -0.0290
 1162ERGO    R415687   7.266  12.981   8.150  0.2446  0.0877  0.0036
 1162ERGO    R515688   7.145  12.800   8.174  0.0246  0.2145 -0.1024
 1162ERGO    C115689   7.318  12.722   7.843  0.1252  0.0962 -0.0234
 1162ERGO    C215690   7.619  12.870   7.687  0.0279 -0.0124  0.1300
 1163ERGO   ROH15691  12.124   0.804   5.714  0.2305  0.0463  0.1493
 1163ERGO    R115692  11.924   0.832   5.913  0.1160  0.0567  0.0344
 1163ERGO    R215693  11.940   0.703   6.158 -0.1373 -0.1149 -0.0362
 1163ERGO    R315694  11.907   0.955   6.255 -0.0231 -0.1537  0.1057
 1163ERGO    R415695  11.843   0.780   6.481 -0.1668 -0.2541 -0.0112
 1163ERGO    R515696  11.718   0.939   6.401 -0.0641 -0.1386  0.0544
 1163ERGO    C115697  11.757   1.061   6.760 -0.0769 -0.3715  0.1365
 1163ERGO    C215698  11.853   1.127   7.112  0.0415  0.1774  0.0858
 1164ERGO   ROH15699   7.159   5.508   6.075  0.1446 -0.2825 -0.0799
 1164ERGO    R115700   7.213   5.562   6.347  0.1689 -0.0961 -0.1202
 1164ERGO    R215701   7.112   5.407   6.553 -0.0066  0.1814  0.0086
 1164ERGO    R315702   7.373   5.388   6.624 -0.0303 -0.0141  0.0483
 1164ERGO    R415703   7.226   5.370   6.877 -0.0859 -0.0495  0.0121
 1164ERGO    R515704   7.388   5.509   6.830  0.0074 -0.1251  0.1107
 1164ERGO    C115705   7.538   5.331   7.132 -0.1544 -0.3674  0.0515
 1164ERGO    C215706   7.597   5.405   7.375  0.0997  0.1994 -0.2705
 1165ERGO   ROH15707   2.634  12.593   9.288 -0.0034  0.2209 -0.1791
 1165ERGO    R115708   2.593  12.466   9.039 -0.0845  0.0900 -0.1014
 1165ERGO    R215709   2.344  12.447   8.920 -0.1187  0.0687 -0.0345
 1165ERGO    R315710   2.470  12.564   8.710 -0.1441 -0.0666 -0.1250
 1165ERGO    R415711   2.288  12.370   8.588 -0.2388 -0.0571  0.0143
 1165ERGO    R515712   2.502  12.386   8.553 -0.2479 -0.1423 -0.0571
 1165ERGO    C115713   2.374  12.435   8.197 -0.3326 -0.2574 -0.0424
 1165ERGO    C215714   2.471  12.422   7.900  0.2852 -0.0655  0.1229
 1166ERGO   ROH15715   0.669   2.335   5.512 -0.1685  0.0815 -0.0724
 1166ERGO    R115716   0.827   2.525   5.650 -0.0644  0.0246 -0.1122
 1166ERGO    R215717   0.728   2.768   5.735  0.0330  0.0421 -0.0462
 1166ERGO    R315718   0.822   2.685   5.976  0.1047 -0.0095 -0.0918
 1166ERGO    R415719   0.890   2.971   5.963 -0.2094  0.0798  0.0954
 1166ERGO    R515720   1.027   2.807   6.004 -0.0290  0.2026 -0.0004
 1166ERGO    C115721   1.073   3.012   6.322 -0.2832  0.0534  0.1350
 1166ERGO    C215722   1.305   3.206   6.525  0.0075  0.2009  0.0833
 1167ERGO   ROH15723   7.154   3.868   9.085  0.1450  0.2442 -0.0393
 1167ERGO    R115724   7.005   3.941   8.856  0.1666  0.2365 -0.0597
 1167ERGO    R215725   6.731   3.985   8.864  0.0492 -0.2842 -0.1910
 1167ERGO    R315726   6.800   4.223   8.753 -0.2930 -0.0135  0.1564
 1167ERGO    R415727   6.570   4.132   8.596  0.0829 -0.2723 -0.2021
 1167ERGO    R515728   6.765   4.192   8.518  0.0433  0.2008  0.0856
 1167ERGO    C115729   6.541   4.441   8.335 -0.2187 -0.0113  0.1175
 1167ERGO    C215730   6.382   4.778   8.352  0.1542 -0.1946  0.0477
 1168ERGO   ROH15731   2.260   8.982   6.186 -0.0214  0.0474 -0.0776
 1168ERGO    R115732   2.260   9.103   6.442  0.0750  0.0216 -0.0657
 1168ERGO    R215733   2.044   9.244   6.540  0.1636  0.1277 -0.0255
 1168ERGO    R315734   2.067   9.071   6.749  0.0960  0.0950 -0.0443
 1168ERGO    R415735   1.921   9.301   6.858  0.1763  0.1384 -0.0223
 1168ERGO    R515736   2.104   9.212   6.939  0.1436  0.0622 -0.0275
 1168ERGO    C115737   1.872   9.172   7.240  0.1202  0.1140 -0.0380
 1168ERGO    C215738   1.773   9.057   7.507  0.0640  0.1070 -0.3156
 1169ERGO   ROH15739   6.591   3.583   5.738  0.0002 -0.0545 -0.1180
 1169ERGO    R115740   6.604   3.451   5.988  0.0320 -0.0136 -0.0979
 1169ERGO    R215741   6.815   3.486   6.163  0.0685 -0.0065 -0.1419
 1169ERGO    R315742   6.617   3.550   6.338  0.1071  0.0448 -0.1169
 1169ERGO    R415743   6.848   3.485   6.507  0.0644 -0.1756 -0.1415
 1169ERGO    R515744   6.648   3.398   6.521  0.0086 -0.0543 -0.1817
 1169ERGO    C115745   6.681   3.544   6.871  0.0984 -0.2260 -0.1177
 1169ERGO    C215746   6.791   3.663   7.295  0.0304  0.0627  0.3172
 1170ERGO   ROH15747   2.143   8.783   9.430  0.2645 -0.0804  0.1508
 1170ERGO    R115748   2.208   8.951   9.212  0.1394 -0.0505  0.1363
 1170ERGO    R215749   2.461   8.961   9.101  0.0764 -0.0340 -0.0060
 1170ERGO    R315750   2.327   8.909   8.870 -0.0540 -0.0028  0.0614
 1170ERGO    R415751   2.548   9.084   8.790 -0.1136  0.0311 -0.0345
 1170ERGO    R515752   2.336   9.115   8.749 -0.1420  0.0214  0.0939
 1170ERGO    C115753   2.472   9.107   8.392 -0.3466  0.0984  0.0121
 1170ERGO    C215754   2.506   9.012   8.090  0.0815  0.0336 -0.2881
 1171ERGO   ROH15755  11.199  13.872   6.163  0.1483 -0.3535  0.0194
 1171ERGO    R115756  11.362  13.884   6.394  0.0376 -0.3259  0.0987
 1171ERGO    R215757  11.295  14.033   6.617  0.0138 -0.1545 -0.0140
 1171ERGO    R315758  11.329  13.796   6.746 -0.2032 -0.1079  0.1315
 1171ERGO    R415759  11.371  14.000   6.952  0.1443 -0.0238 -0.0305
 1171ERGO    R515760  11.508  13.838   6.900 -0.0775 -0.2191  0.0116
 1171ERGO    C115761  11.448  13.759   7.269  0.0164  0.0961  0.0964
 1171ERGO    C215762  11.191  13.633   7.554  0.0906 -0.3163 -0.1871
 1172ERGO   ROH15763  15.236   8.007   5.649  0.1333 -0.2599 -0.2091
 1172ERGO    R115764  15.369   7.820   5.813  0.1215 -0.1682 -0.0941
 1172ERGO    R215765  15.508   7.893   6.041  0.0603 -0.0473 -0.0957
 1172ERGO    R315766  15.347   7.709   6.160  0.0590 -0.0156 -0.0485
 1172ERGO    R415767  15.522   7.805   6.375  0.1683 -0.0762 -0.1075
 1172ERGO    R515768  15.490   7.597   6.316  0.0925 -0.0643 -0.1125
 1172ERGO    C115769  15.379   7.580   6.680  0.2299 -0.0634 -0.0701
 1172ERGO    C215770  15.419   7.478   6.974  0.0624 -0.1969 -0.2324
 1173ERGO   ROH15771  10.282   3.949   5.681  0.2139 -0.0735  0.0130
 1173ERGO    R115772  10.266   4.001   5.959  0.1629 -0.0496  0.0055
 1173ERGO    R215773  10.031   3.978   6.102  0.1130  0.0805 -0.0604
 1173ERGO    R315774  10.180   3.814   6.259 -0.0180  0.0134 -0.0045
 1173ERGO    R415775  10.008   3.960   6.446 -0.1140  0.0125 -0.0779
 1173ERGO    R515776  10.225   3.944   6.455 -0.1167 -0.0339  0.0548
 1173ERGO    C115777  10.134   3.795   6.794 -0.3692 -0.0901 -0.0356
 1173ERGO    C215778  10.102   3.798   7.140 -0.1637 -0.3769 -0.1965
 1174ERGO   ROH15779   7.473  10.976   5.990  0.1625 -0.0021  0.1648
 1174ERGO    R115780   7.682  11.000   6.179 -0.0604 -0.0558  0.4255
 1174ERGO    R215781   7.654  10.922   6.443 -0.2290 -0.5833  0.2667
 1174ERGO    R315782   7.876  10.775   6.388  0.0316 -0.1823  0.2055
 1174ERGO    R415783   7.842  10.754   6.678 -0.0758 -0.5558  0.1649
 1174ERGO    R515784   8.022  10.817   6.573 -0.1202 -0.1583  0.3185
 1174ERGO    C115785   8.161  10.517   6.765  0.2580 -0.1632  0.0482
 1174ERGO    C215786   8.105  10.263   7.030 -0.2948  0.4262  0.1530
 1175ERGO   ROH15787  18.488   9.630   6.308  0.0186  0.2681  0.0515
 1175ERGO    R115788  18.408   9.735   6.558  0.0690  0.1194  0.1316
 1175ERGO    R215789  18.266   9.587   6.743  0.0241  0.0379  0.0326
 1175ERGO    R315790  18.469   9.660   6.908  0.0586 -0.1540  0.0771
 1175ERGO    R415791  18.242   9.611   7.087 -0.0033 -0.0245  0.0353
 1175ERGO    R515792  18.364   9.792   7.078  0.1351 -0.1131  0.0937
 1175ERGO    C115793  18.419   9.693   7.443  0.0131 -0.2409  0.0785
 1175ERGO    C215794  18.493   9.896   7.762  0.2488  0.1889  0.3489
 1176ERGO   ROH15795  13.120  12.776   9.456 -0.2832 -0.2218  0.0490
 1176ERGO    R115796  13.177  12.745   9.181 -0.0954 -0.1927  0.0831
 1176ERGO    R215797  12.980  12.749   8.987  0.0229 -0.2800 -0.0417
 1176ERGO    R315798  13.136  12.944   8.879  0.0038 -0.2069  0.0605
 1176ERGO    R415799  13.016  12.807   8.648  0.0894 -0.1528 -0.0136
 1176ERGO    R515800  13.229  12.843   8.682  0.0724 -0.1163  0.0467
 1176ERGO    C115801  13.184  13.023   8.349  0.1103 -0.0101  0.0986
 1176ERGO    C215802  13.067  12.869   8.099  0.0126 -0.0549 -0.1392
 1177ERGO   ROH15803  15.635   4.453   9.179  0.0917  0.2740 -0.0656
 1177ERGO    R115804  15.669   4.425   8.899  0.0241  0.0717 -0.0551
 1177ERGO    R215805  15.513   4.256   8.747 -0.0918  0.0508  0.0877
 1177ERGO    R315806  15.467   4.481   8.601 -0.0038 -0.0214 -0.0546
 1177ERGO    R415807  15.345   4.263   8.445 -0.1038 -0.0764  0.0906
 1177ERGO    R515808  15.491   4.409   8.373 -0.0436 -0.1813 -0.0117
 1177ERGO    C115809  15.203   4.478   8.132 -0.0282 -0.2183 -0.0412
 1177ERGO    C215810  15.031   4.408   7.791 -0.0538  0.0785  0.1335
 1178ERGO   ROH15811  17.742  10.605   7.760 -0.0382  0.0374 -0.3520
 1178ERGO    R115812  17.980  10.745   7.824 -0.0845  0.0325 -0.1674
 1178ERGO    R215813  18.093  10.932   7.655  0.0399  0.0430 -0.0714
 1178ERGO    R315814  18.077  11.092   7.874 -0.1189  0.0292 -0.0713
 1178ERGO    R415815  18.154  11.272   7.656  0.1170  0.0299  0.0068
 1178ERGO    R515816  18.256  11.248   7.847 -0.0566 -0.0086  0.0989
 1178ERGO    C115817  18.174  11.621   7.861  0.0126  0.0093  0.0524
 1178ERGO    C215818  18.172  11.910   7.590  0.2078  0.0830  0.0544
 1179ERGO   ROH15819  12.713   8.786   9.253 -0.0172 -0.0706 -0.1471
 1179ERGO    R115820  12.595   8.625   9.052 -0.0214 -0.0575 -0.1548
 1179ERGO    R215821  12.397   8.719   8.883  0.1030  0.0100 -0.2637
 1179ERGO    R315822  12.567   8.634   8.689  0.1389 -0.1371 -0.1699
 1179ERGO    R415823  12.323   8.710   8.545  0.2671  0.0343 -0.3016
 1179ERGO    R515824  12.427   8.519   8.533  0.1300 -0.0464 -0.2299
 1179ERGO    C115825  12.440   8.625   8.167  0.3964 -0.0897 -0.2355
 1179ERGO    C215826  12.253   8.711   7.883  0.1638 -0.2596  0.4499
 1180ERGO   ROH15827   4.040  17.303   5.706 -0.0990 -0.0786  0.1222
 1180ERGO    R115828   3.862  17.432   5.884 -0.0431 -0.0298  0.1433
 1180ERGO    R215829   3.791  17.323   6.128 -0.0948 -0.0417  0.1247
 1180ERGO    R315830   3.877  17.563   6.223  0.0138 -0.0969  0.1665
 1180ERGO    R415831   3.776  17.421   6.459 -0.1988 -0.0285  0.1159
 1180ERGO    R515832   3.717  17.620   6.393 -0.0346  0.0092  0.0846
 1180ERGO    C115833   3.847  17.703   6.742 -0.1574 -0.0723  0.1500
 1180ERGO    C215834   3.998  17.716   7.002 -0.0356  0.0929 -0.1065
 1181ERGO   ROH15835   6.654  10.042   9.503 -0.2535 -0.0345 -0.0359
 1181ERGO    R115836   6.708   9.950   9.241 -0.1523 -0.0111 -0.0244
 1181ERGO    R215837   6.526   9.804   9.093 -0.0737 -0.0545 -0.0868
 1181ERGO    R315838   6.569   9.999   8.908 -0.0688 -0.0336 -0.0621
 1181ERGO    R415839   6.512   9.759   8.750  0.2412 -0.0816 -0.0978
 1181ERGO    R515840   6.686   9.889   8.731  0.1589  0.0464  0.0382
 1181ERGO    C115841   6.544   9.915   8.378  0.4293 -0.0778 -0.0811
 1181ERGO    C215842   6.432   9.830   8.078 -0.0914 -0.4126  0.2423
 1182ERGO   ROH15843  17.010  16.852   9.768  0.2383 -0.1309  0.0240
 1182ERGO    R115844  16.979  16.774   9.497  0.1785 -0.1539  0.0372
 1182ERGO    R215845  16.741  16.806   9.360  0.2013 -0.0005  0.0340
 1182ERGO    R315846  16.899  16.938   9.182  0.2981 -0.1480  0.0089
 1182ERGO    R415847  16.656  16.871   9.031  0.1642  0.1518  0.0732
 1182ERGO    R515848  16.862  16.824   8.974  0.0993 -0.0743 -0.0001
 1182ERGO    C115849  16.755  17.032   8.673  0.2334  0.1021  0.0726
 1182ERGO    C215850  16.516  17.142   8.403  0.1766 -0.2378 -0.1872
 1183ERGO   ROH15851   2.130   5.113   8.581  0.0559  0.1620  0.0046
 1183ERGO    R115852   2.053   5.289   8.374 -0.0336  0.1335  0.0138
 1183ERGO    R215853   2.155   5.272   8.118 -0.0047  0.2147  0.0219
 1183ERGO    R315854   1.892   5.261   8.048  0.0062  0.0665 -0.0011
 1183ERGO    R415855   2.035   5.294   7.794  0.0163  0.1377  0.0084
 1183ERGO    R515856   1.872   5.418   7.869 -0.0618  0.0517 -0.0092
 1183ERGO    C115857   1.718   5.297   7.541  0.0388 -0.0463 -0.0212
 1183ERGO    C215858   1.586   5.147   7.371  0.0513 -0.0216  0.2119
 1184ERGO   ROH15859   5.027  16.080   5.730 -0.0247 -0.2769  0.0186
 1184ERGO    R115860   5.100  16.185   5.983 -0.0308 -0.2711  0.0179
 1184ERGO    R215861   5.310  16.082   6.131  0.0529 -0.1801 -0.0364
 1184ERGO    R315862   5.395  16.341   6.129 -0.0840 -0.1339 -0.0198
 1184ERGO    R415863   5.536  16.217   6.355  0.1837 -0.1431 -0.1893
 1184ERGO    R515864   5.415  16.398   6.361  0.0926 -0.2083 -0.0154
 1184ERGO    C115865   5.748  16.538   6.483  0.1312 -0.0782 -0.2628
 1184ERGO    C215866   6.126  16.461   6.597  0.0014  0.0590  0.0820
 1185ERGO   ROH15867   5.309   1.635   8.690  0.1637 -0.1295  0.0273
 1185ERGO    R115868   5.396   1.676   8.424  0.0217 -0.2381 -0.0379
 1185ERGO    R215869   5.271   1.562   8.206 -0.2688 -0.1026  0.0531
 1185ERGO    R315870   5.258   1.819   8.119 -0.0367 -0.0872  0.0583
 1185ERGO    R415871   5.178   1.658   7.888 -0.3818 -0.0025  0.1154
 1185ERGO    R515872   5.335   1.809   7.893 -0.2043 -0.1800  0.0043
 1185ERGO    C115873   5.111   1.956   7.621 -0.2296  0.0703  0.1566
 1185ERGO    C215874   4.999   2.023   7.306  0.2540 -0.1134 -0.0101
 1186ERGO   ROH15875  18.703   1.379   8.948 -0.0803  0.2097  0.1457
 1186ERGO    R115876  18.847   1.417   8.707 -0.2043  0.2915  0.0837
 1186ERGO    R215877  18.952   1.207   8.562  0.2204  0.3677  0.2677
 1186ERGO    R315878  18.810   1.318   8.358 -0.0661 -0.1238  0.1804
 1186ERGO    R415879  19.032   1.179   8.227  0.3721  0.4227  0.2985
 1186ERGO    R515880  18.977   1.388   8.201 -0.2177  0.2728  0.1831
 1186ERGO    C115881  18.946   1.267   7.841  0.1916 -0.0068  0.2346
 1186ERGO    C215882  19.039   1.127   7.577  0.1803  0.1673  0.4359
 1187ERGO   ROH15883  14.539  12.029   9.557 -0.0592 -0.2647 -0.0237
 1187ERGO    R115884  14.478  12.152   9.310 -0.1635 -0.2098  0.0296
 1187ERGO    R215885  14.617  12.096   9.078 -0.1101  0.0163  0.0108
 1187ERGO    R315886  14.369  12.042   8.980 -0.0606 -0.1601 -0.0230
 1187ERGO    R415887  14.538  12.072   8.742 -0.1034  0.3043 -0.0147
 1187ERGO    R515888  14.352  12.178   8.783 -0.2286  0.0497  0.1268
 1187ERGO    C115889  14.259  12.007   8.455 -0.0530  0.3066 -0.0611
 1187ERGO    C215890  14.338  11.949   8.089  0.0848  0.0115 -0.0782
 1188ERGO   ROH15891  19.066   7.694   9.566 -0.2118 -0.2084  0.0927
 1188ERGO    R115892  19.224   7.767   9.343 -0.0662 -0.1987  0.1977
 1188ERGO    R215893  19.282   7.592   9.138 -0.1653 -0.1090  0.0906
 1188ERGO    R315894  19.180   7.791   8.982  0.0746  0.1028  0.1970
 1188ERGO    R415895  19.367   7.647   8.807 -0.1536 -0.0804  0.0988
 1188ERGO    R515896  19.365   7.862   8.848  0.1486 -0.0917  0.1937
 1188ERGO    C115897  19.320   7.866   8.469  0.0783  0.1351  0.2033
 1188ERGO    C215898  19.361   7.988   8.101  0.2636  0.2630 -0.3261
 1189ERGO   ROH15899  12.388   8.966   6.401 -0.0789  0.0583 -0.1271
 1189ERGO    R115900  12.254   8.795   6.582 -0.1659  0.0297 -0.2175
 1189ERGO    R215901  12.279   8.818   6.857 -0.0602 -0.2010 -0.2043
 1189ERGO    R315902  12.008   8.831   6.848 -0.0543  0.0329 -0.1137
 1189ERGO    R415903  12.067   8.705   7.105 -0.0772 -0.0496 -0.1487
 1189ERGO    R515904  11.935   8.628   6.950 -0.1954  0.0819 -0.1152
 1189ERGO    C115905  11.689   8.650   7.241 -0.0816  0.2582 -0.0314
 1189ERGO    C215906  11.286   8.632   7.331  0.2610  0.0321 -0.0677
 1190ERGO   ROH15907   2.565   7.356   5.878  0.1658 -0.1840  0.1140
 1190ERGO    R115908   2.585   7.471   6.136  0.1244  0.0563  0.0121
 1190ERGO    R215909   2.728   7.353   6.342 -0.0778  0.1415  0.1997
 1190ERGO    R315910   2.851   7.595   6.351  0.1141  0.0551  0.0282
 1190ERGO    R415911   2.883   7.484   6.621 -0.0186  0.2274  0.1276
 1190ERGO    R515912   2.800   7.679   6.569  0.1409  0.2622 -0.0380
 1190ERGO    C115913   3.089   7.788   6.792  0.1961  0.1963 -0.0753
 1190ERGO    C215914   3.169   7.908   7.051  0.3243 -0.0293 -0.0235
 1191ERGO   ROH15915  10.779   4.823   9.127  0.0858  0.3171  0.1643
 1191ERGO    R115916  10.749   4.771   8.851  0.0996  0.2282  0.1802
 1191ERGO    R215917  10.502   4.742   8.731  0.1100  0.1147  0.1930
 1191ERGO    R315918  10.595   4.936   8.565  0.0439  0.0964  0.1319
 1191ERGO    R415919  10.386   4.802   8.411  0.0745 -0.0156  0.1800
 1191ERGO    R515920  10.592   4.837   8.348  0.0638  0.0292  0.1599
 1191ERGO    C115921  10.406   5.019   8.069 -0.0082 -0.1087  0.1150
 1191ERGO    C215922  10.433   5.186   7.688  0.1103  0.1317 -0.1137
 1192ERGO   ROH15923   3.265   4.461   8.877 -0.2161 -0.3780  0.0293
 1192ERGO    R115924   3.301   4.592   8.629 -0.1291 -0.1143  0.1774
 1192ERGO    R215925   3.262   4.465   8.387  0.1953  0.0665  0.0229
 1192ERGO    R315926   3.094   4.675   8.341  0.0333 -0.0486  0.0787
 1192ERGO    R415927   3.188   4.593   8.074  0.1343  0.1270  0.0618
 1192ERGO    R515928   3.197   4.794   8.160 -0.0380  0.1030  0.1378
 1192ERGO    C115929   2.988   4.864   7.849 -0.0534  0.0543  0.1368
 1192ERGO    C215930   2.888   4.678   7.569  0.0758  0.0301 -0.1166
 1193ERGO   ROH15931   3.928   8.683   9.451  0.3406 -0.1050  0.0839
 1193ERGO    R115932   3.927   8.625   9.174  0.0581 -0.1224  0.0871
 1193ERGO    R215933   3.714   8.691   9.009  0.0244  0.1585  0.2400
 1193ERGO    R315934   3.908   8.815   8.864  0.0926 -0.1148  0.0892
 1193ERGO    R415935   3.684   8.781   8.677 -0.1855  0.3674  0.3122
 1193ERGO    R515936   3.890   8.717   8.646 -0.3230  0.0114  0.0557
 1193ERGO    C115937   3.848   8.950   8.347 -0.2436  0.2323  0.2127
 1193ERGO    C215938   3.912   9.246   8.197 -0.1812 -0.1369  0.2346
 1194ERGO   ROH15939   4.220  10.386   9.677  0.1011 -0.0379  0.1830
 1194ERGO    R115940   4.177  10.395   9.397 -0.0581  0.0031  0.2073
 1194ERGO    R215941   4.182  10.631   9.253  0.1783 -0.0082  0.1927
 1194ERGO    R315942   4.367  10.498   9.104 -0.0906 -0.2733  0.0859
 1194ERGO    R415943   4.206  10.646   8.909  0.0779  0.0539  0.1884
 1194ERGO    R515944   4.248  10.432   8.907 -0.2750 -0.0206  0.1082
 1194ERGO    C115945   4.393  10.530   8.568 -0.2330 -0.1589  0.0854
 1194ERGO    C215946   4.502  10.341   8.298  0.0655 -0.0900  0.0580
 1195ERGO   ROH15947  16.348   3.762   5.656  0.2019  0.1738  0.0153
 1195ERGO    R115948  16.488   3.806   5.898  0.0919  0.2875  0.0592
 1195ERGO    R215949  16.626   4.040   5.950  0.0055  0.3423  0.0441
 1195ERGO    R315950  16.470   4.043   6.173 -0.0856  0.3679 -0.0195
 1195ERGO    R415951  16.678   4.242   6.225  0.0622  0.1734  0.1590
 1195ERGO    R515952  16.625   4.075   6.353 -0.1315  0.1565  0.0604
 1195ERGO    C115953  16.563   4.363   6.595  0.0097  0.0991  0.1662
 1195ERGO    C215954  16.742   4.513   6.854 -0.2052 -0.0684 -0.1679
 1196ERGO   ROH15955   0.051  16.376   9.553  0.0843 -0.3076  0.0073
 1196ERGO    R115956  -0.025  16.271   9.301  0.2918 -0.3533 -0.0364
 1196ERGO    R215957  -0.152  16.422   9.108 -0.0528 -0.5308  0.0519
 1196ERGO    R315958   0.053  16.338   8.952  0.1241 -0.0147 -0.0140
 1196ERGO    R415959  -0.176  16.357   8.770  0.0965 -0.2409 -0.0187
 1196ERGO    R515960  -0.047  16.183   8.800  0.4087 -0.0531 -0.1766
 1196ERGO    C115961   0.004  16.240   8.426  0.3497  0.4121 -0.1216
 1196ERGO    C215962  -0.186  16.105   8.150 -0.2697  0.0032  0.0991
 1197ERGO   ROH15963  14.096   7.939   9.415  0.1943  0.2785  0.1086
 1197ERGO    R115964  13.946   8.017   9.188  0.1921  0.3091  0.1221
 1197ERGO    R215965  14.055   8.162   8.980  0.3127 -0.0550 -0.0675
 1197ERGO    R315966  13.959   7.956   8.829 -0.1004 -0.0433  0.1626
 1197ERGO    R415967  13.980   8.181   8.643  0.1912 -0.2264 -0.0529
 1197ERGO    R515968  13.803   8.059   8.680 -0.0054  0.0910  0.1448
 1197ERGO    C115969  13.847   7.999   8.306 -0.2674 -0.3153  0.1717
 1197ERGO    C215970  13.855   7.941   7.970 -0.0202 -0.3794  0.0448
 1198ERGO   ROH15971   3.859  12.156   6.246  0.1283  0.1518  0.1203
 1198ERGO    R115972   3.999  12.140   6.491  0.0780  0.0893  0.1452
 1198ERGO    R215973   3.888  12.029   6.719  0.0366  0.0156  0.0906
 1198ERGO    R315974   4.112  11.875   6.714  0.0473  0.0311  0.0916
 1198ERGO    R415975   4.093  11.969   6.991  0.0594  0.0551  0.0823
 1198ERGO    R515976   4.265  11.987   6.859  0.0490  0.0547  0.0704
 1198ERGO    C115977   4.422  11.789   7.145  0.0828  0.0928  0.0784
 1198ERGO    C215978   4.480  11.777   7.478  0.2585  0.3004 -0.1690
 1199ERGO   ROH15979   7.043   3.192   5.820 -0.0067 -0.0932  0.1701
 1199ERGO    R115980   7.116   3.143   6.089  0.0639 -0.0250  0.1630
 1199ERGO    R215981   7.376   3.169   6.179  0.0504  0.2087  0.1361
 1199ERGO    R315982   7.262   3.335   6.362 -0.0795  0.1093  0.1477
 1199ERGO    R415983   7.539   3.302   6.453 -0.0657  0.2710  0.1761
 1199ERGO    R515984   7.359   3.268   6.571 -0.0610  0.1373  0.1498
 1199ERGO    C115985   7.528   3.535   6.784 -0.2553  0.2139  0.2103
 1199ERGO    C215986   7.654   3.881   6.911 -0.1425  0.0420 -0.0798
 1200ERGO   ROH15987  14.448   3.137   5.677 -0.1277  0.2327 -0.0907
 1200ERGO    R115988  14.465   3.075   5.953  0.0180 -0.0072 -0.1505
 1200ERGO    R215989  14.368   3.243   6.150  0.3376 -0.0590  0.0647
 1200ERGO    R315990  14.232   3.020   6.227  0.1652  0.0166 -0.0210
 1200ERGO    R415991  14.256   3.180   6.471  0.5214 -0.2193  0.0990
 1200ERGO    R515992  14.315   2.972   6.446  0.2851 -0.2599 -0.1258
 1200ERGO    C115993  14.063   2.936   6.730  0.4665 -0.2416  0.0386
 1200ERGO    C215994  13.993   2.897   7.038  0.0919  0.0267  0.1696
 1201ERGO   ROH15995  14.375  16.624   6.169 -0.1803  0.3681 -0.2471
 1201ERGO    R115996  14.346  16.556   6.443 -0.3127  0.1164 -0.3187
 1201ERGO    R215997  14.513  16.655   6.640 -0.1703 -0.3427 -0.1800
 1201ERGO    R315998  14.279  16.733   6.753 -0.0728 -0.1021 -0.1417
 1201ERGO    R415999  14.477  16.760   6.967 -0.0092 -0.1594 -0.2201
 1201ERGO    R516000  14.291  16.649   6.977 -0.0861  0.0010 -0.1115
 1201ERGO    C116001  14.236  16.893   7.264  0.1762  0.1736 -0.2074
 1201ERGO    C216002  14.067  16.941   7.577  0.2115  0.1331 -0.1617
 1202ERGO   ROH16003  14.499   6.929   9.019 -0.2100 -0.1912  0.0821
 1202ERGO    R116004  14.484   6.835   8.752 -0.1259 -0.1025  0.0447
 1202ERGO    R216005  14.253   6.852   8.601 -0.0836 -0.0652 -0.0189
 1202ERGO    R316006  14.416   6.978   8.425 -0.0376  0.0049  0.0734
 1202ERGO    R416007  14.170   6.928   8.275  0.0423 -0.0336 -0.0436
 1202ERGO    R516008  14.372   6.871   8.215  0.0826  0.0278  0.0362
 1202ERGO    C116009  14.276   7.090   7.918  0.1590  0.0505  0.0287
 1202ERGO    C216010  14.403   7.227   7.602 -0.0294 -0.2457 -0.4582
 1203ERGO   ROH16011  17.627   5.665   5.631 -0.0516  0.0907 -0.0460
 1203ERGO    R116012  17.592   5.549   5.886  0.1153  0.0978 -0.0189
 1203ERGO    R216013  17.653   5.683   6.120  0.0656  0.1853 -0.0550
 1203ERGO    R316014  17.396   5.621   6.185  0.1333 -0.0230  0.0223
 1203ERGO    R416015  17.537   5.632   6.442  0.1938  0.1244 -0.0177
 1203ERGO    R516016  17.417   5.467   6.367  0.3115  0.0140  0.0350
 1203ERGO    C116017  17.229   5.544   6.690  0.3321 -0.1065  0.0766
 1203ERGO    C216018  16.902   5.542   6.936 -0.0931 -0.1131 -0.0017
 1204ERGO   ROH16019  11.433  17.628   9.376 -0.1376  0.0957 -0.1459
 1204ERGO    R116020  11.471  17.617   9.096  0.0038 -0.0278 -0.1229
 1204ERGO    R216021  11.692  17.498   8.980  0.0723 -0.0612  0.0415
 1204ERGO    R316022  11.504  17.357   8.844  0.1530 -0.1391  0.0096
 1204ERGO    R416023  11.740  17.353   8.670  0.2271 -0.1595  0.1098
 1204ERGO    R516024  11.539  17.417   8.615  0.2393 -0.2112  0.0031
 1204ERGO    C116025  11.592  17.136   8.362  0.3929 -0.2898  0.1198
 1204ERGO    C216026  11.668  16.862   8.075 -0.1044 -0.2688  0.0141
 1205ERGO   ROH16027   9.366  14.682   9.329 -0.2942 -0.0514  0.1093
 1205ERGO    R116028   9.411  14.842   9.099 -0.2130 -0.0301  0.1422
 1205ERGO    R216029   9.381  14.745   8.842 -0.2067  0.0224  0.1338
 1205ERGO    R316030   9.214  14.958   8.816 -0.1337  0.0823  0.1280
 1205ERGO    R416031   9.289  14.887   8.541 -0.2395 -0.0461  0.1097
 1205ERGO    R516032   9.306  15.084   8.634 -0.1296 -0.0127  0.0510
 1205ERGO    C116033   9.077  15.169   8.341 -0.1900 -0.0296  0.0902
 1205ERGO    C216034   9.055  15.151   8.112  0.0161 -0.2491 -0.1439
 1206ERGO   ROH16035  12.020   1.259   5.785  0.0546 -0.2158  0.0266
 1206ERGO    R116036  11.802   1.374   5.924  0.1663 -0.0482  0.0636
 1206ERGO    R216037  11.600   1.223   6.037 -0.0515  0.1172 -0.1077
 1206ERGO    R316038  11.667   1.360   6.262  0.0656 -0.1419  0.0212
 1206ERGO    R416039  11.384   1.289   6.298 -0.0708  0.2504 -0.1557
 1206ERGO    R516040  11.471   1.488   6.313  0.2290  0.1194  0.0247
 1206ERGO    C116041  11.320   1.456   6.662  0.0279  0.0846 -0.0626
 1206ERGO    C216042  10.955   1.384   6.893  0.2306 -0.2267  0.1496
 1207ERGO   ROH16043   5.357  12.012   9.431 -0.2529  0.0608 -0.0828
 1207ERGO    R116044   5.318  11.978   9.153 -0.1410  0.0442 -0.0968
 1207ERGO    R216045   5.506  11.860   8.989 -0.0996 -0.0169 -0.0030
 1207ERGO    R316046   5.299  11.699   8.920 -0.1096  0.0271 -0.0796
 1207ERGO    R416047   5.462  11.716   8.678  0.0381 -0.0834  0.0072
 1207ERGO    R516048   5.249  11.758   8.694  0.0388 -0.0148 -0.1256
 1207ERGO    C116049   5.242  11.481   8.432  0.1089 -0.0808 -0.0587
 1207ERGO    C216050   5.484  11.466   8.083 -0.0642 -0.1148 -0.1354
 1208ERGO   ROH16051  18.389  10.619   9.589  0.1382  0.1357 -0.0147
 1208ERGO    R116052  18.543  10.630   9.352  0.0420 -0.0027 -0.0840
 1208ERGO    R216053  18.564  10.417   9.178 -0.1448 -0.0535 -0.0382
 1208ERGO    R316054  18.481  10.599   8.994 -0.1246 -0.0578 -0.0530
 1208ERGO    R416055  18.662  10.422   8.846 -0.1936 -0.1433 -0.0552
 1208ERGO    R516056  18.675  10.640   8.859 -0.1287 -0.1384 -0.0912
 1208ERGO    C116057  18.641  10.597   8.481 -0.2031 -0.1997 -0.0788
 1208ERGO    C216058  18.751  10.341   8.124 -0.0324  0.0957  0.1513
 1209ERGO   ROH16059   8.638  11.238   8.784  0.2134 -0.4478 -0.0212
 1209ERGO    R116060   8.545  11.214   8.518  0.2026 -0.2947 -0.0326
 1209ERGO    R216061   8.627  11.383   8.315  0.1579 -0.1471  0.0696
 1209ERGO    R316062   8.692  11.151   8.191  0.1970 -0.0556 -0.0825
 1209ERGO    R416063   8.672  11.348   7.975 -0.1995  0.0007  0.0027
 1209ERGO    R516064   8.568  11.156   7.986 -0.0402 -0.0817  0.0579
 1209ERGO    C116065   8.760  11.109   7.659 -0.3708  0.1726 -0.1791
 1209ERGO    C216066   8.644  11.079   7.382  0.0149 -0.0803  0.2142
 1210ERGO   ROH16067  11.622  15.556   5.968  0.1194  0.0712 -0.2544
 1210ERGO    R116068  11.771  15.549   6.209 -0.0684  0.0753 -0.1352
 1210ERGO    R216069  11.740  15.349   6.397 -0.1035 -0.0104 -0.2303
 1210ERGO    R316070  12.008  15.321   6.365 -0.0594  0.1597 -0.0254
 1210ERGO    R416071  11.966  15.312   6.656 -0.3140 -0.1782 -0.0661
 1210ERGO    R516072  12.103  15.444   6.548 -0.2811  0.0097  0.1965
 1210ERGO    C116073  12.350  15.265   6.776 -0.3952 -0.1164  0.2219
 1210ERGO    C216074  12.499  15.161   7.069  0.0890  0.3913  0.0279
 1211ERGO   ROH16075   0.144   1.331   5.635 -0.1672 -0.1714  0.0035
 1211ERGO    R116076   0.237   1.278   5.897 -0.0809 -0.1306 -0.0189
 1211ERGO    R216077   0.079   1.159   6.090  0.0105 -0.1787  0.0245
 1211ERGO    R316078   0.285   0.983   6.106  0.0760 -0.1072 -0.0199
 1211ERGO    R416079   0.133   0.941   6.353  0.1896 -0.0991  0.0556
 1211ERGO    R516080   0.346   0.984   6.337  0.1716 -0.0316 -0.0431
 1211ERGO    C116081   0.358   0.649   6.521  0.3553  0.0143  0.0319
 1211ERGO    C216082   0.266   0.408   6.778 -0.1294  0.1317 -0.0614
 1212ERGO   ROH16083  18.064   5.615   5.885  0.0276  0.2574 -0.0614
 1212ERGO    R116084  18.166   5.625   6.149  0.0467 -0.0460 -0.0529
 1212ERGO    R216085  18.104   5.829   6.325  0.4164  0.0006  0.0409
 1212ERGO    R316086  18.028   5.623   6.485  0.0324  0.0584 -0.0597
 1212ERGO    R416087  18.088   5.843   6.670  0.3186 -0.1095  0.0400
 1212ERGO    R516088  18.170   5.641   6.677 -0.0055 -0.2434 -0.0035
 1212ERGO    C116089  18.007   5.658   7.021 -0.0987 -0.1194 -0.0550
 1212ERGO    C216090  17.982   5.522   7.292  0.1004 -0.1615  0.0394
 1213ERGO   ROH16091   7.837  16.679   5.806 -0.3158  0.1582  0.1689
 1213ERGO    R116092   7.759  16.622   6.072 -0.3417  0.0113  0.1310
 1213ERGO    R216093   7.514  16.511   6.135 -0.2615 -0.2337  0.0299
 1213ERGO    R316094   7.666  16.327   6.263 -0.1257 -0.1303  0.0193
 1213ERGO    R416095   7.402  16.304   6.387 -0.0470 -0.1811  0.1707
 1213ERGO    R516096   7.591  16.335   6.490 -0.0041 -0.0737  0.0564
 1213ERGO    C116097   7.480  16.009   6.655  0.2053 -0.0533  0.2428
 1213ERGO    C216098   7.364  15.947   6.897  0.1585  0.0273  0.2858
 1214ERGO   ROH16099  15.550   6.091   9.307  0.0486  0.0594 -0.1938
 1214ERGO    R116100  15.495   5.972   9.056 -0.0124  0.0200 -0.1618
 1214ERGO    R216101  15.237   5.916   8.971 -0.0434  0.1512 -0.1563
 1214ERGO    R316102  15.312   6.064   8.755  0.0556  0.0444 -0.1960
 1214ERGO    R416103  15.170   5.833   8.643 -0.1894  0.1591 -0.1293
 1214ERGO    R516104  15.370   5.901   8.590 -0.1330 -0.0414 -0.1811
 1214ERGO    C116105  15.201   5.923   8.248 -0.1814  0.0635 -0.1508
 1214ERGO    C216106  15.222   5.939   7.899 -0.0174  0.1730 -0.0325
 1215ERGO   ROH16107   0.999  16.136   9.665 -0.3359  0.1239  0.1511
 1215ERGO    R116108   0.928  16.221   9.405 -0.2462  0.0791  0.1114
 1215ERGO    R216109   1.061  16.424   9.273 -0.1995  0.0548  0.1211
 1215ERGO    R316110   1.089  16.236   9.078 -0.1343  0.0209  0.1631
 1215ERGO    R416111   0.978  16.470   8.940  0.1457  0.0835  0.0356
 1215ERGO    R516112   0.898  16.267   8.938  0.0171  0.1338 -0.0229
 1215ERGO    C116113   0.956  16.319   8.564  0.4080  0.0684  0.0252
 1215ERGO    C216114   0.796  16.265   8.222 -0.0266 -0.1373  0.1582
 1216ERGO   ROH16115   3.946  14.920   9.256 -0.0957 -0.0956 -0.0883
 1216ERGO    R116116   4.141  15.001   9.068 -0.0818  0.0353 -0.0176
 1216ERGO    R216117   4.189  14.863   8.832  0.0622  0.0949 -0.0204
 1216ERGO    R316118   4.145  15.107   8.719 -0.0299  0.0877 -0.0028
 1216ERGO    R416119   4.238  14.938   8.499  0.1966  0.1690  0.0150
 1216ERGO    R516120   4.321  15.130   8.559  0.0478  0.2174  0.0930
 1216ERGO    C116121   4.225  15.210   8.198  0.1883  0.2055  0.0522
 1216ERGO    C216122   4.249  15.267   7.827  0.0378 -0.0411 -0.1077
 1217ERGO   ROH16123   4.943  18.789   8.749  0.0436  0.0882  0.0104
 1217ERGO    R116124   5.107  18.611   8.603 -0.0108 -0.0065  0.0666
 1217ERGO    R216125   5.013  18.372   8.501 -0.1235  0.0710  0.0072
 1217ERGO    R316126   5.112  18.470   8.267  0.0474  0.0195  0.0543
 1217ERGO    R416127   5.092  18.180   8.224 -0.2137  0.0316  0.0071
 1217ERGO    R516128   5.269  18.304   8.195 -0.0802 -0.1246  0.0852
 1217ERGO    C116129   5.230  18.160   7.844 -0.1057 -0.0397  0.0511
 1217ERGO    C216130   5.268  18.022   7.619  0.0367 -0.2382  0.0958
 1218ERGO   ROH16131  16.136  13.322   9.665 -0.0969  0.2515  0.0942
 1218ERGO    R116132  16.014  13.180   9.452 -0.1151  0.1214  0.1870
 1218ERGO    R216133  15.790  13.275   9.320 -0.1422  0.0365  0.1524
 1218ERGO    R316134  15.946  13.241   9.100 -0.1560 -0.0783  0.1621
 1218ERGO    R416135  15.675  13.275   8.994 -0.1211  0.0292  0.1465
 1218ERGO    R516136  15.811  13.111   8.951 -0.2044 -0.0368  0.1809
 1218ERGO    C116137  15.754  13.244   8.598 -0.1217 -0.0830  0.1524
 1218ERGO    C216138  15.863  13.308   8.261 -0.2617 -0.2837 -0.2877
 1219ERGO   ROH16139   2.350   0.809   9.312  0.1800 -0.0114  0.0155
 1219ERGO    R116140   2.313   0.940   9.064  0.2526  0.1247  0.0760
 1219ERGO    R216141   2.525   1.018   8.903  0.2950 -0.0559  0.0431
 1219ERGO    R316142   2.393   0.873   8.715  0.0705  0.1624  0.0261
 1219ERGO    R416143   2.518   1.092   8.566  0.3336  0.0382  0.0622
 1219ERGO    R516144   2.308   1.037   8.562  0.2576  0.3151  0.0819
 1219ERGO    C116145   2.391   0.999   8.192  0.1453  0.2980  0.0572
 1219ERGO    C216146   2.582   0.977   7.954 -0.0717  0.4074 -0.1779
 1220ERGO   ROH16147  11.075   3.575   6.860  0.1788 -0.2509 -0.2905
 1220ERGO    R116148  11.141   3.355   7.025  0.3041 -0.1876 -0.2559
 1220ERGO    R216149  11.402   3.291   7.091  0.3229  0.1908  0.0533
 1220ERGO    R316150  11.306   3.304   7.345 -0.0147 -0.0041 -0.0551
 1220ERGO    R416151  11.490   3.076   7.347  0.1366  0.1040  0.0468
 1220ERGO    R516152  11.282   3.076   7.412  0.0429 -0.0630 -0.2157
 1220ERGO    C116153  11.451   2.963   7.734 -0.2887 -0.1296 -0.0588
 1220ERGO    C216154  11.414   2.839   8.109 -0.1255  0.1995 -0.2635
 1221ERGO   ROH16155  15.606  16.097   6.347 -0.1246 -0.1225 -0.0269
 1221ERGO    R116156  15.496  16.040   6.602  0.0318 -0.0257  0.0625
 1221ERGO    R216157  15.618  16.117   6.838  0.0680  0.2493 -0.0516
 1221ERGO    R316158  15.376  16.231   6.887 -0.0066  0.0851 -0.0242
 1221ERGO    R416159  15.474  16.147   7.150  0.3168  0.5725  0.0392
 1221ERGO    R516160  15.282  16.097   7.061  0.2788  0.2396  0.2702
 1221ERGO    C116161  15.162  16.271   7.379  0.3916  0.6067  0.1178
 1221ERGO    C216162  15.027  16.576   7.391  0.1076  0.0073  0.1677
 1222ERGO   ROH16163   4.007   9.949   6.141  0.0018 -0.0019 -0.0480
 1222ERGO    R116164   4.196   9.947   6.352 -0.0144  0.1047 -0.0326
 1222ERGO    R216165   4.241  10.167   6.514 -0.1338  0.1375 -0.0464
 1222ERGO    R316166   4.189   9.990   6.714 -0.0631  0.1280 -0.0356
 1222ERGO    R416167   4.448  10.108   6.784 -0.0769  0.1921 -0.0776
 1222ERGO    R516168   4.403   9.895   6.766 -0.0307  0.1790 -0.0676
 1222ERGO    C116169   4.520   9.907   7.129  0.0226  0.2152 -0.0855
 1222ERGO    C216170   4.591  10.091   7.353  0.4218 -0.1405  0.1562
 1223ERGO   ROH16171   9.637  18.344   6.207 -0.0836  0.0080  0.0631
 1223ERGO    R116172   9.618  18.419   6.479  0.1213  0.0698  0.0624
 1223ERGO    R216173   9.726  18.654   6.577 -0.0625  0.2404 -0.1346
 1223ERGO    R316174   9.473  18.695   6.668 -0.0208 -0.0489  0.1294
 1223ERGO    R416175   9.642  18.859   6.842 -0.0334  0.2770 -0.1538
 1223ERGO    R516176   9.497  18.710   6.906  0.2338  0.1131  0.0980
 1223ERGO    C116177   9.356  19.018   7.081  0.0226  0.0265  0.0830
 1223ERGO    C216178   9.384  19.266   7.254  0.1099 -0.0659 -0.0282
 1224ERGO   ROH16179   3.643   1.612   5.633  0.1340  0.0800 -0.0470
 1224ERGO    R116180   3.552   1.450   5.846  0.0440  0.0502 -0.1040
 1224ERGO    R216181   3.392   1.547   6.050  0.0172  0.0448 -0.1049
 1224ERGO    R316182   3.231   1.341   5.977 -0.0140  0.1096 -0.2073
 1224ERGO    R416183   3.094   1.465   6.203  0.1025 -0.1273 -0.0328
 1224ERGO    R516184   3.146   1.255   6.183  0.0961 -0.0935 -0.2572
 1224ERGO    C116185   2.768   1.224   6.224  0.1228 -0.1667 -0.0871
 1224ERGO    C216186   2.570   1.029   6.203  0.0297 -0.3449  0.0730
 1225ERGO   ROH16187  14.258   9.941   6.236 -0.0867 -0.0945  0.0110
 1225ERGO    R116188  14.084   9.950   6.459 -0.1187  0.0158 -0.0188
 1225ERGO    R216189  14.153   9.850   6.707 -0.1368  0.1816  0.0518
 1225ERGO    R316190  14.086  10.100   6.790 -0.1907  0.2230 -0.1092
 1225ERGO    R416191  14.129   9.947   7.037 -0.0956  0.4019 -0.0080
 1225ERGO    R516192  13.952  10.063   6.985 -0.1417  0.3169 -0.0543
 1225ERGO    C116193  14.052  10.239   7.309 -0.1221  0.5691 -0.1940
 1225ERGO    C216194  14.242  10.268   7.578  0.1931 -0.2556  0.0777
 1226ERGO   ROH16195   3.405  14.058   9.158  0.0378  0.0875 -0.0160
 1226ERGO    R116196   3.308  14.100   8.895  0.0971  0.0976 -0.0363
 1226ERGO    R216197   3.378  14.321   8.745  0.1565  0.0866 -0.0240
 1226ERGO    R316198   3.452  14.133   8.563  0.1691  0.0760 -0.0078
 1226ERGO    R416199   3.454  14.386   8.414  0.0449  0.0522 -0.0564
 1226ERGO    R516200   3.348  14.203   8.359  0.0892  0.0050  0.0069
 1226ERGO    C116201   3.567  14.247   8.050 -0.0083  0.0223 -0.0601
 1226ERGO    C216202   3.463  14.279   7.653 -0.0862 -0.1462 -0.1997
 1227ERGO   ROH16203  17.709   9.295   5.916  0.1613  0.1634  0.0595
 1227ERGO    R116204  17.633   9.421   6.157 -0.0601 -0.0021  0.0807
 1227ERGO    R216205  17.384   9.385   6.273 -0.0688 -0.3084 -0.0167
 1227ERGO    R316206  17.532   9.316   6.491 -0.0680 -0.2329  0.0059
 1227ERGO    R416207  17.254   9.272   6.572 -0.0457 -0.4963 -0.0767
 1227ERGO    R516208  17.402   9.393   6.677 -0.1814 -0.3938 -0.0092
 1227ERGO    C116209  17.316   9.142   6.951 -0.0316 -0.5348 -0.0904
 1227ERGO    C216210  17.113   8.902   7.147  0.1827  0.0275  0.2237
 1228ERGO   ROH16211   0.214  11.244   6.319 -0.1659  0.1323 -0.0351
 1228ERGO    R116212   0.333  11.313   6.566 -0.1076  0.2393 -0.0915
 1228ERGO    R216213   0.221  11.499   6.738 -0.1937  0.1432 -0.0367
 1228ERGO    R316214   0.240  11.296   6.918  0.0737  0.1558 -0.0476
 1228ERGO    R416215   0.154  11.527   7.076 -0.1371  0.0522 -0.0181
 1228ERGO    R516216   0.326  11.399   7.116  0.0114  0.2389 -0.0667
 1228ERGO    C116217   0.132  11.352   7.441  0.1470  0.0113 -0.0176
 1228ERGO    C216218  -0.111  11.520   7.651 -0.2023  0.5250 -0.2593
 1229ERGO   ROH16219   0.917  11.899   9.678 -0.2236  0.0556  0.0214
 1229ERGO    R116220   0.808  11.798   9.437 -0.2020  0.1307 -0.0202
 1229ERGO    R216221   0.831  11.931   9.195 -0.0173  0.1163 -0.0129
 1229ERGO    R316222   0.936  11.695   9.112 -0.1478  0.0427  0.0292
 1229ERGO    R416223   0.945  11.867   8.875  0.1899  0.0793  0.0666
 1229ERGO    R516224   0.855  11.669   8.888  0.0119  0.1520 -0.0421
 1229ERGO    C116225   1.109  11.607   8.611  0.1881 -0.0114  0.1523
 1229ERGO    C216226   1.343  11.584   8.332 -0.0598 -0.4568 -0.2048
 1230ERGO   ROH16227  14.431  11.633   6.320  0.1504  0.0321 -0.2651
 1230ERGO    R116228  14.368  11.782   6.552 -0.1151 -0.1912 -0.1879
 1230ERGO    R216229  14.287  11.663   6.787  0.2795 -0.4767 -0.1862
 1230ERGO    R316230  14.493  11.806   6.893 -0.0110  0.0029 -0.2385
 1230ERGO    R416231  14.318  11.748   7.121  0.2298 -0.5168 -0.1713
 1230ERGO    R516232  14.390  11.944   7.059 -0.2810 -0.3036 -0.1404
 1230ERGO    C116233  14.529  11.932   7.414 -0.0719 -0.0901 -0.2117
 1230ERGO    C216234  14.677  12.186   7.613 -0.1495  0.0109 -0.1059
 1231ERGO   ROH16235   8.004   8.130   6.193  0.0227  0.1272  0.0042
 1231ERGO    R116236   8.065   8.048   6.457 -0.0403  0.3383  0.0873
 1231ERGO    R216237   7.945   8.160   6.679 -0.4477  0.1985 -0.0500
 1231ERGO    R316238   7.884   7.901   6.737 -0.0063  0.0941 -0.0169
 1231ERGO    R416239   7.872   8.039   6.995 -0.1592  0.0852 -0.0231
 1231ERGO    R516240   7.988   7.861   6.949  0.1230  0.2721 -0.0461
 1231ERGO    C116241   7.771   7.726   7.232  0.4231 -0.0788  0.0236
 1231ERGO    C216242   7.656   7.621   7.644 -0.0164 -0.4945  0.3293
 1232ERGO   ROH16243   5.925   0.108   5.621  0.0338 -0.3351 -0.0666
 1232ERGO    R116244   6.025   0.215   5.863  0.0648 -0.0137 -0.2185
 1232ERGO    R216245   6.045   0.066   6.095 -0.1213  0.3544  0.0342
 1232ERGO    R316246   6.304   0.148   6.087 -0.0455  0.1223 -0.0337
 1232ERGO    R416247   6.277   0.011   6.345 -0.0759  0.0238 -0.0750
 1232ERGO    R516248   6.353   0.212   6.313  0.0984 -0.0213 -0.0158
 1232ERGO    C116249   6.656   0.055   6.482  0.0217 -0.3866 -0.2023
 1232ERGO    C216250   6.889   0.173   6.705  0.6639 -0.0435 -0.3714
 1233ERGO   ROH16251  12.449   6.581   9.321 -0.0348 -0.0374 -0.0868
 1233ERGO    R116252  12.483   6.647   9.048 -0.0805  0.0239 -0.0773
 1233ERGO    R216253  12.270   6.706   8.881 -0.1111  0.0012 -0.0413
 1233ERGO    R316254  12.412   6.933   8.834 -0.1751  0.0470 -0.0171
 1233ERGO    R416255  12.270   6.882   8.583  0.1975 -0.2331 -0.1859
 1233ERGO    R516256  12.484   6.913   8.607  0.1544 -0.0934  0.0917
 1233ERGO    C116257  12.403   7.197   8.366  0.3170 -0.3264 -0.2474
 1233ERGO    C216258  12.656   7.476   8.133  0.0777  0.0184 -0.0402
 1234ERGO   ROH16259   8.353   5.580   5.953 -0.0611  0.4773  0.0980
 1234ERGO    R116260   8.251   5.626   6.213 -0.0576  0.2355  0.1441
 1234ERGO    R216261   8.275   5.442   6.417  0.1483  0.1399  0.0326
 1234ERGO    R316262   8.387   5.651   6.549 -0.0205  0.1681  0.1354
 1234ERGO    R416263   8.457   5.418   6.710  0.1767  0.1339  0.0149
 1234ERGO    R516264   8.359   5.599   6.781  0.0265  0.0223  0.1117
 1234ERGO    C116265   8.667   5.600   7.005  0.0347  0.1569  0.1010
 1234ERGO    C216266   8.894   5.592   7.359 -0.0065  0.1935  0.0491
 1235ERGO   ROH16267   3.424  16.263   5.936  0.2848  0.1446  0.0165
 1235ERGO    R116268   3.354  16.452   6.135  0.3180  0.0736  0.0950
 1235ERGO    R216269   3.095  16.482   6.227  0.2900  0.2088 -0.0311
 1235ERGO    R316270   3.211  16.443   6.469  0.1272 -0.0284  0.0129
 1235ERGO    R416271   2.965  16.592   6.527  0.1728  0.0641 -0.0271
 1235ERGO    R516272   3.167  16.645   6.589  0.1676 -0.0886  0.1324
 1235ERGO    C116273   2.997  16.619   6.930 -0.0483 -0.2432  0.0166
 1235ERGO    C216274   2.718  16.685   7.081 -0.0736  0.0068  0.0040
 1236ERGO   ROH16275   0.146   7.238   6.356  0.2675  0.1722 -0.0384
 1236ERGO    R116276   0.276   7.009   6.458  0.0570  0.0972  0.0712
 1236ERGO    R216277   0.550   6.994   6.489  0.0719 -0.2075 -0.0972
 1236ERGO    R316278   0.486   6.928   6.745  0.1473  0.0962  0.0025
 1236ERGO    R416279   0.765   6.842   6.713  0.0239 -0.2450 -0.0779
 1236ERGO    R516280   0.598   6.720   6.782 -0.0698  0.0064  0.1314
 1236ERGO    C116281   0.830   6.692   7.084  0.0666  0.0183  0.0270
 1236ERGO    C216282   0.886   6.568   7.420  0.1108  0.0898 -0.1008
 1237ERGO   ROH16283   9.825  13.145   6.110  0.1761 -0.1559  0.0379
 1237ERGO    R116284   9.839  13.125   6.392  0.0193 -0.3571  0.0337
 1237ERGO    R216285   9.846  13.347   6.557  0.2144 -0.4699  0.1782
 1237ERGO    R316286   9.634  13.226   6.675  0.0069 -0.2887  0.0011
 1237ERGO    R416287   9.771  13.364   6.894  0.0210 -0.5099  0.1385
 1237ERGO    R516288   9.717  13.153   6.888 -0.2011 -0.4547  0.0306
 1237ERGO    C116289   9.527  13.261   7.201 -0.2866 -0.3631 -0.0509
 1237ERGO    C216290   9.249  13.334   7.545 -0.2390  0.0018  0.0360
 1238ERGO   ROH16291  13.856  11.110   9.560 -0.2730  0.1308  0.2641
 1238ERGO    R116292  13.959  11.089   9.297 -0.2208  0.2748  0.2714
 1238ERGO    R216293  13.925  10.865   9.141  0.1726  0.1846  0.2937
 1238ERGO    R316294  13.824  11.043   8.962 -0.1310 -0.0023  0.2726
 1238ERGO    R416295  14.003  10.871   8.804  0.0557  0.2070  0.2675
 1238ERGO    R516296  14.008  11.089   8.815 -0.2436  0.2158  0.2028
 1238ERGO    C116297  13.954  11.042   8.440 -0.2973  0.0447  0.2326
 1238ERGO    C216298  14.105  10.862   8.140 -0.1260  0.0645  0.1905
 1239ERGO   ROH16299   6.655   5.666   9.737 -0.0010  0.1760 -0.1391
 1239ERGO    R116300   6.766   5.662   9.476 -0.0110 -0.0716 -0.1456
 1239ERGO    R216301   6.672   5.495   9.276 -0.2183 -0.0630 -0.0781
 1239ERGO    R316302   6.648   5.728   9.139  0.0440 -0.0862 -0.1631
 1239ERGO    R416303   6.680   5.524   8.932 -0.1236 -0.1618 -0.0824
 1239ERGO    R516304   6.798   5.705   8.954  0.0464 -0.2843 -0.1234
 1239ERGO    C116305   6.662   5.759   8.602  0.1778 -0.2410 -0.1649
 1239ERGO    C216306   6.735   5.666   8.238 -0.0412 -0.2663 -0.0259
 1240ERGO   ROH16307  17.845  16.111   9.627  0.1006 -0.1601 -0.0309
 1240ERGO    R116308  17.741  16.235   9.396  0.1801  0.0643  0.0511
 1240ERGO    R216309  17.896  16.388   9.226  0.3567 -0.1843 -0.0168
 1240ERGO    R316310  17.800  16.218   9.037 -0.0637  0.0105  0.0113
 1240ERGO    R416311  17.918  16.440   8.885  0.4263 -0.2563 -0.0235
 1240ERGO    R516312  17.715  16.363   8.866  0.2351  0.2000  0.0135
 1240ERGO    C116313  17.839  16.311   8.509  0.0723 -0.1151 -0.0009
 1240ERGO    C216314  17.910  16.217   8.187  0.3069  0.2782 -0.2481
 1241ERGO   ROH16315  17.545   6.581   9.545  0.2114 -0.0428 -0.2115
 1241ERGO    R116316  17.536   6.693   9.286  0.0093  0.0223 -0.1773
 1241ERGO    R216317  17.577   6.543   9.057 -0.0951  0.0955 -0.2402
 1241ERGO    R316318  17.336   6.647   8.985 -0.1729  0.0445 -0.0628
 1241ERGO    R416319  17.459   6.564   8.733 -0.1732  0.3994 -0.1959
 1241ERGO    R516320  17.380   6.761   8.779 -0.2778  0.3091  0.0523
 1241ERGO    C116321  17.166   6.674   8.476 -0.2917  0.5285 -0.0037
 1241ERGO    C216322  17.081   6.707   8.112 -0.0716 -0.0252 -0.0197
 1242ERGO   ROH16323   9.330  17.182   6.019 -0.0480 -0.1452  0.1620
 1242ERGO    R116324   9.304  17.402   6.194  0.0235 -0.1064  0.1254
 1242ERGO    R216325   9.071  17.548   6.217  0.1353  0.1148 -0.0622
 1242ERGO    R316326   9.098  17.490   6.481 -0.1159  0.1037 -0.0374
 1242ERGO    R416327   8.983  17.759   6.476  0.2691  0.2663 -0.1390
 1242ERGO    R516328   9.163  17.697   6.581  0.1144  0.0216 -0.0181
 1242ERGO    C116329   8.956  17.827   6.874  0.1112  0.3440 -0.1605
 1242ERGO    C216330   8.938  18.083   7.213 -0.0192 -0.1777 -0.0393
 1243ERGO   ROH16331  15.436   8.743   9.285  0.1141 -0.0332  0.1391
 1243ERGO    R116332  15.494   8.678   9.016 -0.0669 -0.0492  0.1021
 1243ERGO    R216333  15.299   8.602   8.835 -0.2063  0.0508  0.2049
 1243ERGO    R316334  15.403   8.805   8.687 -0.1916  0.0098  0.1598
 1243ERGO    R416335  15.211   8.674   8.509 -0.2155  0.0033  0.1972
 1243ERGO    R516336  15.421   8.715   8.466 -0.2160 -0.0306  0.1764
 1243ERGO    C116337  15.258   8.906   8.180 -0.2070 -0.0628  0.1503
 1243ERGO    C216338  15.031   9.000   7.902 -0.1295 -0.3265  0.0533
 1244ERGO   ROH16339   8.690  17.609   9.191  0.1815  0.2207  0.0588
 1244ERGO    R116340   8.836  17.663   8.955  0.0753 -0.0549 -0.0734
 1244ERGO    R216341   8.820  17.502   8.730 -0.3943 -0.0570 -0.0482
 1244ERGO    R316342   8.759  17.737   8.607 -0.1000  0.0424 -0.0145
 1244ERGO    R416343   8.834  17.556   8.389 -0.4286 -0.0553 -0.0495
 1244ERGO    R516344   8.917  17.754   8.428 -0.1317 -0.1734 -0.0646
 1244ERGO    C116345   8.784  17.807   8.075 -0.1721  0.0388 -0.0186
 1244ERGO    C216346   8.599  17.857   7.807  0.1276 -0.2796 -0.1241
 1245ERGO   ROH16347  14.497   6.636   5.624 -0.1909  0.0002 -0.1276
 1245ERGO    R116348  14.323   6.712   5.833 -0.2752 -0.1064 -0.1591
 1245ERGO    R216349  14.186   6.528   5.986 -0.0440 -0.1985 -0.0641
 1245ERGO    R316350  14.303   6.660   6.193 -0.1964  0.0494 -0.1302
 1245ERGO    R416351  14.101   6.488   6.319  0.1634 -0.3223 -0.0240
 1245ERGO    R516352  14.123   6.703   6.345 -0.2248 -0.2666 -0.0615
 1245ERGO    C116353  14.162   6.588   6.707  0.1412 -0.1616 -0.0625
 1245ERGO    C216354  14.209   6.519   7.010 -0.1956 -0.0286  0.5038
 1246ERGO   ROH16355  16.025  12.200   9.644  0.0420 -0.1267  0.1527
 1246ERGO    R116356  16.001  12.088   9.384 -0.1636 -0.0277  0.1270
 1246ERGO    R216357  15.913  12.234   9.167 -0.1013  0.1263  0.2009
 1246ERGO    R316358  16.146  12.148   9.056 -0.2226 -0.0715  0.0940
 1246ERGO    R416359  15.973  12.215   8.828 -0.1832  0.2945  0.1756
 1246ERGO    R516360  16.076  12.026   8.862 -0.4014  0.1477  0.0189
 1246ERGO    C116361  16.226  12.123   8.525 -0.3448  0.2067  0.0604
 1246ERGO    C216362  16.290  12.106   8.169 -0.0292  0.1535  0.3620
 1247ERGO   ROH16363  18.499  13.201   6.401  0.0161  0.0628  0.0156
 1247ERGO    R116364  18.435  13.175   6.676  0.1137  0.0875  0.0408
 1247ERGO    R216365  18.272  12.974   6.772  0.0520  0.1664  0.0998
 1247ERGO    R316366  18.483  12.926   6.936  0.0943  0.0562  0.0148
 1247ERGO    R416367  18.249  12.840   7.090  0.1079  0.1938  0.1158
 1247ERGO    R516368  18.402  12.981   7.155  0.2141  0.1122  0.0466
 1247ERGO    C116369  18.433  12.717   7.429  0.1800  0.1062  0.0454
 1247ERGO    C216370  18.354  12.473   7.738  0.1446 -0.2270  0.1912
 1248ERGO   ROH16371   8.712  14.459   5.840 -0.2760 -0.1747 -0.0217
 1248ERGO    R116372   8.636  14.596   6.076 -0.1463 -0.2058  0.0397
 1248ERGO    R216373   8.380  14.585   6.179 -0.1238 -0.1186  0.1114
 1248ERGO    R316374   8.508  14.506   6.405 -0.0920 -0.2414  0.0508
 1248ERGO    R416375   8.226  14.517   6.481 -0.0413  0.0847  0.2006
 1248ERGO    R516376   8.391  14.616   6.582  0.1255 -0.0908  0.1035
 1248ERGO    C116377   8.258  14.403   6.869  0.0367  0.0878  0.1956
 1248ERGO    C216378   8.036  14.249   7.156 -0.1005  0.0609 -0.2562
 1249ERGO   ROH16379  17.674  14.561   7.719  0.2160 -0.0739 -0.0703
 1249ERGO    R116380  17.687  14.286   7.653  0.1207 -0.0678 -0.1181
 1249ERGO    R216381  17.733  14.197   7.396  0.1482 -0.0395 -0.1247
 1249ERGO    R316382  17.935  14.058   7.515  0.0634 -0.1417 -0.0986
 1249ERGO    R416383  17.901  13.931   7.253  0.2458  0.0777 -0.2294
 1249ERGO    R516384  17.899  13.831   7.447  0.1081 -0.0852 -0.3135
 1249ERGO    C116385  18.189  13.646   7.281  0.2229  0.0499 -0.2658
 1249ERGO    C216386  18.435  13.472   7.069  0.1149 -0.2906  0.0153
 1250ERGO   ROH16387  14.500   4.326   8.976  0.1226 -0.0925  0.0837
 1250ERGO    R116388  14.488   4.141   8.763  0.0641  0.0392 -0.0314
 1250ERGO    R216389  14.277   3.965   8.730  0.1718 -0.1232  0.0674
 1250ERGO    R316390  14.267   4.075   8.481 -0.1728  0.0472  0.1525
 1250ERGO    R416391  14.197   3.792   8.442  0.3637 -0.0595 -0.0247
 1250ERGO    R516392  14.353   3.903   8.338  0.0908  0.3273 -0.0252
 1250ERGO    C116393  14.140   3.794   8.041  0.1520  0.1375  0.0018
 1250ERGO    C216394  13.997   3.481   7.906 -0.0674 -0.0223 -0.1601
 1251ERGO   ROH16395   7.598  18.364   9.062 -0.0866  0.0017  0.0047
 1251ERGO    R116396   7.483  18.305   8.811 -0.0307 -0.0116 -0.0177
 1251ERGO    R216397   7.321  18.482   8.676 -0.0060 -0.0225 -0.0595
 1251ERGO    R316398   7.499  18.442   8.474  0.0374 -0.0255 -0.0209
 1251ERGO    R416399   7.237  18.459   8.341  0.0278 -0.2965 -0.0513
 1251ERGO    R516400   7.382  18.298   8.321  0.1469 -0.2085  0.0627
 1251ERGO    C116401   7.354  18.408   7.957  0.0881 -0.4589 -0.0103
 1251ERGO    C216402   7.169  18.449   7.754  0.0932 -0.1121  0.2055
 1252ERGO   ROH16403  12.926  17.381   6.105 -0.3222 -0.2762 -0.1845
 1252ERGO    R116404  12.968  17.453   6.376 -0.2104 -0.1788 -0.2286
 1252ERGO    R216405  12.760  17.490   6.554 -0.1302 -0.1377 -0.1569
 1252ERGO    R316406  12.896  17.308   6.701 -0.0517 -0.0693 -0.1406
 1252ERGO    R416407  12.784  17.492   6.899 -0.2575 -0.1625 -0.1460
 1252ERGO    R516408  12.993  17.434   6.880 -0.2005 -0.0174 -0.0859
 1252ERGO    C116409  12.926  17.321   7.238 -0.2580 -0.1126 -0.1244
 1252ERGO    C216410  13.029  17.361   7.626 -0.2011  0.0802 -0.2250
 1253ERGO   ROH16411  16.103   8.140   8.988 -0.0226 -0.1539  0.0508
 1253ERGO    R116412  16.095   7.969   8.764 -0.0964 -0.1041  0.0152
 1253ERGO    R216413  15.921   8.008   8.552 -0.1312 -0.0288  0.0583
 1253ERGO    R316414  16.150   8.000   8.405 -0.1621 -0.0367  0.0105
 1253ERGO    R416415  15.934   8.000   8.207 -0.2027  0.1647  0.0499
 1253ERGO    R516416  16.097   7.856   8.221 -0.2569  0.0891 -0.0633
 1253ERGO    C116417  16.155   7.987   7.868 -0.2734  0.2700  0.0000
 1253ERGO    C216418  16.240   7.904   7.519 -0.2139  0.3300  0.0322
 1254ERGO   ROH16419  18.788  12.861   6.123  0.0747 -0.1763 -0.0178
 1254ERGO    R116420  18.541  12.792   6.243  0.0584 -0.2364 -0.0816
 1254ERGO    R216421  18.469  12.531   6.298  0.1331 -0.2565 -0.0380
 1254ERGO    R316422  18.432  12.628   6.549  0.0241 -0.1995 -0.0767
 1254ERGO    R416423  18.292  12.371   6.548  0.2350 -0.3006  0.0048
 1254ERGO    R516424  18.209  12.563   6.606  0.0757 -0.3543 -0.0741
 1254ERGO    C116425  18.155  12.369   6.930  0.1920 -0.2728 -0.0065
 1254ERGO    C216426  18.090  12.368   7.289 -0.2224  0.2786  0.0712
 1255ERGO   ROH16427  11.672   4.347   9.274 -0.2524  0.0597 -0.1186
 1255ERGO    R116428  11.786   4.395   9.019 -0.2233  0.2795 -0.0642
 1255ERGO    R216429  11.730   4.237   8.799  0.1579  0.1908 -0.0909
 1255ERGO    R316430  11.663   4.475   8.686 -0.2184  0.0812 -0.1180
 1255ERGO    R416431  11.695   4.291   8.460  0.2002  0.1079 -0.1103
 1255ERGO    R516432  11.793   4.484   8.485 -0.1404  0.2973 -0.0697
 1255ERGO    C116433  11.612   4.546   8.156 -0.1286 -0.0432 -0.1471
 1255ERGO    C216434  11.439   4.519   7.900  0.3522  0.2198  0.0698
 1256ERGO   ROH16435  19.074   6.713   9.528 -0.0969 -0.2101  0.0700
 1256ERGO    R116436  19.014   6.554   9.302 -0.0154 -0.0033 -0.1013
 1256ERGO    R216437  18.758   6.466   9.246  0.0493 -0.1833 -0.1175
 1256ERGO    R316438  18.805   6.583   9.005 -0.1408  0.1500  0.0001
 1256ERGO    R416439  18.573   6.410   8.959  0.1980 -0.2712 -0.1974
 1256ERGO    R516440  18.759   6.411   8.845  0.2214  0.2059 -0.1753
 1256ERGO    C116441  18.510   6.487   8.566  0.1062 -0.0094 -0.1334
 1256ERGO    C216442  18.451   6.442   8.130 -0.1394 -0.1318 -0.0463
 1257ERGO   ROH16443  16.808   9.250   9.344 -0.1477 -0.0119 -0.0610
 1257ERGO    R116444  16.884   9.200   9.076 -0.0541  0.0013 -0.0367
 1257ERGO    R216445  16.980   8.955   8.991 -0.0387  0.0035 -0.0173
 1257ERGO    R316446  16.780   8.976   8.808  0.0300  0.0256 -0.0911
 1257ERGO    R416447  16.977   8.800   8.682  0.2061  0.2522 -0.1497
 1257ERGO    R516448  16.893   8.982   8.597  0.1278  0.2725 -0.0385
 1257ERGO    C116449  16.788   8.729   8.331  0.4129  0.4177 -0.2961
 1257ERGO    C216450  16.911   8.586   7.979 -0.4558  0.1901 -0.0619
 1258ERGO   ROH16451   5.374   8.604   6.235  0.2199 -0.0392 -0.1895
 1258ERGO    R116452   5.559   8.665   6.441  0.0853  0.0576 -0.0916
 1258ERGO    R216453   5.480   8.759   6.689 -0.0910  0.0511 -0.1282
 1258ERGO    R316454   5.626   8.548   6.778 -0.0574  0.1119 -0.0481
 1258ERGO    R416455   5.685   8.763   6.967 -0.1403  0.1442 -0.0954
 1258ERGO    R516456   5.830   8.644   6.857 -0.1006  0.1608 -0.0301
 1258ERGO    C116457   5.942   8.566   7.213 -0.1374  0.2556 -0.0010
 1258ERGO    C216458   6.178   8.374   7.398 -0.0639  0.0943  0.1302
 1259ERGO   ROH16459   4.716   4.047   5.643 -0.1115 -0.1716 -0.0561
 1259ERGO    R116460   4.769   4.007   5.919 -0.1663 -0.1388 -0.0401
 1259ERGO    R216461   4.930   4.177   6.065  0.0582 -0.2924 -0.1017
 1259ERGO    R316462   4.713   4.191   6.228  0.0703  0.0542 -0.1091
 1259ERGO    R416463   4.935   4.283   6.394  0.2561 -0.4697 -0.0458
 1259ERGO    R516464   4.794   4.124   6.443 -0.0666 -0.2226 -0.1381
 1259ERGO    C116465   4.734   4.358   6.738  0.3828 -0.2476 -0.0204
 1259ERGO    C216466   4.763   4.433   7.052 -0.0268  0.2711  0.0043
 1260ERGO   ROH16467   0.999  17.370   9.229  0.1932 -0.0357  0.0109
 1260ERGO    R116468   1.033  17.422   8.953  0.3669 -0.1679  0.0065
 1260ERGO    R216469   1.141  17.236   8.778  0.0099 -0.4451  0.0728
 1260ERGO    R316470   0.911  17.281   8.640  0.1275  0.0202  0.0122
 1260ERGO    R416471   1.102  17.189   8.438  0.0013 -0.3698  0.0627
 1260ERGO    R516472   0.984  17.372   8.431  0.3679 -0.1241  0.0295
 1260ERGO    C116473   0.864  17.204   8.110  0.1066  0.1110 -0.0001
 1260ERGO    C216474   1.053  17.198   7.734  0.3015  0.0699  0.0818
 1261ERGO   ROH16475   3.477   6.761   5.853  0.1039  0.0759 -0.1266
 1261ERGO    R116476   3.373   6.734   6.115 -0.1371 -0.0401 -0.2317
 1261ERGO    R216477   3.261   6.499   6.207  0.0635 -0.1768 -0.3416
 1261ERGO    R316478   3.443   6.528   6.407 -0.1806  0.0634 -0.1462
 1261ERGO    R416479   3.230   6.363   6.524 -0.0381 -0.3436 -0.4209
 1261ERGO    R516480   3.310   6.549   6.605 -0.4277 -0.2264 -0.2692
 1261ERGO    C116481   3.382   6.312   6.896 -0.3265 -0.2153 -0.2836
 1261ERGO    C216482   3.536   6.098   7.140  0.0970 -0.1329  0.3168
 1262ERGO   ROH16483  11.575  17.373   6.223 -0.2036 -0.3511  0.0169
 1262ERGO    R116484  11.439  17.301   6.462 -0.0867 -0.3125  0.0961
 1262ERGO    R216485  11.573  17.241   6.696  0.0230 -0.0866  0.0956
 1262ERGO    R316486  11.410  17.433   6.799 -0.0834 -0.1402  0.0290
 1262ERGO    R416487  11.521  17.297   7.033  0.1702  0.1549  0.0805
 1262ERGO    R516488  11.310  17.330   6.991  0.1168 -0.0648  0.1745
 1262ERGO    C116489  11.339  17.510   7.326  0.1561  0.2454  0.0092
 1262ERGO    C216490  11.407  17.582   7.656 -0.2563 -0.1217 -0.0810
 1263ERGO   ROH16491  10.688   7.270   9.359  0.2639 -0.0020 -0.1205
 1263ERGO    R116492  10.659   7.240   9.079  0.1823  0.0118 -0.1142
 1263ERGO    R216493  10.415   7.186   8.960  0.1527 -0.0268 -0.0437
 1263ERGO    R316494  10.475   7.407   8.813  0.0667 -0.0039 -0.0436
 1263ERGO    R416495  10.349   7.224   8.623  0.0602 -0.0108 -0.0237
 1263ERGO    R516496  10.543   7.321   8.600  0.0301  0.0310 -0.0664
 1263ERGO    C116497  10.367   7.454   8.289 -0.0744  0.0200 -0.0120
 1263ERGO    C216498  10.244   7.527   7.844  0.0743  0.4224  0.0816
 1264ERGO   ROH16499   9.675   7.807   9.379  0.0638  0.2560 -0.1026
 1264ERGO    R116500   9.541   7.907   9.151  0.0520  0.2110 -0.1147
 1264ERGO    R216501   9.638   7.872   8.895 -0.0016  0.0946 -0.1162
 1264ERGO    R316502   9.391   7.767   8.850 -0.0379  0.1463 -0.0413
 1264ERGO    R416503   9.499   7.818   8.583  0.0281 -0.1779 -0.0854
 1264ERGO    R516504   9.308   7.888   8.661  0.0412 -0.0157 -0.1851
 1264ERGO    C116505   9.186   7.689   8.360  0.0113 -0.2880  0.0030
 1264ERGO    C216506   9.186   7.570   8.073  0.0202 -0.3963 -0.0581
 1265ERGO   ROH16507   2.318  11.901   9.803 -0.1144  0.0410 -0.0011
 1265ERGO    R116508   2.464  11.737   9.626 -0.1575 -0.0540  0.0500
 1265ERGO    R216509   2.350  11.524   9.491 -0.2806  0.0927 -0.0844
 1265ERGO    R316510   2.450  11.651   9.272 -0.0120  0.0599  0.0155
 1265ERGO    R416511   2.459  11.367   9.203 -0.0580  0.0598  0.0160
 1265ERGO    R516512   2.625  11.508   9.194  0.0087 -0.0073  0.1835
 1265ERGO    C116513   2.616  11.395   8.830  0.3238  0.0098  0.1682
 1265ERGO    C216514   2.578  11.559   8.550 -0.0211  0.1477  0.0069
 1266ERGO   ROH16515  16.463   9.180   9.031  0.0424  0.1572 -0.2327
 1266ERGO    R116516  16.337   9.126   8.783  0.1250  0.0178 -0.2432
 1266ERGO    R216517  16.450   9.194   8.541  0.2336 -0.1819 -0.2394
 1266ERGO    R316518  16.411   8.931   8.485  0.1846 -0.2106 -0.0845
 1266ERGO    R416519  16.472   9.054   8.226  0.2198 -0.3610 -0.1637
 1266ERGO    R516520  16.298   8.931   8.274  0.1873 -0.3047 -0.0942
 1266ERGO    C116521  16.448   8.724   7.991  0.1661 -0.4922  0.0258
 1266ERGO    C216522  16.444   8.492   7.678 -0.1131 -0.0585 -0.0105
 1267ERGO   ROH16523   3.490   3.301   5.763 -0.1439 -0.0080  0.0745
 1267ERGO    R116524   3.614   3.178   5.986 -0.0939 -0.0190  0.0400
 1267ERGO    R216525   3.550   2.923   6.070  0.0118 -0.0668 -0.0328
 1267ERGO    R316526   3.817   2.882   6.045  0.0299  0.0479 -0.0401
 1267ERGO    R416527   3.752   2.783   6.313  0.0362 -0.1686 -0.1098
 1267ERGO    R516528   3.905   2.929   6.263 -0.0094 -0.0732  0.0062
 1267ERGO    C116529   4.120   2.664   6.432  0.0673 -0.1202 -0.1616
 1267ERGO    C216530   4.302   2.324   6.527 -0.0191  0.2387 -0.4343
 1268ERGO   ROH16531   9.830  10.488   8.900 -0.2352 -0.1177 -0.0748
 1268ERGO    R116532   9.763  10.342   8.667 -0.1213 -0.2211 -0.0435
 1268ERGO    R216533   9.751  10.459   8.417 -0.2077 -0.2855 -0.0683
 1268ERGO    R316534   9.924  10.261   8.351 -0.0547 -0.1692 -0.0236
 1268ERGO    R416535   9.814  10.353   8.095 -0.1322 -0.3124 -0.0452
 1268ERGO    R516536   9.818  10.147   8.169  0.0271 -0.2949  0.0041
 1268ERGO    C116537  10.014  10.104   7.845  0.0553 -0.2187  0.0104
 1268ERGO    C216538  10.061   9.938   7.519  0.2761  0.2504 -0.5279
 1269ERGO   ROH16539   6.801   8.357   6.028 -0.3770 -0.2477  0.0354
 1269ERGO    R116540   6.803   8.226   6.279 -0.2912 -0.1711  0.0779
 1269ERGO    R216541   6.998   8.271   6.469 -0.0994 -0.2665 -0.0769
 1269ERGO    R316542   6.785   8.324   6.629  0.0581 -0.0365  0.0585
 1269ERGO    R416543   6.958   8.148   6.789 -0.2183 -0.5272 -0.1905
 1269ERGO    R516544   6.746   8.118   6.745 -0.2891 -0.0832 -0.1449
 1269ERGO    C116545   6.734   8.126   7.127 -0.1397 -0.4631 -0.1295
 1269ERGO    C216546   6.681   7.961   7.495  0.3234  0.1235 -0.2636
 1270ERGO   ROH16547  13.783  10.635   6.283 -0.0504 -0.1861  0.0608
 1270ERGO    R116548  13.567  10.745   6.429 -0.0829 -0.2262  0.0453
 1270ERGO    R216549  13.447  10.612   6.640  0.1288 -0.1201  0.2457
 1270ERGO    R316550  13.504  10.842   6.774 -0.0039  0.0735 -0.0241
 1270ERGO    R416551  13.291  10.716   6.930  0.1594  0.0895  0.1882
 1270ERGO    R516552  13.291  10.919   6.852 -0.0268 -0.0007 -0.0333
 1270ERGO    C116553  13.252  10.992   7.225  0.0526  0.3932 -0.0987
 1270ERGO    C216554  13.027  10.997   7.394 -0.1456  0.1155 -0.0744
 1271ERGO   ROH16555   9.372  12.983   9.224  0.2483  0.1175  0.0097
 1271ERGO    R116556   9.220  12.796   9.077  0.1616  0.2126 -0.0242
 1271ERGO    R216557   9.199  12.805   8.802  0.3359  0.1500 -0.0436
 1271ERGO    R316558   9.285  12.548   8.818  0.0903  0.0742  0.0907
 1271ERGO    R416559   9.229  12.590   8.533  0.2135  0.0023  0.0601
 1271ERGO    R516560   9.149  12.430   8.659  0.0278  0.1308  0.1049
 1271ERGO    C116561   9.326  12.223   8.392 -0.0883 -0.1549  0.2464
 1271ERGO    C216562   9.470  12.158   8.030  0.1069  0.3328 -0.0539
 1272ERGO   ROH16563  19.093  17.434   9.526 -0.0964 -0.3136  0.0535
 1272ERGO    R116564  19.184  17.359   9.269 -0.0227 -0.0668  0.0046
 1272ERGO    R216565  19.017  17.247   9.079  0.0807 -0.0959 -0.0680
 1272ERGO    R316566  19.110  17.450   8.925 -0.0991  0.0893  0.0612
 1272ERGO    R416567  18.982  17.265   8.736  0.3363 -0.0683 -0.0951
 1272ERGO    R516568  19.186  17.342   8.724  0.2350  0.2499  0.0929
 1272ERGO    C116569  19.049  17.467   8.391  0.3161  0.1217  0.0103
 1272ERGO    C216570  18.876  17.532   8.017 -0.3199  0.1331  0.0325
 1273ERGO   ROH16571  10.669   4.287   9.219 -0.0341 -0.2562  0.0316
 1273ERGO    R116572  10.616   4.194   8.957  0.1286 -0.1604 -0.0367
 1273ERGO    R216573  10.408   4.292   8.804 -0.0042 -0.3620  0.0113
 1273ERGO    R316574  10.606   4.338   8.623 -0.0493  0.0528  0.0576
 1273ERGO    R416575  10.358   4.338   8.465 -0.0345 -0.2980  0.0244
 1273ERGO    R516576  10.536   4.217   8.428  0.1805  0.0159 -0.0054
 1273ERGO    C116577  10.513   4.407   8.098 -0.0944  0.1286  0.0755
 1273ERGO    C216578  10.498   4.555   7.904 -0.1204 -0.0088  0.1478
 1274ERGO   ROH16579  18.403  18.115   9.531 -0.0952  0.1141 -0.1109
 1274ERGO    R116580  18.425  18.018   9.266  0.0306  0.3227 -0.1782
 1274ERGO    R216581  18.270  17.810   9.170  0.3286  0.1543 -0.3051
 1274ERGO    R316582  18.206  17.990   8.977  0.0490  0.1954 -0.1802
 1274ERGO    R416583  18.126  17.732   8.865  0.1399  0.1908 -0.2275
 1274ERGO    R516584  18.256  17.878   8.771 -0.0361  0.3212 -0.2700
 1274ERGO    C116585  17.982  17.856   8.507 -0.2322  0.2509 -0.0650
 1274ERGO    C216586  17.863  17.852   8.183  0.0200  0.1935  0.1595
 1275ERGO   ROH16587  17.618   9.748   9.359 -0.0536  0.0413  0.0511
 1275ERGO    R116588  17.724   9.872   9.128 -0.1373  0.0212  0.0017
 1275ERGO    R216589  17.878   9.736   8.943  0.0476  0.0762  0.1140
 1275ERGO    R316590  17.693   9.830   8.767 -0.0181 -0.2218  0.0174
 1275ERGO    R416591  17.951   9.878   8.637 -0.0294  0.0596  0.0874
 1275ERGO    R516592  17.795  10.025   8.673 -0.2331 -0.1229 -0.0180
 1275ERGO    C116593  17.820  10.049   8.293 -0.1363 -0.2299 -0.0187
 1275ERGO    C216594  17.912  10.175   7.889  0.3647 -0.1240 -0.3483
 1276ERGO   ROH16595   6.564   1.764   8.931 -0.0959 -0.0033 -0.0682
 1276ERGO    R116596   6.537   1.878   8.673 -0.0206  0.0123 -0.0685
 1276ERGO    R216597   6.751   1.988   8.536  0.0538 -0.1428 -0.0735
 1276ERGO    R316598   6.673   1.815   8.341 -0.0735 -0.0883 -0.0723
 1276ERGO    R416599   6.803   2.035   8.198  0.0934 -0.1810 -0.0734
 1276ERGO    R516600   6.603   1.957   8.161  0.0320 -0.0345 -0.0742
 1276ERGO    C116601   6.759   1.902   7.818 -0.0030 -0.1521 -0.0724
 1276ERGO    C216602   6.724   1.696   7.472  0.2105 -0.0828 -0.1240
 1277ERGO   ROH16603  15.285  14.987   6.254 -0.3306  0.1926 -0.0777
 1277ERGO    R116604  15.278  15.147   6.488 -0.0136  0.1287 -0.0195
 1277ERGO    R216605  15.146  15.068   6.718 -0.0009  0.2189  0.0201
 1277ERGO    R316606  15.387  15.115   6.833  0.1202 -0.1234 -0.0830
 1277ERGO    R416607  15.224  14.998   7.047  0.0559  0.0800 -0.0221
 1277ERGO    R516608  15.334  15.186   7.056  0.3195 -0.0700 -0.0514
 1277ERGO    C116609  15.496  15.001   7.347  0.2025 -0.3221 -0.1435
 1277ERGO    C216610  15.530  15.033   7.684 -0.0351  0.1253  0.1891
 1278ERGO   ROH16611   2.545  11.919   6.791 -0.0147 -0.0726  0.1372
 1278ERGO    R116612   2.817  11.850   6.829 -0.0249 -0.1301  0.0932
 1278ERGO    R216613   2.915  11.758   7.071 -0.0139 -0.1650  0.0648
 1278ERGO    R316614   3.004  11.551   6.919 -0.0656 -0.1741  0.0426
 1278ERGO    R416615   3.162  11.536   7.165 -0.0139 -0.1847  0.0250
 1278ERGO    R516616   3.240  11.544   6.962 -0.0515 -0.1901  0.0005
 1278ERGO    C116617   3.390  11.213   7.077 -0.0624 -0.2048 -0.0190
 1278ERGO    C216618   3.418  10.986   7.402  0.2743 -0.0868  0.1826
 1279ERGO   ROH16619  10.710   2.579   8.985  0.0416 -0.1219  0.0583
 1279ERGO    R116620  10.745   2.768   8.778  0.1301 -0.0822  0.1088
 1279ERGO    R216621  10.984   2.796   8.640  0.1537 -0.1332  0.1395
 1279ERGO    R316622  10.824   2.760   8.423  0.1620 -0.0216  0.1141
 1279ERGO    R416623  11.029   2.949   8.333  0.2667 -0.1054  0.1698
 1279ERGO    R516624  10.813   2.976   8.320  0.2799  0.0015  0.1473
 1279ERGO    C116625  10.906   3.004   7.951  0.3402  0.0156  0.1635
 1279ERGO    C216626  10.928   2.847   7.697  0.2926 -0.0517  0.1287
 1280ERGO   ROH16627  14.203   5.286   5.704 -0.3243 -0.0363 -0.1449
 1280ERGO    R116628  14.169   5.138   5.943 -0.0584 -0.0538 -0.1150
 1280ERGO    R216629  14.366   5.121   6.137  0.0522  0.1696 -0.2011
 1280ERGO    R316630  14.167   5.208   6.300  0.0313 -0.0246 -0.1208
 1280ERGO    R416631  14.321   5.020   6.464  0.1962  0.0252 -0.2248
 1280ERGO    R516632  14.106   5.015   6.428  0.1928 -0.1090 -0.1728
 1280ERGO    C116633  14.108   5.043   6.808  0.2603 -0.2412 -0.1631
 1280ERGO    C216634  14.040   5.146   7.166  0.0332  0.1442 -0.1433
 1281ERGO   ROH16635   0.509   0.309   9.151 -0.1344 -0.0299 -0.0710
 1281ERGO    R116636   0.364   0.287   8.909 -0.0212  0.2858 -0.1722
 1281ERGO    R216637   0.458   0.388   8.670  0.3800  0.0639 -0.1138
 1281ERGO    R316638   0.415   0.133   8.583 -0.1387  0.1455 -0.1261
 1281ERGO    R416639   0.463   0.289   8.339  0.4126  0.0354 -0.1049
 1281ERGO    R516640   0.291   0.160   8.380  0.0744  0.4243 -0.2271
 1281ERGO    C116641   0.425  -0.008   8.065 -0.0552  0.0954 -0.1113
 1281ERGO    C216642   0.542  -0.050   7.746  0.3395 -0.1725  0.1043
 1282ERGO   ROH16643  14.170   2.013   5.987 -0.1775  0.1379 -0.0145
 1282ERGO    R116644  14.087   2.061   6.253 -0.0649  0.1361  0.0230
 1282ERGO    R216645  13.990   1.860   6.417 -0.0756  0.1469  0.0395
 1282ERGO    R316646  14.185   1.948   6.585  0.0195  0.0623 -0.0281
 1282ERGO    R416647  13.994   1.809   6.759  0.0072  0.1789  0.0421
 1282ERGO    R516648  14.068   2.012   6.784  0.1177  0.1397  0.0012
 1282ERGO    C116649  14.180   1.861   7.116  0.1447  0.1182 -0.0197
 1282ERGO    C216650  14.097   1.817   7.518 -0.1160 -0.0104 -0.2809
 1283ERGO   ROH16651   7.978  15.587   9.188 -0.0896  0.1535  0.0409
 1283ERGO    R116652   7.971  15.540   8.909  0.1558  0.1724  0.0282
 1283ERGO    R216653   7.737  15.555   8.762  0.1907 -0.2928 -0.0951
 1283ERGO    R316654   7.881  15.730   8.611 -0.0842  0.0344  0.0110
 1283ERGO    R416655   7.672  15.631   8.431  0.2486 -0.4211 -0.1361
 1283ERGO    R516656   7.887  15.631   8.394  0.2838  0.0513  0.0096
 1283ERGO    C116657   7.769  15.840   8.097  0.0242 -0.1887 -0.0606
 1283ERGO    C216658   7.791  15.916   7.705  0.4095  0.0204  0.1773
 1284ERGO   ROH16659  13.324   3.439   6.649  0.2902 -0.0152  0.2224
 1284ERGO    R116660  13.246   3.706   6.699  0.1227 -0.0415  0.1049
 1284ERGO    R216661  12.985   3.793   6.669  0.0796 -0.2063  0.0157
 1284ERGO    R316662  13.017   3.876   6.926 -0.0257 -0.0870 -0.0081
 1284ERGO    R416663  12.833   4.071   6.807  0.1334 -0.0571 -0.2185
 1284ERGO    R516664  13.019   4.115   6.911  0.0986 -0.0933 -0.1354
 1284ERGO    C116665  12.774   4.311   7.128  0.0658  0.1416 -0.3771
 1284ERGO    C216666  12.660   4.580   7.270  0.6674  0.2506 -0.0397
 1285ERGO   ROH16667   3.732   6.598   8.912  0.0567 -0.3465  0.1333
 1285ERGO    R116668   3.645   6.731   8.678  0.1909 -0.2189  0.1540
 1285ERGO    R216669   3.732   6.661   8.425  0.0472 -0.3328  0.1311
 1285ERGO    R316670   3.466   6.643   8.374  0.0070  0.0299  0.1880
 1285ERGO    R416671   3.589   6.688   8.112  0.0381 -0.3742  0.1322
 1285ERGO    R516672   3.427   6.804   8.201  0.2252 -0.0527  0.0616
 1285ERGO    C116673   3.255   6.687   7.881 -0.0049 -0.0579  0.1863
 1285ERGO    C216674   3.076   6.729   7.635  0.0870 -0.1099 -0.1909
 1286ERGO   ROH16675   1.793  13.009   9.390 -0.1512 -0.4276 -0.0184
 1286ERGO    R116676   1.683  13.174   9.187 -0.0197 -0.2472  0.0546
 1286ERGO    R216677   1.752  13.147   8.921 -0.0698 -0.2097  0.0397
 1286ERGO    R316678   1.483  13.126   8.887 -0.0958  0.0537  0.0534
 1286ERGO    R416679   1.593  13.136   8.615 -0.0847 -0.1637  0.0452
 1286ERGO    R516680   1.437  13.264   8.697  0.0457  0.0317 -0.0001
 1286ERGO    C116681   1.248  13.109   8.403 -0.1177  0.1104  0.0613
 1286ERGO    C216682   1.322  12.968   8.050 -0.3757 -0.0241 -0.0434
 1287ERGO   ROH16683  11.845   4.590   5.918 -0.0760  0.0216  0.0030
 1287ERGO    R116684  11.822   4.423   6.145 -0.0178 -0.2063 -0.1545
 1287ERGO    R216685  11.604   4.431   6.314  0.2807  0.0524  0.2387
 1287ERGO    R316686  11.594   4.164   6.262 -0.3583  0.1203 -0.0787
 1287ERGO    R416687  11.560   4.185   6.553  0.4255 -0.1576  0.0521
 1287ERGO    R516688  11.708   4.063   6.447 -0.0625 -0.3256 -0.4818
 1287ERGO    C116689  11.526   3.791   6.643 -0.0902 -0.2161 -0.3545
 1287ERGO    C216690  11.550   3.499   6.642 -0.4467  0.1027  0.0117
 1288ERGO   ROH16691  11.707   3.191   9.051  0.1620 -0.1738  0.0419
 1288ERGO    R116692  11.809   3.352   8.842  0.2502 -0.0259  0.1963
 1288ERGO    R216693  12.017   3.271   8.679  0.1511 -0.0200  0.0634
 1288ERGO    R316694  11.841   3.328   8.480  0.1530  0.3430  0.1591
 1288ERGO    R416695  12.103   3.404   8.372  0.2861 -0.3261 -0.0345
 1288ERGO    R516696  11.925   3.530   8.382  0.5879  0.1166  0.0411
 1288ERGO    C116697  11.987   3.535   8.006  0.3665 -0.1637 -0.0014
 1288ERGO    C216698  12.171   3.440   7.840  0.2856 -0.1014  0.1473
 1289ERGO   ROH16699   9.714  12.524   5.860  0.0231 -0.2127 -0.0154
 1289ERGO    R116700   9.632  12.593   6.121 -0.0049 -0.0262 -0.0723
 1289ERGO    R216701   9.684  12.433   6.341 -0.1814  0.0429  0.0203
 1289ERGO    R316702   9.793  12.662   6.440 -0.0489  0.0152 -0.0585
 1289ERGO    R416703   9.737  12.497   6.676  0.0792  0.0277 -0.0157
 1289ERGO    R516704   9.671  12.702   6.643  0.1070  0.0461  0.0320
 1289ERGO    C116705   9.870  12.748   6.965  0.3554 -0.0071 -0.1106
 1289ERGO    C216706   9.911  12.594   7.318 -0.2361 -0.1154 -0.1774
 1290ERGO   ROH16707   5.047   5.134   9.581  0.0386 -0.2191  0.1125
 1290ERGO    R116708   4.968   5.187   9.315 -0.0158 -0.2903  0.1148
 1290ERGO    R216709   5.077   5.392   9.165 -0.2553 -0.1456  0.1385
 1290ERGO    R316710   5.127   5.193   8.988 -0.0090 -0.0706  0.1197
 1290ERGO    R416711   5.008   5.407   8.827 -0.1574 -0.1484  0.1175
 1290ERGO    R516712   4.942   5.200   8.836  0.0311 -0.2160  0.0591
 1290ERGO    C116713   5.015   5.228   8.463  0.1309 -0.0797  0.0877
 1290ERGO    C216714   4.981   5.242   8.028  0.2366  0.0551 -0.1398
 1291ERGO   ROH16715   2.860   4.181   8.816 -0.0222 -0.1124  0.0512
 1291ERGO    R116716   3.031   4.168   8.590  0.0614 -0.1860  0.1186
 1291ERGO    R216717   3.147   3.932   8.505 -0.1463 -0.2670  0.0631
 1291ERGO    R316718   3.031   3.999   8.268  0.0246 -0.0401  0.0405
 1291ERGO    R416719   3.288   3.878   8.194 -0.1312 -0.4329  0.0975
 1291ERGO    R516720   3.214   4.074   8.132  0.1895 -0.2976  0.1095
 1291ERGO    C116721   3.262   3.910   7.791  0.0380 -0.3165  0.0962
 1291ERGO    C216722   3.472   3.845   7.562  0.0149 -0.0124  0.1698
 1292ERGO   ROH16723  11.362   1.327   9.428 -0.1500  0.0071 -0.0862
 1292ERGO    R116724  11.509   1.343   9.187 -0.1759  0.1929 -0.0906
 1292ERGO    R216725  11.500   1.146   8.994  0.1712  0.1104 -0.0286
 1292ERGO    R316726  11.434   1.353   8.831 -0.1990 -0.0517 -0.0947
 1292ERGO    R416727  11.591   1.173   8.661  0.1797  0.1956 -0.0199
 1292ERGO    R516728  11.627   1.385   8.693 -0.2295  0.2820 -0.0685
 1292ERGO    C116729  11.581   1.383   8.315 -0.1629  0.0931 -0.0770
 1292ERGO    C216730  11.767   1.257   8.001 -0.1052  0.0141 -0.1913
 1293ERGO   ROH16731   8.106  16.666   9.123 -0.1681 -0.0545  0.0318
 1293ERGO    R116732   8.290  16.727   8.917  0.0701 -0.1920  0.1994
 1293ERGO    R216733   8.455  16.537   8.803 -0.1973 -0.3892  0.1291
 1293ERGO    R316734   8.345  16.627   8.572  0.0944  0.0246  0.1393
 1293ERGO    R416735   8.571  16.460   8.487 -0.1841 -0.3515  0.1245
 1293ERGO    R516736   8.533  16.666   8.428  0.2510 -0.2198  0.2727
 1293ERGO    C116737   8.535  16.498   8.086  0.0976  0.0592  0.1315
 1293ERGO    C216738   8.618  16.442   7.868  0.0188 -0.2076 -0.0079
 1294ERGO   ROH16739   7.619   2.660   8.884  0.0927 -0.1802  0.1108
 1294ERGO    R116740   7.759   2.656   8.638  0.1306 -0.0862  0.1308
 1294ERGO    R216741   7.684   2.495   8.426  0.0975  0.0761  0.0193
 1294ERGO    R316742   7.684   2.730   8.290  0.2180  0.1610  0.1622
 1294ERGO    R416743   7.761   2.529   8.091 -0.0005  0.2192  0.0103
 1294ERGO    R516744   7.870   2.712   8.139  0.1519  0.1140  0.0834
 1294ERGO    C116745   7.806   2.770   7.768  0.0555  0.3823  0.1392
 1294ERGO    C216746   7.920   2.804   7.401  0.1738  0.1732 -0.0095
 1295ERGO   ROH16747   7.948   4.692   5.753 -0.3283  0.1418  0.1742
 1295ERGO    R116748   8.093   4.505   5.909 -0.2138  0.0604 -0.0256
 1295ERGO    R216749   8.369   4.501   5.919 -0.2088  0.2063 -0.0482
 1295ERGO    R316750   8.328   4.518   6.187 -0.2054 -0.0906 -0.0256
 1295ERGO    R416751   8.594   4.397   6.160 -0.0526  0.2714 -0.1639
 1295ERGO    R516752   8.426   4.318   6.275  0.0583 -0.0483 -0.2162
 1295ERGO    C116753   8.686   4.352   6.552  0.0416  0.0306 -0.2100
 1295ERGO    C216754   8.933   4.588   6.828  0.0991  0.1049  0.2267
 1296ERGO   ROH16755   2.142   3.405   8.929 -0.1702 -0.1225  0.1676
 1296ERGO    R116756   1.989   3.472   8.701 -0.0940  0.0794  0.1726
 1296ERGO    R216757   1.999   3.721   8.582  0.1859  0.0915  0.2035
 1296ERGO    R316758   2.057   3.577   8.359  0.0344  0.0513  0.1906
 1296ERGO    R416759   1.969   3.839   8.259  0.0409  0.0454  0.2003
 1296ERGO    R516760   1.889   3.644   8.201 -0.0300  0.0608  0.2694
 1296ERGO    C116761   2.005   3.772   7.860 -0.1857 -0.0192  0.1863
 1296ERGO    C216762   2.296   3.846   7.598 -0.0214 -0.1452  0.0377
 1297ERGO   ROH16763  10.562   5.879   9.098  0.0727  0.2088 -0.0959
 1297ERGO    R116764  10.786   5.858   8.926  0.1294  0.2023 -0.0216
 1297ERGO    R216765  10.784   5.704   8.696  0.2419  0.1043  0.0408
 1297ERGO    R316766  10.861   5.936   8.579  0.2067  0.0788 -0.0331
 1297ERGO    R416767  10.881   5.737   8.367 -0.0519  0.0736 -0.0520
 1297ERGO    R516768  11.038   5.873   8.431  0.0507  0.0244 -0.1977
 1297ERGO    C116769  11.011   5.974   8.064 -0.2560  0.0320 -0.1754
 1297ERGO    C216770  10.954   6.125   7.711 -0.3218  0.2306  0.1754
 1298ERGO   ROH16771  14.077  17.597   9.823  0.1970  0.1102  0.0953
 1298ERGO    R116772  13.956  17.602   9.567  0.0982  0.0960  0.1402
 1298ERGO    R216773  13.950  17.830   9.410  0.2740  0.0235  0.0174
 1298ERGO    R316774  14.065  17.667   9.226  0.0326 -0.2014  0.0611
 1298ERGO    R416775  13.904  17.855   9.069  0.4035  0.0707  0.0036
 1298ERGO    R516776  13.896  17.638   9.059  0.0201  0.0813  0.0233
 1298ERGO    C116777  13.985  17.717   8.697  0.2523 -0.1131  0.0368
 1298ERGO    C216778  14.028  17.700   8.378 -0.0066  0.1172  0.4600
 1299ERGO   ROH16779  10.637  12.220   5.939 -0.0480  0.2288 -0.0622
 1299ERGO    R116780  10.557  12.211   6.210 -0.0272  0.0194 -0.0619
 1299ERGO    R216781  10.487  11.976   6.337  0.2050 -0.1105 -0.1735
 1299ERGO    R316782  10.676  12.054   6.516  0.1387 -0.0163 -0.1430
 1299ERGO    R416783  10.501  11.872   6.666  0.2043 -0.1087 -0.1723
 1299ERGO    R516784  10.556  12.075   6.723  0.0931 -0.0791 -0.1610
 1299ERGO    C116785  10.686  11.884   7.027  0.1415 -0.0194 -0.1431
 1299ERGO    C216786  10.685  11.657   7.353  0.1855 -0.0378 -0.0194
 1300ERGO   ROH16787   4.530  16.626   9.130  0.2333  0.2205  0.1225
 1300ERGO    R116788   4.619  16.456   8.923  0.2273  0.0809  0.2316
 1300ERGO    R216789   4.582  16.516   8.656  0.1485 -0.1340  0.1878
 1300ERGO    R316790   4.851  16.479   8.643  0.1550 -0.0723  0.1597
 1300ERGO    R416791   4.755  16.425   8.371  0.1617 -0.0006  0.1530
 1300ERGO    R516792   4.879  16.294   8.494  0.1935 -0.0123  0.0985
 1300ERGO    C116793   5.109  16.338   8.193  0.1756  0.1352  0.1064
 1300ERGO    C216794   5.253  16.168   7.872  0.1299  0.3055  0.2945
 1301ERGO   ROH16795  16.393   0.590   5.987  0.2325  0.0730 -0.0354
 1301ERGO    R116796  16.214   0.720   6.164  0.1142  0.0189 -0.1135
 1301ERGO    R216797  16.174   0.634   6.424 -0.0124 -0.0231 -0.1443
 1301ERGO    R316798  16.237   0.892   6.484 -0.0867 -0.0205 -0.0769
 1301ERGO    R416799  16.153   0.774   6.739 -0.1596 -0.0762 -0.1298
 1301ERGO    R516800  16.075   0.956   6.648 -0.1605 -0.0784 -0.1287
 1301ERGO    C116801  16.201   1.097   6.979 -0.3153 -0.1046 -0.0580
 1301ERGO    C216802  16.314   1.004   7.232 -0.1525 -0.2140  0.0914
 1302ERGO   ROH16803   8.634   1.813   9.044 -0.1918  0.1549  0.2745
 1302ERGO    R116804   8.794   1.843   8.813 -0.1327 -0.0007  0.2930
 1302ERGO    R216805   8.839   1.637   8.635 -0.1925 -0.0874  0.3705
 1302ERGO    R316806   8.748   1.817   8.453 -0.0783 -0.1070  0.2950
 1302ERGO    R416807   8.866   1.603   8.292  0.0690 -0.0839  0.3891
 1302ERGO    R516808   8.912   1.816   8.280  0.0479 -0.0847  0.4192
 1302ERGO    C116809   8.796   1.753   7.922  0.3285 -0.1002  0.3291
 1302ERGO    C216810   8.834   1.901   7.451 -0.0769  0.2161  0.0468
 1303ERGO   ROH16811  14.067  15.156   6.352  0.0784 -0.1928 -0.0457
 1303ERGO    R116812  14.090  15.050   6.613  0.2205 -0.0523  0.0001
 1303ERGO    R216813  14.230  15.178   6.814 -0.0055  0.2584 -0.0339
 1303ERGO    R316814  13.996  15.153   6.949  0.0143 -0.0651 -0.0522
 1303ERGO    R416815  14.200  15.182   7.158 -0.0377  0.2121 -0.0359
 1303ERGO    R516816  14.053  15.022   7.142  0.1800  0.0073 -0.0499
 1303ERGO    C116817  13.963  15.160   7.486 -0.0378 -0.1185 -0.0542
 1303ERGO    C216818  13.751  15.099   7.721 -0.0975 -0.0346  0.4937
 1304ERGO   ROH16819   8.209   4.374   9.308 -0.1804  0.0374  0.0826
 1304ERGO    R116820   8.369   4.476   9.099 -0.1089 -0.0481  0.0947
 1304ERGO    R216821   8.364   4.372   8.842 -0.1048 -0.0808  0.1052
 1304ERGO    R316822   8.313   4.630   8.774 -0.0023 -0.0709  0.0660
 1304ERGO    R416823   8.390   4.501   8.523 -0.2055 -0.1709  0.0602
 1304ERGO    R516824   8.478   4.681   8.608 -0.0649 -0.1981 -0.0329
 1304ERGO    C116825   8.358   4.818   8.272 -0.1678 -0.2141 -0.0028
 1304ERGO    C216826   8.377   4.885   7.916  0.3683 -0.0203 -0.2046
 1305ERGO   ROH16827  18.601  10.522   6.009 -0.2397  0.0560  0.1067
 1305ERGO    R116828  18.644  10.501   6.288 -0.2774 -0.1153  0.1005
 1305ERGO    R216829  18.699  10.719   6.447  0.0200 -0.2495  0.1912
 1305ERGO    R316830  18.486  10.628   6.590 -0.1151 -0.0167  0.1444
 1305ERGO    R416831  18.591  10.853   6.747  0.0411 -0.0748  0.1223
 1305ERGO    R516832  18.555  10.650   6.818 -0.1720 -0.0245  0.1615
 1305ERGO    C116833  18.328  10.844   7.056 -0.0734  0.2455  0.0383
 1305ERGO    C216834  18.258  11.102   7.215  0.1074 -0.0733 -0.2311
 1306ERGO   ROH16835  15.739   4.569   6.015  0.0632 -0.0608 -0.0158
 1306ERGO    R116836  15.587   4.608   6.250  0.0976 -0.0444  0.0036
 1306ERGO    R216837  15.702   4.631   6.500  0.1450  0.1315 -0.0348
 1306ERGO    R316838  15.560   4.863   6.509  0.0140  0.0553 -0.1010
 1306ERGO    R416839  15.655   4.822   6.784 -0.0158  0.1483 -0.0719
 1306ERGO    R516840  15.448   4.855   6.721 -0.0249  0.0244 -0.1202
 1306ERGO    C116841  15.494   5.151   6.958 -0.2326  0.0866 -0.1555
 1306ERGO    C216842  15.465   5.582   7.020  0.5024  0.0101 -0.2933
 1307ERGO   ROH16843   7.468   7.686   9.307  0.2263 -0.0568  0.0402
 1307ERGO    R116844   7.281   7.657   9.097  0.1245 -0.0613  0.1322
 1307ERGO    R216845   7.289   7.810   8.868  0.0304 -0.0884  0.1163
 1307ERGO    R316846   7.290   7.567   8.744 -0.0543 -0.0995  0.1344
 1307ERGO    R416847   7.170   7.751   8.548  0.3282  0.0119 -0.0178
 1307ERGO    R516848   7.085   7.563   8.621  0.0706  0.0883 -0.0962
 1307ERGO    C116849   7.102   7.489   8.247  0.4220  0.0599 -0.0788
 1307ERGO    C216850   7.139   7.490   7.955  0.0070 -0.2639 -0.1091
 1308ERGO   ROH16851  16.239   3.086   8.791  0.4483  0.2867  0.1133
 1308ERGO    R116852  16.274   3.113   8.511  0.0905  0.1282  0.0488
 1308ERGO    R216853  16.230   2.904   8.335 -0.0055 -0.0115  0.2347
 1308ERGO    R316854  16.064   3.083   8.215 -0.2592 -0.1856  0.3181
 1308ERGO    R416855  16.175   2.923   7.995  0.0179  0.1071  0.2370
 1308ERGO    R516856  16.177   3.140   8.011 -0.3122  0.1064  0.3671
 1308ERGO    C116857  15.987   3.101   7.683 -0.2066  0.0127  0.3167
 1308ERGO    C216858  15.802   3.220   7.428 -0.0532  0.0817 -0.2011
 1309ERGO   ROH16859  16.271   1.569   8.828 -0.1701  0.0044  0.0668
 1309ERGO    R116860  16.305   1.619   8.552 -0.0162 -0.0741  0.0702
 1309ERGO    R216861  16.366   1.420   8.371 -0.1798 -0.1734  0.1224
 1309ERGO    R316862  16.145   1.513   8.242 -0.0323  0.0607  0.0317
 1309ERGO    R416863  16.292   1.360   8.038 -0.0648 -0.0149  0.0669
 1309ERGO    R516864  16.223   1.567   8.022  0.1292  0.0520  0.0862
 1309ERGO    C116865  16.041   1.413   7.724  0.1406  0.2972 -0.0506
 1309ERGO    C216866  15.897   1.457   7.424  0.0654  0.1170 -0.0996
 1310ERGO   ROH16867  10.565   9.185   9.245 -0.1152 -0.0344  0.1756
 1310ERGO    R116868  10.569   9.101   8.974 -0.0379  0.0587  0.1462
 1310ERGO    R216869  10.418   8.887   8.882  0.1401 -0.0425  0.0692
 1310ERGO    R316870  10.327   9.071   8.704 -0.0096 -0.0529  0.1349
 1310ERGO    R416871  10.344   8.823   8.551 -0.0504 -0.0289  0.1090
 1310ERGO    R516872  10.434   9.014   8.498 -0.1273 -0.0108  0.0661
 1310ERGO    C116873  10.215   8.958   8.191 -0.3021 -0.0308  0.1939
 1310ERGO    C216874  10.041   9.092   7.902 -0.4011 -0.0440  0.0604
 1311ERGO   ROH16875  10.345  18.864   5.747 -0.3496 -0.1609  0.1332
 1311ERGO    R116876  10.566  18.915   5.916 -0.2242 -0.3009  0.0135
 1311ERGO    R216877  10.588  19.145   6.068  0.0915 -0.2297 -0.1361
 1311ERGO    R316878  10.619  18.969   6.272 -0.0226 -0.1397 -0.0382
 1311ERGO    R416879  10.663  19.231   6.394  0.2162 -0.1019 -0.1966
 1311ERGO    R516880  10.797  19.060   6.403  0.0769 -0.2105 -0.1205
 1311ERGO    C116881  10.736  19.116   6.776  0.1820  0.0568 -0.1400
 1311ERGO    C216882  10.713  19.332   7.088  0.2071 -0.2684  0.0677
 1312ERGO   ROH16883  13.728  15.180   9.849 -0.1871  0.1610 -0.0491
 1312ERGO    R116884  13.850  15.205   9.595 -0.0730  0.0731 -0.0056
 1312ERGO    R216885  14.074  15.060   9.523 -0.0768 -0.0128  0.1134
 1312ERGO    R316886  13.919  14.987   9.312 -0.0219 -0.0096  0.0741
 1312ERGO    R416887  14.189  15.003   9.202 -0.0441  0.1638  0.0942
 1312ERGO    R516888  14.012  15.104   9.125 -0.0786  0.0986  0.1242
 1312ERGO    C116889  14.110  14.902   8.817  0.0265  0.2697  0.0461
 1312ERGO    C216890  14.168  14.872   8.383  0.2107  0.1436 -0.0720
 1313ERGO   ROH16891   7.315   7.397   6.084  0.1966  0.1866 -0.0849
 1313ERGO    R116892   7.407   7.308   6.336 -0.1063 -0.0425 -0.0473
 1313ERGO    R216893   7.513   7.480   6.525  0.2308 -0.2830  0.0060
 1313ERGO    R316894   7.323   7.370   6.685 -0.1085  0.1514 -0.0844
 1313ERGO    R416895   7.520   7.481   6.871 -0.0160 -0.2036  0.0107
 1313ERGO    R516896   7.445   7.277   6.868 -0.4325 -0.0489  0.0279
 1313ERGO    C116897   7.345   7.379   7.222 -0.4784  0.2504 -0.0714
 1313ERGO    C216898   7.210   7.578   7.457  0.2491 -0.4414  0.0934
 1314ERGO   ROH16899  10.741  15.625   9.427  0.0332  0.0082 -0.1115
 1314ERGO    R116900  10.624  15.494   9.205  0.0299 -0.0587 -0.0702
 1314ERGO    R216901  10.529  15.631   8.984 -0.0758 -0.1166 -0.0599
 1314ERGO    R316902  10.694  15.462   8.849 -0.0440 -0.0669 -0.0847
 1314ERGO    R416903  10.534  15.592   8.641 -0.0446 -0.0399 -0.0688
 1314ERGO    R516904  10.559  15.377   8.671 -0.0205 -0.0443 -0.1142
 1314ERGO    C116905  10.691  15.410   8.314  0.0034  0.0515 -0.0972
 1314ERGO    C216906  10.643  15.280   7.957  0.0966  0.1677 -0.4954
 1315ERGO   ROH16907   8.737   7.273   6.041  0.1207 -0.0925 -0.1199
 1315ERGO    R116908   8.700   7.038   6.193  0.1839 -0.1065 -0.1216
 1315ERGO    R216909   8.890   6.943   6.369  0.2129 -0.0579 -0.1094
 1315ERGO    R316910   8.683   6.950   6.546  0.2019 -0.1059 -0.1238
 1315ERGO    R416911   8.868   6.749   6.655  0.2192 -0.0567 -0.1101
 1315ERGO    R516912   8.655   6.722   6.613  0.2393 -0.1010 -0.1221
 1315ERGO    C116913   8.661   6.643   6.987  0.2124 -0.1011 -0.1240
 1315ERGO    C216914   8.530   6.450   7.335 -0.4796 -0.1127  0.0974
 1316ERGO   ROH16915   2.518  13.061   5.805 -0.0457 -0.2415 -0.1077
 1316ERGO    R116916   2.607  13.113   6.069  0.0033 -0.1821 -0.1365
 1316ERGO    R216917   2.435  13.124   6.285  0.0494 -0.1659 -0.1047
 1316ERGO    R316918   2.605  12.938   6.388  0.0958 -0.1235 -0.1021
 1316ERGO    R416919   2.438  13.022   6.615  0.0733 -0.1541 -0.1006
 1316ERGO    R516920   2.656  13.020   6.607  0.0771 -0.1018 -0.1030
 1316ERGO    C116921   2.599  12.788   6.904  0.1308 -0.1072 -0.0958
 1316ERGO    C216922   2.648  12.693   7.282  0.2036  0.3470 -0.2408
 1317ERGO   ROH16923   1.312  12.322   6.571 -0.1829 -0.0573 -0.0235
 1317ERGO    R116924   1.166  12.211   6.787 -0.0910 -0.1111  0.0120
 1317ERGO    R216925   1.200  11.950   6.871 -0.0418 -0.1297 -0.0548
 1317ERGO    R316926   1.244  12.067   7.112  0.0490 -0.1743 -0.0498
 1317ERGO    R416927   1.132  11.804   7.177 -0.2341 -0.0520 -0.0592
 1317ERGO    R516928   1.059  11.997   7.247 -0.0405  0.0230 -0.0718
 1317ERGO    C116929   1.134  11.830   7.582 -0.2608 -0.0487 -0.0571
 1317ERGO    C216930   1.200  11.725   7.850  0.1221 -0.0366 -0.0149
 1318ERGO   ROH16931  13.235  16.462   9.418  0.0675  0.1700  0.1636
 1318ERGO    R116932  13.132  16.594   9.191  0.1124  0.1245  0.1155
 1318ERGO    R216933  13.181  16.508   8.932  0.1271  0.0457  0.1413
 1318ERGO    R316934  12.910  16.511   8.914  0.1298  0.0821  0.1153
 1318ERGO    R416935  13.002  16.516   8.637  0.1542  0.1960  0.1291
 1318ERGO    R516936  12.864  16.656   8.730  0.1613  0.1675  0.1765
 1318ERGO    C116937  12.643  16.525   8.448  0.1725  0.3175  0.0975
 1318ERGO    C216938  12.519  16.341   8.225  0.1433 -0.3610 -0.1310
 1319ERGO   ROH16939  10.219   9.486   9.320  0.0128 -0.4605  0.1341
 1319ERGO    R116940  10.323   9.611   9.089 -0.1672 -0.2501  0.1625
 1319ERGO    R216941  10.544   9.514   8.953 -0.0955  0.0294  0.0601
 1319ERGO    R316942  10.375   9.520   8.740 -0.1606 -0.0458  0.1108
 1319ERGO    R416943  10.621   9.400   8.636 -0.1594  0.0478  0.0387
 1319ERGO    R516944  10.515   9.572   8.554 -0.2465 -0.0026  0.0648
 1319ERGO    C116945  10.507   9.340   8.251 -0.2576 -0.0121  0.0738
 1319ERGO    C216946  10.757   9.024   8.065  0.0016  0.1910 -0.0417
 1320ERGO   ROH16947   7.832   4.681   9.597  0.0352 -0.0572 -0.0642
 1320ERGO    R116948   7.735   4.665   9.332  0.0875  0.0861 -0.0931
 1320ERGO    R216949   7.471   4.711   9.267  0.0335 -0.1735 -0.0744
 1320ERGO    R316950   7.579   4.890   9.093 -0.1620  0.1360  0.1133
 1320ERGO    R416951   7.342   4.788   8.955 -0.0161 -0.0253 -0.0185
 1320ERGO    R516952   7.545   4.792   8.877 -0.0081  0.3045  0.0104
 1320ERGO    C116953   7.368   5.000   8.611 -0.2284  0.3516  0.1903
 1320ERGO    C216954   7.472   5.125   8.365  0.0599  0.1686 -0.0186
 1321ERGO   ROH16955  18.765  15.596   5.948 -0.1005 -0.2559  0.2952
 1321ERGO    R116956  18.743  15.713   6.205 -0.3976 -0.5606  0.4155
 1321ERGO    R216957  18.688  15.980   6.242  0.3054 -0.4292  0.6285
 1321ERGO    R316958  18.486  15.884   6.397 -0.4027 -0.0716 -0.0041
 1321ERGO    R416959  18.538  16.155   6.499  0.4775 -0.4613  0.7535
 1321ERGO    R516960  18.534  15.970   6.616 -0.4676 -0.7845  0.3227
 1321ERGO    C116961  18.261  16.167   6.795 -0.0872 -0.1443  0.2323
 1321ERGO    C216962  18.105  16.428   7.144 -0.0136  0.0967  0.1408
 1322ERGO   ROH16963   5.081   0.758   8.705 -0.1512  0.4459  0.1056
 1322ERGO    R116964   5.046   0.783   8.425 -0.2591  0.2358  0.0993
 1322ERGO    R216965   5.241   0.709   8.244 -0.2135  0.3798  0.0970
 1322ERGO    R316966   5.041   0.559   8.139 -0.0498  0.0570  0.2301
 1322ERGO    R416967   5.222   0.611   7.914 -0.2938  0.4037  0.0937
 1322ERGO    R516968   5.007   0.650   7.920 -0.3678  0.0458  0.2651
 1322ERGO    C116969   5.022   0.412   7.622 -0.1868  0.1146  0.2167
 1322ERGO    C216970   5.285   0.192   7.493  0.0314  0.0701  0.0953
 1323ERGO   ROH16971   8.440  18.472   5.944  0.1441 -0.0022  0.2123
 1323ERGO    R116972   8.169  18.541   5.990  0.1505  0.0772  0.1307
 1323ERGO    R216973   8.010  18.406   6.171  0.0161  0.0309 -0.0233
 1323ERGO    R316974   7.970  18.656   6.272  0.0665 -0.0132  0.1096
 1323ERGO    R416975   7.757  18.492   6.390 -0.1082  0.0087 -0.1564
 1323ERGO    R516976   7.732  18.679   6.280  0.0681  0.0973 -0.0566
 1323ERGO    C116977   7.572  18.776   6.612 -0.1333 -0.0459 -0.1091
 1323ERGO    C216978   7.329  18.943   6.698  0.1307  0.1523 -0.0720
 1324ERGO   ROH16979  18.980   5.758   5.726 -0.2914  0.0790  0.0157
 1324ERGO    R116980  18.963   5.779   6.007 -0.1829 -0.0818  0.0370
 1324ERGO    R216981  19.022   5.568   6.176 -0.0081 -0.1509 -0.0952
 1324ERGO    R316982  19.191   5.749   6.289 -0.0461 -0.1269 -0.0803
 1324ERGO    R416983  19.093   5.588   6.514  0.0664 -0.2095 -0.1083
 1324ERGO    R516984  19.087   5.805   6.498 -0.0101 -0.2159 -0.0456
 1324ERGO    C116985  19.293   5.769   6.817  0.0737 -0.2213 -0.1019
 1324ERGO    C216986  19.574   5.883   7.022  0.2760  0.0456 -0.0812
 1325ERGO   ROH16987  15.889  17.080   9.613 -0.0255 -0.0745  0.0856
 1325ERGO    R116988  15.792  17.036   9.351  0.0777 -0.0434  0.0439
 1325ERGO    R216989  15.604  17.201   9.233  0.0629 -0.0867  0.0287
 1325ERGO    R316990  15.790  17.219   9.036  0.1135  0.0321  0.0839
 1325ERGO    R416991  15.534  17.257   8.899  0.1047 -0.1943 -0.0001
 1325ERGO    R516992  15.689  17.112   8.847  0.2455 -0.0868  0.0686
 1325ERGO    C116993  15.669  17.307   8.520  0.1766 -0.1457  0.0348
 1325ERGO    C216994  15.469  17.544   8.212  0.0206  0.1796  0.0444
 1326ERGO   ROH16995   7.681   0.784   5.265 -0.1765  0.3522 -0.1173
 1326ERGO    R116996   7.469   0.845   5.443 -0.0745  0.1925  0.0630
 1326ERGO    R216997   7.204   0.801   5.379 -0.1111  0.2372  0.1828
 1326ERGO    R316998   7.204   0.660   5.612  0.0334  0.0368  0.0650
 1326ERGO    R416999   6.924   0.660   5.525 -0.0679  0.3333  0.3609
 1326ERGO    R517000   7.000   0.723   5.719  0.1941  0.1093  0.3400
 1326ERGO    C117001   6.762   0.446   5.828  0.0929  0.2010  0.3541
 1326ERGO    C217002   6.496   0.400   5.701  0.0269  0.2472  0.0869
 1327ERGO   ROH17003   9.701  16.760   9.200  0.0633  0.0258 -0.0930
 1327ERGO    R117004   9.743  16.656   8.940  0.0302  0.1001 -0.1280
 1327ERGO    R217005   9.618  16.428   8.850  0.1869  0.0038 -0.0994
 1327ERGO    R317006   9.539  16.590   8.646 -0.0533 -0.0358 -0.0413
 1327ERGO    R417007   9.603  16.334   8.517  0.3410  0.0977 -0.1336
 1327ERGO    R517008   9.683  16.530   8.464  0.0492  0.2446 -0.0598
 1327ERGO    C117009   9.521  16.432   8.133  0.2053  0.1153 -0.0990
 1327ERGO    C217010   9.475  16.130   7.940 -0.1796 -0.1190  0.0574
 1328ERGO   ROH17011   7.517  17.154   9.192  0.0469  0.2251  0.2360
 1328ERGO    R117012   7.430  17.301   8.967 -0.0809 -0.0119  0.1266
 1328ERGO    R217013   7.540  17.544   8.896 -0.2559  0.0111 -0.0791
 1328ERGO    R317014   7.578  17.422   8.657 -0.1989 -0.1545  0.0133
 1328ERGO    R417015   7.578  17.708   8.595  0.0501 -0.1859 -0.1523
 1328ERGO    R517016   7.453  17.555   8.502 -0.0071 -0.1482 -0.1398
 1328ERGO    C117017   7.634  17.688   8.194  0.2817 -0.4558 -0.1083
 1328ERGO    C217018   7.567  17.914   8.017 -0.0208 -0.2855 -0.2629
 1329ERGO   ROH17019   4.910   1.199   5.583  0.2218 -0.0441  0.0726
 1329ERGO    R117020   4.914   1.027   5.808  0.1919 -0.0480  0.0712
 1329ERGO    R217021   5.083   1.067   6.023  0.0892  0.0115  0.1474
 1329ERGO    R317022   4.852   1.057   6.165  0.0296 -0.0759  0.0445
 1329ERGO    R417023   5.064   1.029   6.366 -0.0505  0.2409  0.1664
 1329ERGO    R517024   4.895   0.895   6.337  0.0765  0.0835  0.1803
 1329ERGO    C117025   4.836   0.998   6.699 -0.1878  0.2924  0.0808
 1329ERGO    C217026   4.922   0.873   6.999 -0.2386 -0.1327 -0.0694
 1330ERGO   ROH17027   2.858   7.572   9.064 -0.0613  0.2242  0.0413
 1330ERGO    R117028   2.937   7.703   8.826 -0.0188  0.1462  0.0113
 1330ERGO    R217029   3.007   7.565   8.596  0.1011  0.0674  0.0897
 1330ERGO    R317030   2.816   7.722   8.483  0.0904 -0.0375 -0.0375
 1330ERGO    R417031   2.955   7.599   8.256  0.1346 -0.1580  0.0615
 1330ERGO    R517032   2.921   7.812   8.287  0.0959 -0.1463 -0.0816
 1330ERGO    C117033   2.746   7.766   7.952  0.1441 -0.3878 -0.0744
 1330ERGO    C217034   2.716   7.667   7.666  0.0910  0.0574  0.0136
 1331ERGO   ROH17035  14.867   0.198   9.545 -0.0270  0.1272  0.0470
 1331ERGO    R117036  14.756   0.003   9.372  0.2116  0.0875 -0.0624
 1331ERGO    R217037  14.508   0.031   9.255  0.1806 -0.1491 -0.0418
 1331ERGO    R317038  14.647  -0.012   9.025  0.2294  0.1440 -0.0730
 1331ERGO    R417039  14.367  -0.044   8.948  0.2486 -0.3179 -0.0339
 1331ERGO    R517040  14.527  -0.187   8.914  0.5005 -0.0450 -0.0921
 1331ERGO    C117041  14.416  -0.128   8.554  0.3341 -0.1409 -0.0586
 1331ERGO    C217042  14.112  -0.191   8.262  0.1259  0.2008 -0.0699
 1332ERGO   ROH17043   2.423  14.614   9.201 -0.2507 -0.0347  0.2700
 1332ERGO    R117044   2.224  14.494   9.040 -0.1606  0.1280  0.0302
 1332ERGO    R217045   2.116  14.618   8.818  0.1782  0.2338 -0.0853
 1332ERGO    R317046   2.192  14.390   8.693  0.1582  0.1919 -0.0202
 1332ERGO    R417047   2.038  14.537   8.492 -0.0376  0.0288  0.0142
 1332ERGO    R517048   2.004  14.332   8.556  0.0771  0.0542  0.1494
 1332ERGO    C117049   2.065  14.276   8.183 -0.1820 -0.1301  0.1334
 1332ERGO    C217050   2.003  14.349   7.849 -0.0474  0.0985  0.2890
 1333ERGO   ROH17051  14.898  18.280   9.763 -0.1877 -0.0188 -0.0100
 1333ERGO    R117052  15.037  18.217   9.524  0.0026  0.1642  0.0491
 1333ERGO    R217053  14.957  18.014   9.355  0.3947 -0.0046  0.0550
 1333ERGO    R317054  14.961  18.211   9.168  0.1327 -0.0262  0.0235
 1333ERGO    R417055  14.893  17.970   9.018  0.1710 -0.0859  0.1070
 1333ERGO    R517056  15.054  18.108   8.974  0.0518  0.0087 -0.0329
 1333ERGO    C117057  14.858  18.129   8.647 -0.2051 -0.1535  0.1076
 1333ERGO    C217058  14.769  18.098   8.418 -0.0514 -0.0803 -0.0668
 1334ERGO   ROH17059  14.379   1.791   9.380  0.0023 -0.1043 -0.0006
 1334ERGO    R117060  14.390   1.898   9.119 -0.1141 -0.0492  0.0175
 1334ERGO    R217061  14.617   1.886   8.962 -0.1369  0.1217 -0.0261
 1334ERGO    R317062  14.449   1.771   8.783 -0.0977  0.0498 -0.0182
 1334ERGO    R417063  14.704   1.792   8.641 -0.0689  0.0093  0.0241
 1334ERGO    R517064  14.511   1.866   8.572 -0.0597 -0.0225 -0.0412
 1334ERGO    C117065  14.597   1.628   8.286  0.0073 -0.1237  0.0607
 1334ERGO    C217066  14.828   1.630   8.112 -0.2415  0.3140  0.0768
 1335ERGO   ROH17067   2.262   6.091   8.889 -0.0741  0.0383  0.1128
 1335ERGO    R117068   2.360   6.259   8.684  0.1791 -0.0839  0.1297
 1335ERGO    R217069   2.518   6.165   8.478  0.0383 -0.3039  0.1162
 1335ERGO    R317070   2.328   6.281   8.322  0.2044  0.0032  0.1331
 1335ERGO    R417071   2.526   6.176   8.133  0.0521 -0.2569  0.1180
 1335ERGO    R517072   2.451   6.381   8.143  0.3513 -0.1458  0.1504
 1335ERGO    C117073   2.352   6.291   7.785  0.2160  0.0588  0.1349
 1335ERGO    C217074   2.561   5.998   7.526 -0.0441  0.0409  0.1919
 1336ERGO   ROH17075   7.172   6.517   9.280  0.1643  0.2001  0.0418
 1336ERGO    R117076   7.078   6.620   9.034 -0.1711 -0.1140  0.0297
 1336ERGO    R217077   7.245   6.673   8.820 -0.3051  0.4709  0.0549
 1336ERGO    R317078   7.072   6.513   8.686  0.2483 -0.1463  0.0273
 1336ERGO    R417079   7.190   6.684   8.479 -0.3527  0.3398  0.0576
 1336ERGO    R517080   6.977   6.655   8.518 -0.2749 -0.4344  0.0570
 1336ERGO    C117081   6.994   6.540   8.155  0.1391 -0.3160  0.0334
 1336ERGO    C217082   6.803   6.484   7.832 -0.1843  0.1894 -0.0356
 1337ERGO   ROH17083   9.149   3.066   8.909  0.1536 -0.0375  0.0437
 1337ERGO    R117084   8.935   3.118   8.732  0.1392 -0.0754  0.0507
 1337ERGO    R217085   8.946   3.314   8.537  0.0858 -0.0510  0.0751
 1337ERGO    R317086   8.881   3.108   8.372  0.1394 -0.0485  0.0497
 1337ERGO    R417087   8.798   3.348   8.227  0.0445 -0.0525  0.0939
 1337ERGO    R517088   8.674   3.175   8.272  0.1062 -0.1020  0.0797
 1337ERGO    C117089   8.650   3.175   7.891  0.0707 -0.0510  0.0811
 1337ERGO    C217090   8.691   3.270   7.432  0.1094  0.0738  0.2746
 1338ERGO   ROH17091   3.181   5.623   5.853 -0.3341 -0.0090  0.3068
 1338ERGO    R117092   3.360   5.426   5.950 -0.0897  0.1528  0.1992
 1338ERGO    R217093   3.482   5.444   6.197 -0.1968  0.1152  0.2617
 1338ERGO    R317094   3.373   5.197   6.233  0.1254 -0.0694  0.0123
 1338ERGO    R417095   3.581   5.217   6.438 -0.0154  0.0564  0.1323
 1338ERGO    R517096   3.559   5.058   6.290  0.2843  0.1398 -0.0014
 1338ERGO    C117097   3.537   4.853   6.611  0.3926 -0.1512 -0.1773
 1338ERGO    C217098   3.549   4.708   6.978  0.2204  0.0594  0.0203
 1339ERGO   ROH17099   6.296  13.804   5.875 -0.2941  0.0822  0.0172
 1339ERGO    R117100   6.203  13.946   6.102 -0.0895  0.0363  0.1306
 1339ERGO    R217101   5.959  13.894   6.221 -0.0613  0.1385  0.2260
 1339ERGO    R317102   6.111  13.865   6.445  0.0301 -0.0619  0.1415
 1339ERGO    R417103   5.835  13.872   6.542  0.0601 -0.1876  0.2548
 1339ERGO    R517104   5.999  13.997   6.610  0.0741 -0.2308  0.3145
 1339ERGO    C117105   5.905  13.831   6.940  0.2166 -0.5657  0.1922
 1339ERGO    C217106   5.644  13.621   7.054 -0.4454  0.0101 -0.2267
 1340ERGO   ROH17107  15.854   5.571   5.888 -0.0066  0.1727  0.0441
 1340ERGO    R117108  16.102   5.570   6.024  0.0199 -0.0369 -0.0028
 1340ERGO    R217109  16.170   5.761   6.213  0.2736 -0.0098 -0.1191
 1340ERGO    R317110  16.213   5.544   6.370  0.0554  0.0230 -0.0087
 1340ERGO    R417111  16.290   5.771   6.537  0.3932  0.0348 -0.1644
 1340ERGO    R517112  16.412   5.597   6.492  0.1657 -0.1472 -0.1064
 1340ERGO    C117113  16.401   5.573   6.873  0.2579  0.0916 -0.0872
 1340ERGO    C217114  16.460   5.505   7.236 -0.1071  0.0324  0.1277
 1341ERGO   ROH17115  18.355   2.381   5.721 -0.0295  0.0501  0.0300
 1341ERGO    R117116  18.525   2.380   5.948 -0.0284 -0.0286  0.0291
 1341ERGO    R217117  18.445   2.480   6.194  0.0434  0.0754  0.0095
 1341ERGO    R317118  18.520   2.234   6.281 -0.1323  0.0371  0.0572
 1341ERGO    R417119  18.647   2.421   6.468  0.4372  0.0163 -0.2832
 1341ERGO    R517120  18.746   2.263   6.355  0.0421 -0.2012 -0.3462
 1341ERGO    C117121  18.834   2.155   6.710  0.5015 -0.0541 -0.4089
 1341ERGO    C217122  19.081   1.974   6.906 -0.2522  0.0029  0.1233
 1342ERGO   ROH17123   3.591  15.379   5.907 -0.2581  0.2888 -0.1534
 1342ERGO    R117124   3.520  15.524   6.139 -0.0284  0.1754 -0.0086
 1342ERGO    R217125   3.337  15.429   6.324 -0.0576  0.2097 -0.0212
 1342ERGO    R317126   3.540  15.473   6.499  0.0523 -0.1356 -0.0535
 1342ERGO    R417127   3.306  15.419   6.668 -0.0050  0.1806 -0.0175
 1342ERGO    R517128   3.438  15.592   6.680  0.2663 -0.0152 -0.0058
 1342ERGO    C117129   3.479  15.454   7.033  0.1287 -0.1605 -0.0456
 1342ERGO    C217130   3.372  15.197   7.288  0.2709  0.0112 -0.1070
 1343ERGO   ROH17131   8.854   1.403   5.654 -0.2625 -0.3134  0.2034
 1343ERGO    R117132   8.771   1.503   5.905 -0.2352 -0.0555  0.1126
 1343ERGO    R217133   8.860   1.397   6.146 -0.3991  0.0266  0.2120
 1343ERGO    R317134   8.931   1.655   6.195 -0.1664 -0.0023  0.0470
 1343ERGO    R417135   8.901   1.536   6.459 -0.5045  0.2485  0.1294
 1343ERGO    R517136   8.804   1.717   6.387 -0.2591  0.2950 -0.1022
 1343ERGO    C117137   8.990   1.859   6.688 -0.3474  0.3506 -0.0737
 1343ERGO    C217138   9.060   1.885   7.010 -0.0909  0.0022 -0.0225
 1344ERGO   ROH17139  16.711   4.505   9.040 -0.3514 -0.0857  0.0427
 1344ERGO    R117140  16.621   4.651   8.815 -0.3297  0.1069  0.1561
 1344ERGO    R217141  16.684   4.579   8.556  0.0152  0.5409  0.1037
 1344ERGO    R317142  16.414   4.586   8.523  0.0310  0.2251 -0.1319
 1344ERGO    R417143  16.516   4.800   8.350 -0.0787  0.4517  0.0852
 1344ERGO    R517144  16.363   4.819   8.504 -0.2428  0.1733 -0.0397
 1344ERGO    C117145  16.165   4.935   8.199 -0.1186  0.1033 -0.1466
 1344ERGO    C217146  15.988   4.972   7.937 -0.0753 -0.3569  0.5128
 1345ERGO   ROH17147   9.340  12.063   9.179  0.2689 -0.1023  0.1208
 1345ERGO    R117148   9.369  12.025   8.900  0.0675  0.2707  0.0440
 1345ERGO    R217149   9.554  12.163   8.750  0.2840  0.1336  0.1882
 1345ERGO    R317150   9.631  11.914   8.673 -0.2502  0.0807 -0.2423
 1345ERGO    R417151   9.770  12.096   8.488  0.6594  0.1978  0.4725
 1345ERGO    R517152   9.643  11.927   8.434  0.2777  0.6526 -0.2145
 1345ERGO    C117153   9.969  11.823   8.264  0.3763  0.1856  0.2338
 1345ERGO    C217154  10.091  11.665   8.012  0.0315 -0.0756 -0.0862
 1346W        W17155   1.106   7.360   1.858  0.1345 -0.3266 -0.3565
 1347W        W17156   6.668  18.150  11.462 -0.0399  0.0402  0.0605
 1348W        W17157   5.960  10.674  13.582  0.4345 -0.4239  0.1960
 1349W        W17158  17.975   7.652  13.933  0.0699  0.0045 -0.2076
 1350W        W17159  17.572   2.119  10.573  0.1372 -0.0721  0.2806
 1351W        W17160   8.718  15.735   4.661 -0.0611  0.2482  0.2124
 1352W        W17161  10.013   3.802   4.839 -0.1338 -0.1480 -0.1428
 1353W        W17162  17.330   3.795   3.535  0.0662  0.0695  0.0760
 1354W        W17163   6.018   9.145  13.393 -0.0822 -0.2316 -0.0524
 1355W        W17164   5.479   3.234  15.105  0.2274 -0.0376 -0.1556
 1356W        W17165  15.600  16.317   1.717  0.0908 -0.1341  0.2564
 1357W        W17166   8.620   9.166  12.355  0.0923 -0.5422 -0.0001
 1358W        W17167  11.006   1.555   0.960 -0.3393  0.0506 -0.0613
 1359W        W17168  17.578   4.712   1.012 -0.0460 -0.0694  0.0410
 1360W        W17169   1.903  17.994   1.819 -0.3137 -0.2771  0.2141
 1361W        W17170  15.688   0.478   5.027 -0.0996 -0.0821 -0.2033
 1362W        W17171   0.581   2.506  12.278 -0.2898 -0.0549 -0.5112
 1363W        W17172   5.616  15.086   0.094 -0.0612 -0.0014  0.0507
 1364W        W17173   3.678   4.987  15.152 -0.2791 -0.1242 -0.1289
 1365W        W17174   7.123  14.030  10.746 -0.2409  0.2048 -0.1016
 1366W        W17175   7.985  18.764  12.519 -0.0273  0.2278  0.0922
 1367W        W17176   1.921   5.424   4.490 -0.4385 -0.3053  0.0232
 1368W        W17177  10.340   5.257   5.504 -0.0085  0.0721 -0.1275
 1369W        W17178  16.970  12.936   5.450  0.2317  0.0350  0.0120
 1370W        W17179   1.896   2.555   3.898  0.0624  0.2756 -0.2423
 1371W        W17180  11.391   7.359   9.845  0.2532  0.0919  0.3959
 1372W        W17181   4.692  14.634  10.578 -0.3238 -0.4029 -0.1036
 1373W        W17182  10.691  12.900   0.356 -0.0110  0.0084 -0.5511
 1374W        W17183   9.974  15.438  11.154 -0.1325  0.0265  0.2692
 1375W        W17184  10.405  11.645   4.611  0.0833  0.3071  0.2653
 1376W        W17185   8.002   6.156   1.462  0.0910 -0.0215 -0.4923
 1377W        W17186   3.062  17.341  11.401 -0.0841 -0.4687 -0.1224
 1378W        W17187  19.065   4.473   0.150 -0.1176 -0.0042 -0.0867
 1379W        W17188   7.262   3.635   0.996  0.0310 -0.1445  0.1428
 1380W        W17189   3.465  16.246   3.716 -0.0020 -0.3284  0.0919
 1381W        W17190   7.574  11.668   0.860  0.1340 -0.2108  0.3338
 1382W        W17191   7.882  11.242  12.241  0.2768  0.0492 -0.1258
 1383W        W17192   1.442   9.544  15.245 -0.0850 -0.0898  0.1115
 1384W        W17193  18.775   1.918  10.614 -0.1092  0.0295  0.3055
 1385W        W17194  17.332  16.188   1.651 -0.0503 -0.0816  0.2805
 1386W        W17195   3.927   3.522   9.587 -0.0652  0.0020 -0.1418
 1387W        W17196  10.254   9.055  10.205  0.1358  0.1143 -0.1998
 1388W        W17197   3.621   2.049   3.367 -0.0038 -0.1532 -0.1709
 1389W        W17198   8.737  18.374   4.569 -0.1403  0.0944 -0.0877
 1390W        W17199   3.722   5.370   2.884  0.2614  0.1434 -0.0841
 1391W        W17200  16.019   3.435   2.789  0.3169 -0.0466 -0.1309
 1392W        W17201  13.280  17.950   1.495 -0.2557  0.2607 -0.3010
 1393W        W17202  14.578  10.549  10.884  0.2920  0.1432 -0.4106
 1394W        W17203  18.753   2.755  15.192  0.2713  0.1415 -0.0475
 1395W        W17204   0.263   5.717  13.135 -0.0641  0.1183  0.1003
 1396W        W17205   4.898  12.242  11.410  0.3086 -0.0625  0.0125
 1397W        W17206   8.472   4.212   4.490 -0.2090  0.0692  0.0425
 1398W        W17207   4.785   8.209  12.199 -0.3085 -0.4851 -0.0694
 1399W        W17208   4.235  17.164  11.794  0.0552 -0.2331  0.3837
 1400W        W17209   9.535   8.651   4.077 -0.2424  0.0973  0.1844
 1401W        W17210   0.673   7.311  15.229  0.2187 -0.1707 -0.2334
 1402W        W17211  14.754   9.525   3.398 -0.0900 -0.2198 -0.0471
 1403W        W17212   9.478   2.685  13.054 -0.1873 -0.1080 -0.0401
 1404W        W17213  16.299  12.554   4.508 -0.0710  0.3983  0.3261
 1405W        W17214  14.110   9.826  14.683  0.0088  0.0114 -0.2527
 1406W        W17215   8.885   2.118  15.266  0.1041 -0.2560  0.1905
 1407W        W17216   5.900   0.920  12.917  0.0750 -0.2202  0.0349
 1408W        W17217   3.497   6.223   3.467  0.1291  0.1412  0.1931
 1409W        W17218   9.505   4.723  13.624 -0.0205  0.1564  0.1624
 1410W        W17219   3.827   5.873   4.303 -0.1446  0.2462  0.1736
 1411W        W17220  18.249  16.203  11.321  0.2074  0.1996 -0.5127
 1412W        W17221  13.187   4.071  14.147  0.0373  0.2649 -0.0771
 1413W        W17222  16.206   0.671   0.378 -0.1892 -0.2807 -0.1788
 1414W        W17223   2.604  18.157   0.728 -0.0117  0.3663  0.2638
 1415W        W17224   3.182  17.062  12.396  0.1700  0.2013 -0.2036
 1416W        W17225   7.146  12.726   3.923  0.1537 -0.1499  0.1423
 1417W        W17226  17.702  14.289   5.206 -0.0313  0.0319  0.1143
 1418W        W17227  12.346   9.962   0.830  0.2111  0.2343 -0.0955
 1419W        W17228  10.825   6.572   5.418 -0.1692 -0.2759  0.0274
 1420W        W17229  19.092   7.789  13.012 -0.0240  0.1785  0.2019
 1421W        W17230   9.928   4.587  12.257 -0.0112  0.0818 -0.1371
 1422W        W17231  16.274   3.916  14.706  0.1667 -0.2473 -0.0174
 1423W        W17232   5.543  11.139  14.162  0.1174  0.3295 -0.2343
 1424W        W17233   4.282  16.592  14.080 -0.3262  0.0213  0.2605
 1425W        W17234   3.129   6.076  12.835 -0.0394  0.1780 -0.0262
 1426W        W17235   7.235  15.808   1.281  0.1670  0.0395 -0.1100
 1427W        W17236  18.746   9.685  11.056  0.0601  0.0624  0.1043
 1428W        W17237  14.821   5.469   3.125 -0.1858  0.5091  0.1873
 1429W        W17238  12.007  16.807  13.879  0.3397 -0.1553  0.1612
 1430W        W17239   1.350   6.399  11.526 -0.1251 -0.3191  0.4153
 1431W        W17240  17.449   8.963  14.187 -0.0633  0.0234  0.2405
 1432W        W17241  17.543   6.141   5.582  0.0533 -0.3152  0.0797
 1433W        W17242  10.881  17.759   1.950  0.2804 -0.2970 -0.1718
 1434W        W17243   4.651   1.377  11.849 -0.1916  0.1197  0.0044
 1435W        W17244   8.967   7.448   2.473  0.2660  0.1371 -0.2251
 1436W        W17245  12.064   1.555   2.752  0.0399 -0.0697  0.0657
 1437W        W17246   3.921  13.887   2.105 -0.0922  0.3856  0.0704
 1438W        W17247   5.142   2.232   0.458 -0.3212 -0.1148  0.0040
 1439W        W17248  15.386  17.656  14.446 -0.1595 -0.1075  0.1859
 1440W        W17249  13.802  13.370   3.537 -0.0303 -0.2774  0.0087
 1441W        W17250  13.839  11.593   3.892  0.0419  0.1062  0.2254
 1442W        W17251   4.496  10.277  12.910  0.2014  0.1973  0.1120
 1443W        W17252  12.307  10.923  14.729  0.1175  0.1839  0.3473
 1444W        W17253  13.742   3.444   4.150 -0.0618  0.1605 -0.3159
 1445W        W17254   8.964  10.691  12.068 -0.3526  0.1093 -0.1327
 1446W        W17255  17.475   2.514  11.062  0.2017 -0.0824 -0.0017
 1447W        W17256   3.803  11.872   1.563  0.3541 -0.0494 -0.0484
 1448W        W17257   4.920  13.337  13.806 -0.1059 -0.2820  0.2348
 1449W        W17258   1.843  17.108  15.063 -0.2646 -0.1327  0.1509
 1450W        W17259  15.182   0.922  12.615  0.0451 -0.2500  0.1590
 1451W        W17260  13.661  15.934  12.537  0.0524  0.2547  0.2095
 1452W        W17261  12.594   6.977   3.540 -0.3728 -0.0191 -0.1550
 1453W        W17262   0.884  10.285   5.101 -0.2546  0.0406 -0.2193
 1454W        W17263  16.418  14.466  11.878 -0.0526 -0.2384 -0.1673
 1455W        W17264   9.164  12.231   3.387 -0.2895  0.2959  0.2103
 1456W        W17265  15.842   3.747  14.831  0.0607  0.2070  0.1849
 1457W        W17266   3.772  18.170  14.826  0.0786  0.1962 -0.0217
 1458W        W17267  11.633  17.333   3.078  0.0288  0.0072 -0.0844
 1459W        W17268  11.938  14.743  15.035 -0.0512  0.1388  0.0617
 1460W        W17269   6.400   3.237  10.911  0.1115 -0.2016  0.1520
 1461W        W17270  16.443  13.792   4.535 -0.1842 -0.0470  0.0708
 1462W        W17271  10.633  12.395  10.974 -0.3121  0.4104 -0.1224
 1463W        W17272   8.026   3.504  15.023 -0.2061 -0.1099  0.0375
 1464W        W17273   4.066  13.097   4.235 -0.0504 -0.0026  0.0378
 1465W        W17274  10.003  16.309   4.686 -0.5621 -0.1436  0.0936
 1466W        W17275  15.845   2.136  13.865 -0.1968  0.0937  0.1520
 1467W        W17276   8.905  12.002  15.096 -0.1021 -0.0790 -0.1002
 1468W        W17277   1.224   9.617  10.859 -0.0010  0.2605 -0.1622
 1469W        W17278   9.518  11.290  10.531  0.0407 -0.4054  0.2541
 1470W        W17279   3.923   4.599   3.023 -0.1050 -0.1623 -0.1334
 1471W        W17280   2.420   0.625  15.173  0.0755 -0.2583 -0.1138
 1472W        W17281   9.689  17.049   2.558 -0.2455  0.0053 -0.2020
 1473W        W17282   3.229   9.329   3.805  0.0830  0.4316 -0.0039
 1474W        W17283   1.300   8.327  14.397  0.0629 -0.2165  0.0644
 1475W        W17284  14.602   3.750   0.148  0.0514 -0.1114  0.0063
 1476W        W17285   3.854  15.452   4.175  0.1076  0.0781 -0.1703
 1477W        W17286   3.688   0.456   2.955  0.0325  0.1001 -0.0649
 1478W        W17287  10.255  16.076  13.004 -0.0229  0.2148  0.3120
 1479W        W17288   4.140   7.640  14.913 -0.1285 -0.1183 -0.2309
 1480W        W17289  15.932   6.305   4.540  0.2413 -0.1865 -0.0815
 1481W        W17290   1.786  18.517   4.182 -0.3350 -0.1708  0.1164
 1482W        W17291   8.436   8.815   1.840  0.0027 -0.0786 -0.0284
 1483W        W17292   8.537  18.592  12.603 -0.0044  0.0077  0.0513
 1484W        W17293   6.703  12.401  15.238  0.0229  0.1170  0.1170
 1485W        W17294  13.919  18.913  13.159 -0.1030  0.1477 -0.1362
 1486W        W17295  10.078   9.235  12.171  0.1651 -0.0719 -0.0209
 1487W        W17296   9.737   0.536   4.515 -0.0253 -0.2694 -0.1282
 1488W        W17297  17.058   8.987  12.002  0.1148  0.0271  0.1374
 1489W        W17298   2.531   2.808  11.167 -0.2247  0.0040 -0.0766
 1490W        W17299  16.208  15.709   4.536 -0.6053 -0.2322  0.0603
 1491W        W17300  15.312   8.037  12.417  0.0166  0.4392  0.0502
 1492W        W17301   4.710  12.147   4.015  0.0312 -0.0631  0.0902
 1493W        W17302   8.852   8.528   4.290  0.1032  0.2054 -0.2101
 1494W        W17303   1.720   6.194  11.886  0.2177  0.1992 -0.0192
 1495W        W17304  15.401   0.232   5.330  0.0154 -0.0569  0.1988
 1496W        W17305   8.339   1.847  14.870  0.0783  0.1900 -0.3213
 1497W        W17306   3.394   1.226  10.691  0.0728  0.1710  0.2571
 1498W        W17307   3.136   9.514   0.506  0.2159  0.2547  0.0783
 1499W        W17308   0.958  11.567  11.059  0.0838 -0.1883  0.1467
 1500W        W17309  10.039   3.304   2.549  0.3136 -0.2150 -0.1480
 1501W        W17310   3.284   3.279  12.895  0.1775 -0.1485  0.0007
 1502W        W17311  13.122   9.566   4.196 -0.3822 -0.1340  0.1451
 1503W        W17312  16.372  14.727   0.660 -0.3168 -0.0369  0.1280
 1504W        W17313  17.348   8.779  12.957  0.1212 -0.0332 -0.1369
 1505W        W17314   3.125  17.551   3.237  0.3790  0.1600 -0.2579
 1506W        W17315  17.649  14.091   1.337 -0.1293  0.2461  0.0063
 1507W        W17316   2.754  13.187  15.048  0.1110 -0.1268  0.0078
 1508W        W17317  18.529   7.560   5.425 -0.0460  0.1140  0.0297
 1509W        W17318   3.426   6.298   2.784  0.2358  0.0253  0.1379
 1510W        W17319  15.325   5.225  12.842 -0.0535  0.1637  0.3679
 1511W        W17320   7.966   0.047   2.772 -0.4512 -0.0317  0.3011
 1512W        W17321  15.828   8.609   0.501  0.2963 -0.0913  0.0784
 1513W        W17322   4.677  18.505  11.364  0.0967 -0.1480  0.0710
 1514W        W17323  18.832   6.719   1.486 -0.0169 -0.1852  0.0917
 1515W        W17324  12.851   6.407   2.692 -0.1237  0.0760  0.2653
 1516W        W17325  12.113   3.050   0.740  0.0922 -0.2939 -0.0566
 1517W        W17326   4.864  10.172   4.819  0.0024 -0.0287  0.1998
 1518W        W17327  10.643   1.750  11.691  0.0547 -0.2370  0.1840
 1519W        W17328  18.824   2.195  14.990 -0.3156 -0.0453  0.2222
 1520W        W17329   1.609   8.606   0.752  0.1144 -0.0700 -0.0742
 1521W        W17330  16.236   9.811   0.122 -0.1002  0.2724  0.2437
 1522W        W17331  12.654   2.253   4.841 -0.2541 -0.1246 -0.2075
 1523W        W17332  11.892  11.891  11.066  0.2853 -0.2446 -0.1142
 1524W        W17333   2.468  11.095  11.520  0.1178  0.2918  0.0721
 1525W        W17334  18.361  18.531   1.719  0.3112  0.3400 -0.1004
 1526W        W17335   3.456   5.804   2.735 -0.0192  0.0569 -0.0045
 1527W        W17336   7.906   2.361  12.163  0.2422  0.3140  0.2759
 1528W        W17337   5.329  12.404  13.407  0.2044 -0.0586 -0.0690
 1529W        W17338  11.914  15.845   4.302 -0.2760 -0.2820  0.1132
 1530W        W17339  13.898   3.861   4.780  0.0169 -0.0979  0.0856
 1531W        W17340   9.441   6.296  11.427  0.0171  0.1414  0.1975
 1532W        W17341  18.981  14.595  13.988  0.3082 -0.1577  0.2315
 1533W        W17342  10.076   3.703  12.243  0.1313  0.0837 -0.0617
 1534W        W17343  15.413   7.300  14.628  0.1316 -0.0665 -0.1501
 1535W        W17344  17.595   8.497   1.233  0.1315  0.0892 -0.2457
 1536W        W17345  17.848   0.259   4.160 -0.2426  0.1389 -0.1892
 1537W        W17346  17.844  15.958  13.617 -0.1480 -0.0847 -0.0623
 1538W        W17347  13.522   4.373   0.871  0.0255  0.4925 -0.2596
 1539W        W17348  17.460   8.234  12.448  0.2014  0.1658  0.1234
 1540W        W17349  17.361   1.106  11.616  0.0540 -0.0340 -0.2658
 1541W        W17350   6.823  16.514   4.242 -0.0272 -0.4217  0.0221
 1542W        W17351   9.339  16.312   4.004 -0.1662  0.0874  0.2449
 1543W        W17352  18.403  17.045   4.301 -0.0468  0.0993  0.0998
 1544W        W17353   4.412   0.923   3.796 -0.0227 -0.2168  0.1716
 1545W        W17354  18.059   1.094  13.637 -0.1901  0.5321  0.1048
 1546W        W17355   6.789  13.629  14.727  0.0451  0.1005  0.1483
 1547W        W17356   5.222   5.286   1.233 -0.2111 -0.3030  0.0211
 1548W        W17357   4.960  11.086   4.495  0.0077 -0.1583  0.1602
 1549W        W17358   6.119   1.452   1.210 -0.3236 -0.0496 -0.3266
 1550W        W17359  18.937  17.016   4.353  0.0746  0.0881 -0.2134
 1551W        W17360  18.361   3.116  10.849 -0.1002  0.0540  0.3353
 1552W        W17361   0.025  16.356  14.168 -0.2153 -0.1178 -0.0697
 1553W        W17362   5.503  17.646   1.060 -0.0705  0.1893 -0.3123
 1554W        W17363  10.991  13.108   5.617 -0.1910  0.0120 -0.1176
 1555W        W17364  14.142  16.677   3.218 -0.2717  0.0799 -0.0463
 1556W        W17365   8.256   2.024   4.769 -0.2052  0.0774  0.0828
 1557W        W17366   9.442   9.609  13.945 -0.1221  0.0392 -0.0391
 1558W        W17367   5.285   9.142  11.020 -0.2117  0.1971  0.0518
 1559W        W17368  12.223  18.982  10.069 -0.2146 -0.0813  0.2413
 1560W        W17369  16.541   5.446   2.636  0.0338  0.1939 -0.2467
 1561W        W17370   9.215  15.557   4.242  0.2671 -0.1949 -0.3764
 1562W        W17371   4.371   9.333   3.701  0.2435  0.0230  0.2704
 1563W        W17372   5.429  16.225   3.016 -0.0161 -0.2627  0.1785
 1564W        W17373  15.110   1.962   1.578 -0.1742 -0.0119 -0.1292
 1565W        W17374   6.484   9.260   2.370 -0.2915  0.0552 -0.1773
 1566W        W17375   5.478  10.167  10.874  0.1351 -0.0099  0.0139
 1567W        W17376   5.606   9.856   0.083 -0.0129 -0.4224 -0.1973
 1568W        W17377   2.775   9.471   3.590 -0.2468  0.0044 -0.1839
 1569W        W17378  15.200  12.782   3.422 -0.0624  0.2669  0.3623
 1570W        W17379   0.963   2.996   2.745 -0.0808 -0.1008 -0.2010
 1571W        W17380  13.654   1.110   2.352 -0.0227 -0.3958 -0.3440
 1572W        W17381   5.808  16.643  11.960 -0.1894 -0.1035  0.1977
 1573W        W17382   0.337   7.901  14.698  0.0575  0.2240 -0.0236
 1574W        W17383   1.911   0.885   1.585  0.0699 -0.1198  0.0337
 1575W        W17384   2.285  15.321   3.465 -0.3510  0.3104  0.4189
 1576W        W17385   4.303  12.066  14.234  0.1382 -0.2390 -0.0418
 1577W        W17386  10.967   7.801   3.045 -0.0189  0.0905  0.1060
 1578W        W17387   9.746   0.977   0.555 -0.2047 -0.1609  0.0489
 1579W        W17388  15.116   4.457  13.241  0.0429  0.0650  0.1483
 1580W        W17389  16.152  10.239   1.660  0.3533  0.1296 -0.1070
 1581W        W17390  13.004   7.293   1.554 -0.1606  0.0942 -0.1434
 1582W        W17391  17.520  15.154  11.528  0.0067 -0.0899 -0.2536
 1583W        W17392  16.738  11.594   1.565  0.1211 -0.1560  0.0370
 1584W        W17393   2.464  13.095   0.322  0.2699  0.3753  0.1124
 1585W        W17394  12.304   3.681  13.580 -0.2483  0.1093 -0.3485
 1586W        W17395  17.683  14.475  11.899 -0.0373 -0.3480 -0.2078
 1587W        W17396   5.376   0.461  11.458  0.0707  0.1157 -0.4772
 1588W        W17397  16.611  10.816   0.305  0.0904  0.2271  0.5186
 1589W        W17398   8.707   1.865   0.394 -0.2107  0.3079 -0.0411
 1590W        W17399  16.090   8.399   5.633  0.0131  0.1702 -0.1694
 1591W        W17400  13.966  12.886  12.571 -0.3649 -0.1092 -0.1814
 1592W        W17401  14.080   6.204   5.598  0.1716  0.1612 -0.3219
 1593W        W17402   6.942   4.334   1.088  0.1397  0.1431  0.3928
 1594W        W17403   2.349   0.850  12.928 -0.0659  0.0847  0.0385
 1595W        W17404  11.626  17.126  14.001 -0.1634 -0.3324  0.2592
 1596W        W17405   1.546   8.505   2.344  0.2296  0.3560 -0.0453
 1597W        W17406  11.027   2.602  11.196 -0.0233 -0.0925  0.0992
 1598W        W17407  14.080   4.356   3.049  0.1034 -0.2254 -0.2684
 1599W        W17408  17.895  15.462   3.666 -0.2145 -0.0833  0.1317
 1600W        W17409   6.397   9.025   1.197  0.0098 -0.3703 -0.0453
 1601W        W17410   5.786   7.750   3.131  0.1564 -0.1849 -0.0015
 1602W        W17411   0.226   2.968  12.363 -0.1073 -0.0128 -0.0461
 1603W        W17412   1.771   5.672   1.772 -0.0472 -0.0507  0.1875
 1604W        W17413   9.827  13.467   0.024 -0.0788 -0.0519  0.1117
 1605W        W17414  18.248  19.028   4.767  0.2154  0.0829 -0.2424
 1606W        W17415  14.965  16.246   2.417 -0.0244  0.0344  0.2800
 1607W        W17416  18.797   7.082   1.904 -0.0477  0.2466  0.0192
 1608W        W17417   3.377   8.935   4.094 -0.2675  0.0153 -0.0769
 1609W        W17418  13.844   4.174   3.694  0.0245 -0.1026  0.1947
 1610W        W17419   1.831  14.184  12.176 -0.3158  0.2879  0.0787
 1611W        W17420  16.988   4.124   2.308 -0.2427 -0.0838  0.0452
 1612W        W17421  11.111  12.537  11.096 -0.2366  0.3113  0.1533
 1613W        W17422   7.320   4.716   0.045 -0.0870  0.0894 -0.2014
 1614W        W17423  11.828  16.927   0.720  0.2445 -0.0183 -0.2155
 1615W        W17424   1.137   4.193  12.179  0.0024  0.0359 -0.2148
 1616W        W17425  16.574  12.915   1.026  0.0705 -0.2503  0.1407
 1617W        W17426  10.094   5.419  14.988 -0.3712 -0.0938 -0.0411
 1618W        W17427  11.590   8.292   5.126  0.1839  0.0195  0.1461
 1619W        W17428   0.192  18.887  11.020 -0.2138  0.0576  0.0231
 1620W        W17429  13.751   4.626   1.633  0.3654 -0.2729  0.0624
 1621W        W17430   0.371   1.420   2.076  0.1197  0.2472  0.0062
 1622W        W17431   2.093   0.968  14.226  0.1725 -0.1326  0.0935
 1623W        W17432  16.606  17.997   2.251 -0.0095  0.2146 -0.2498
 1624W        W17433   1.260  13.470  11.976  0.1803  0.0746  0.0725
 1625W        W17434  10.813   9.383   1.975 -0.3163  0.1191 -0.0197
 1626W        W17435  17.913   7.166   2.688 -0.0400 -0.3796 -0.0727
 1627W        W17436  14.594   9.506  11.457 -0.0636  0.0226  0.0734
 1628W        W17437  17.895   8.433   4.599 -0.0902  0.2803  0.1269
 1629W        W17438  13.775   0.336  13.003 -0.1202  0.0959  0.2178
 1630W        W17439   6.146  17.805  12.494  0.0148  0.1563  0.0434
 1631W        W17440   6.725   7.449  12.788 -0.0446 -0.2689 -0.1204
 1632W        W17441   4.247   8.290  11.540 -0.2149 -0.1097 -0.0464
 1633W        W17442   5.185   1.032   4.612 -0.1918 -0.2829 -0.1266
 1634W        W17443   8.441  18.852  11.382  0.1217 -0.1488 -0.0237
 1635W        W17444  18.737  15.144   3.212 -0.1947 -0.2318 -0.0328
 1636W        W17445  10.703   4.075  14.392  0.0234  0.2233  0.0061
 1637W        W17446  10.684  14.026  12.159 -0.0886 -0.3548 -0.2439
 1638W        W17447   2.127  16.701  13.262  0.0152  0.0241 -0.2323
 1639W        W17448   3.474   2.134  11.351  0.1071  0.0885  0.2838
 1640W        W17449   7.769  12.955  10.654 -0.0949 -0.0920  0.2872
 1641W        W17450  13.305  11.110  14.936 -0.2534 -0.0760  0.0039
 1642W        W17451   7.919   3.048   0.589 -0.0909  0.0978 -0.2098
 1643W        W17452  10.211  10.130  15.009 -0.2373 -0.2909 -0.0683
 1644W        W17453   6.038  15.037  14.119 -0.4173 -0.2901 -0.0021
 1645W        W17454   7.151   9.491   3.981 -0.1608  0.1571  0.0819
 1646W        W17455   2.104   8.650  13.878  0.0526 -0.1193  0.2515
 1647W        W17456   3.473   2.929   4.081 -0.1968 -0.0546 -0.0589
 1648W        W17457  11.181  15.779   5.081  0.2297 -0.3424 -0.1198
 1649W        W17458  18.254  17.441  13.876  0.4552  0.1780 -0.2054
 1650W        W17459  15.605   9.342   1.676 -0.0174  0.0038 -0.1859
 1651W        W17460  13.605   2.980  13.259  0.0042 -0.0900 -0.0366
 1652W        W17461  11.021   3.493  10.930 -0.1601  0.5472  0.0582
 1653W        W17462   1.024   1.051   9.296  0.0219 -0.1177  0.1658
 1654W        W17463  12.309   1.496   2.308 -0.0895 -0.2485 -0.1784
 1655W        W17464  17.453   3.227  12.993 -0.1515 -0.1964  0.1394
 1656W        W17465  16.265   1.484   2.605 -0.4066 -0.2434 -0.0881
 1657W        W17466   3.250   9.746   0.078  0.1892  0.2633 -0.1235
 1658W        W17467   9.665  19.058   0.007  0.1537  0.0974  0.5094
 1659W        W17468   3.304   7.316   0.575  0.1047  0.2810 -0.0856
 1660W        W17469  11.429   0.301   3.752 -0.1894 -0.0590 -0.0846
 1661W        W17470  15.823   1.672  14.276 -0.0593 -0.1091 -0.0933
 1662W        W17471  12.155   7.202  13.431 -0.1004  0.1883  0.3518
 1663W        W17472  14.254   8.557  14.998 -0.0286  0.0745 -0.1329
 1664W        W17473  18.631   8.886  14.291  0.1534  0.1559  0.1346
 1665W        W17474  16.439  10.072  12.330  0.0235  0.1224  0.1600
 1666W        W17475  17.326   1.659   1.629  0.0639 -0.3447 -0.3749
 1667W        W17476  15.756  11.880  13.904 -0.3668 -0.1842 -0.2814
 1668W        W17477   1.200  18.909  14.344 -0.0478  0.1760  0.0781
 1669W        W17478  14.689  10.827   9.666 -0.1591  0.2506  0.2078
 1670W        W17479  10.469  16.217   4.378  0.4603 -0.0755 -0.1248
 1671W        W17480   3.372   1.235  12.864 -0.2021 -0.2952  0.4792
 1672W        W17481  17.277   1.396   0.087  0.4750  0.4335 -0.0084
 1673W        W17482  16.375  17.358   2.117  0.3019 -0.2152 -0.1738
 1674W        W17483  16.079   0.058  13.048 -0.0071 -0.3428  0.2363
 1675W        W17484  18.094   7.747   2.214 -0.0241  0.1665 -0.0555
 1676W        W17485  15.419   7.056   5.341 -0.4552  0.1546 -0.1963
 1677W        W17486   9.352  12.080  10.085  0.1363 -0.2162  0.0407
 1678W        W17487   9.348   8.629   0.765  0.0866 -0.2028 -0.0256
 1679W        W17488  15.039   1.705   4.259  0.0156  0.0483 -0.0691
 1680W        W17489  12.798  16.834   1.871  0.2811 -0.2913 -0.2199
 1681W        W17490  14.949  10.546   3.583 -0.0507 -0.3421  0.2218
 1682W        W17491   4.901   3.186   1.593 -0.0743 -0.2244  0.3039
 1683W        W17492   1.424   8.153   3.274 -0.0651 -0.0301  0.2551
 1684W        W17493  12.299  16.340  12.284  0.0656 -0.0692 -0.1906
 1685W        W17494   7.680  15.003  13.629  0.2842 -0.0373 -0.3635
 1686W        W17495   0.009   0.494  14.631 -0.0699  0.0989  0.0519
 1687W        W17496  10.259   4.225  12.496 -0.2518  0.1558 -0.1700
 1688W        W17497  18.951   2.577   0.390  0.3903  0.2380  0.0545
 1689W        W17498   1.943   3.546  14.897 -0.4347  0.1587  0.4364
 1690W        W17499  11.761   9.976  13.259  0.1580 -0.1058  0.1867
 1691W        W17500  10.010  14.988   4.783 -0.4082 -0.1427  0.0736
 1692W        W17501   6.257  16.245   0.738  0.0744  0.2893 -0.3021
 1693W        W17502   3.859   0.176   1.131 -0.0242 -0.3270  0.1864
 1694W        W17503  12.853   6.098  12.989 -0.0676 -0.0833 -0.2012
 1695W        W17504   6.238   2.393   0.699  0.2001  0.0173  0.1161
 1696W        W17505   4.872   4.712  13.318 -0.1453  0.1477  0.2404
 1697W        W17506  12.196   8.425  15.080 -0.0503  0.2405  0.0788
 1698W        W17507   7.736   6.663  12.147 -0.2085 -0.0845  0.4717
 1699W        W17508   6.154  15.436   5.439 -0.1151  0.1211  0.2143
 1700W        W17509   1.193   5.178  13.546 -0.1443 -0.0555  0.1038
 1701W        W17510   9.567  14.598  13.620  0.2195  0.0259  0.0807
 1702W        W17511  16.617   0.743   2.824 -0.0155 -0.2747  0.4034
 1703W        W17512  10.776  11.272  14.785  0.1439 -0.2181 -0.2293
 1704W        W17513  14.025   9.740   4.411  0.0298  0.1260  0.3326
 1705W        W17514   7.669  15.048  11.264 -0.4045 -0.2253  0.0149
 1706W        W17515  17.886  15.343   2.616 -0.0877  0.1699 -0.4784
 1707W        W17516  14.783  17.541   2.847  0.0469 -0.3070 -0.0564
 1708W        W17517  15.643   8.032  15.074 -0.0991 -0.2852 -0.1566
 1709W        W17518   4.518   0.701  13.958  0.1180  0.1728 -0.0452
 1710W        W17519  12.741   9.564  14.623 -0.2274  0.3652  0.0701
 1711W        W17520  19.011   3.350   0.933 -0.2532  0.1465  0.0760
 1712W        W17521  11.432   2.810  14.198  0.1058 -0.0893  0.1176
 1713W        W17522   2.790   4.361   2.041  0.2663 -0.1933 -0.0939
 1714W        W17523  13.999   3.045  12.373 -0.0243  0.3984 -0.3143
 1715W        W17524  11.027   2.298   0.395 -0.1042  0.0383  0.2874
 1716W        W17525  18.208   5.779  13.367  0.0900  0.1387  0.0886
 1717W        W17526   9.692   3.459  11.801  0.1276 -0.4659  0.4526
 1718W        W17527  18.161   6.111   5.626 -0.1788 -0.0211 -0.0819
 1719W        W17528   1.418  15.326  13.168 -0.0140  0.0985 -0.2103
 1720W        W17529   8.325   4.249   3.104 -0.1217 -0.0781 -0.3639
 1721W        W17530   9.107   3.945  11.542  0.3505 -0.0376 -0.2024
 1722W        W17531   1.332   2.391   2.334  0.4573 -0.1165 -0.5134
 1723W        W17532   0.255   6.670   9.876 -0.2107  0.2908 -0.1111
 1724W        W17533  12.595   7.610   9.264 -0.0439  0.1065  0.0718
 1725W        W17534  18.602   9.281  12.818  0.0385 -0.0051 -0.1343
 1726W        W17535   7.792  18.995  14.625 -0.0489 -0.2100  0.0372
 1727W        W17536  18.792  18.823   1.431  0.0536  0.3360 -0.0589
 1728W        W17537   7.569   5.649  15.063  0.1292 -0.1054  0.0489
 1729W        W17538  17.808   9.640  11.360  0.2344 -0.5075 -0.0227
 1730W        W17539  10.491   8.594   2.650 -0.0196  0.2084  0.0220
 1731W        W17540  12.996  16.061  10.973 -0.1799 -0.1026 -0.0310
 1732W        W17541  17.693   7.804   5.156  0.2916  0.2131 -0.4741
 1733W        W17542  11.135   2.800   4.816 -0.3823  0.1873 -0.0143
 1734W        W17543  11.572   8.008  12.736 -0.4461  0.0800  0.0455
 1735W        W17544   2.872  17.784  11.497  0.1043 -0.0473 -0.0907
 1736W        W17545   8.923  11.559   4.411  0.1039 -0.2769  0.0550
 1737W        W17546   0.788  18.137  14.725  0.0630 -0.0310 -0.0615
 1738W        W17547   3.771  16.933   1.581  0.0025  0.0717  0.2826
 1739W        W17548  16.260   0.495  14.210 -0.1445  0.0653  0.1530
 1740W        W17549  16.967   3.959   4.135  0.2316  0.2883 -0.1456
 1741W        W17550   4.254  12.664  10.245  0.0429 -0.2269 -0.2313
 1742W        W17551   2.919   1.597   2.937  0.3270  0.4243  0.0364
 1743W        W17552  11.043  15.920   0.899  0.1508  0.1361 -0.3243
 1744W        W17553  11.297  16.955   2.922 -0.0071  0.0370 -0.0256
 1745W        W17554  16.026  14.587  12.213 -0.1105 -0.5598  0.0980
 1746W        W17555   0.131   7.558   3.052 -0.0846 -0.0868  0.0732
 1747W        W17556  10.086  13.247  10.556 -0.0402 -0.0441  0.2174
 1748W        W17557   4.518  10.513   5.134 -0.0268 -0.0224  0.0122
 1749W        W17558  17.617   5.566  11.392 -0.0439  0.1143 -0.0364
 1750W        W17559  18.660  16.885  12.786 -0.0408 -0.0796 -0.0543
 1751W        W17560  11.914   3.379   1.536 -0.3897  0.2215 -0.1010
 1752W        W17561   5.310  18.799   1.009 -0.2606  0.0039  0.3475
 1753W        W17562  12.542   6.183   2.335  0.0784  0.0421  0.0113
 1754W        W17563  12.047  18.594   3.201 -0.0733 -0.0173  0.1080
 1755W        W17564  17.536  14.833   0.289  0.2266 -0.3932 -0.4204
 1756W        W17565   7.729  14.515  13.914  0.1894 -0.1030  0.3654
 1757W        W17566  13.727  18.463   3.285 -0.2355 -0.1913 -0.3288
 1758W        W17567  13.997  13.127   3.913 -0.1673  0.0511  0.1268
 1759W        W17568  17.502  10.068  10.966 -0.4245  0.0483 -0.0572
 1760W        W17569  12.635  13.801   1.570  0.0397  0.1718  0.3445
 1761W        W17570  14.929  16.176  11.497 -0.0832  0.2894 -0.0158
 1762W        W17571  17.944   1.813  14.554  0.2951  0.0722 -0.0296
 1763W        W17572  17.636   9.086   2.085 -0.1934 -0.0689  0.2660
 1764W        W17573   1.357   1.079  14.725 -0.3180  0.0079 -0.0223
 1765W        W17574   9.358  11.908   2.509  0.0774  0.1780  0.3278
 1766W        W17575   9.062   0.345  14.811  0.1929 -0.0697  0.1807
 1767W        W17576  12.270   8.297  10.516  0.1196  0.1875 -0.0329
 1768W        W17577   3.700  13.899   4.565 -0.0421 -0.0334  0.1139
 1769W        W17578  14.446   1.863   2.385 -0.3081  0.3844 -0.2960
 1770W        W17579  14.026  16.438   4.221 -0.1767  0.1816 -0.0708
 1771W        W17580  15.590  15.964  12.313 -0.0598  0.1308 -0.1176
 1772W        W17581   1.039   1.744  12.197 -0.0510 -0.0298 -0.1005
 1773W        W17582   9.364  14.792  12.689 -0.1195  0.4018  0.0068
 1774W        W17583  18.733   8.569   2.819 -0.0642 -0.1738  0.0572
 1775W        W17584   8.137   2.327   4.105  0.0409  0.2283  0.1319
 1776W        W17585  10.713  16.686  14.092 -0.3222 -0.0774 -0.0013
 1777W        W17586   4.941   8.031  12.711 -0.2815 -0.2492  0.0230
 1778W        W17587  11.152   2.008  12.358  0.0248 -0.2147 -0.1811
 1779W        W17588   3.068  13.840   0.621 -0.0116 -0.2905  0.0276
 1780W        W17589   5.387   1.649  11.931  0.4886  0.0868 -0.0137
 1781W        W17590  13.353  13.560  12.153  0.1870  0.0517  0.2151
 1782W        W17591  13.346   2.131   0.025  0.3491 -0.1368  0.1057
 1783W        W17592   0.446   2.563   4.888  0.3492  0.0750 -0.1333
 1784W        W17593  14.920  11.716   2.701  0.0764  0.0865  0.3269
 1785W        W17594  13.154   1.608   3.509  0.0419 -0.0065  0.1673
 1786W        W17595  17.533  15.281   4.035 -0.0297  0.0965  0.3799
 1787W        W17596   2.038  18.035  13.780  0.2178 -0.2008 -0.1255
 1788W        W17597  12.824  18.895  12.691 -0.3135 -0.0487  0.2163
 1789W        W17598  17.354  11.923   2.354  0.0049  0.3464 -0.2947
 1790W        W17599  17.525  10.720  10.384 -0.2973 -0.0826  0.0699
 1791W        W17600   0.785   9.482  12.982 -0.1573  0.0156 -0.1395
 1792W        W17601  13.077  16.840  14.720 -0.0884  0.1194  0.0461
 1793W        W17602  16.180   8.511  14.351  0.0547  0.1696  0.1347
 1794W        W17603  12.177   0.944  15.106  0.4329 -0.2259  0.0010
 1795W        W17604  12.497  14.137  12.904 -0.2649 -0.0753 -0.1097
 1796W        W17605  12.469  14.461   2.345 -0.2958 -0.0677 -0.1537
 1797W        W17606   7.486   8.243   2.733 -0.1466 -0.0648  0.1295
 1798W        W17607  15.447   4.094   0.616  0.3381 -0.1246 -0.0306
 1799W        W17608   5.708  14.419   1.314  0.1874 -0.0481  0.1191
 1800W        W17609  13.656  15.925   1.187 -0.0458  0.0706 -0.0829
 1801W        W17610  10.166  14.221   4.795 -0.1557  0.1132 -0.1998
 1802W        W17611   4.212  10.008   3.477 -0.0823 -0.2261 -0.3241
 1803W        W17612   7.590  10.827  14.566  0.1142 -0.2518 -0.2204
 1804W        W17613  16.770   3.388   0.463  0.0397 -0.0310  0.0422
 1805W        W17614  17.233   4.950   0.237 -0.2792  0.3362  0.2955
 1806W        W17615   6.787   4.307  12.122 -0.0986  0.0361 -0.0352
 1807W        W17616   3.907   3.357  10.828 -0.3571  0.1130 -0.0004
 1808W        W17617  16.203   7.902  14.308 -0.0161  0.4251 -0.0132
 1809W        W17618  12.254   9.934   3.109 -0.1100 -0.1227  0.1000
 1810W        W17619  16.956   1.321   4.206  0.0974  0.2416 -0.2033
 1811W        W17620  17.655  13.571   1.731 -0.0392 -0.2910 -0.1224
 1812W        W17621   4.661   8.062   2.866 -0.0671  0.0449 -0.0066
 1813W        W17622   5.520  17.942  15.122  0.3525  0.2161 -0.1489
 1814W        W17623   3.328   2.761  13.136 -0.1841 -0.1741  0.1567
 1815W        W17624   2.174   7.543  12.199 -0.1233 -0.0199 -0.1324
 1816W        W17625  13.241   8.959   0.120  0.0517  0.3356 -0.1990
 1817W        W17626  12.359  11.128   0.018  0.1260 -0.2605 -0.1003
 1818W        W17627   8.920  10.274   5.102 -0.2657  0.1791  0.2195
 1819W        W17628  10.284   3.673   1.136 -0.0090 -0.0851  0.3325
 1820W        W17629   8.374   9.943  12.911  0.0711 -0.5410  0.1243
 1821W        W17630   2.822  10.636   1.801  0.1719 -0.4427 -0.0160
 1822W        W17631   5.778  12.875   4.837 -0.3021 -0.1227 -0.0301
 1823W        W17632  19.003   3.931   2.882  0.0247  0.1316  0.0587
 1824W        W17633  14.332   3.567   2.631  0.1701  0.0184  0.0606
 1825W        W17634   8.133  13.121  11.020  0.0628  0.2637 -0.2409
 1826W        W17635   2.399   9.359   5.646  0.2029 -0.0516  0.1714
 1827W        W17636   9.129   0.371   1.842 -0.1010 -0.1894  0.0827
 1828W        W17637  17.085  18.439  13.557 -0.1118  0.0848 -0.0518
 1829W        W17638   4.794  18.909   0.798 -0.2217  0.0004  0.0614
 1830W        W17639   9.085   5.874   3.776 -0.1720  0.1915 -0.2108
 1831W        W17640  14.652   3.574   0.751  0.1621 -0.0414 -0.2165
 1832W        W17641   1.401  16.842   0.040 -0.1388 -0.1035  0.0630
 1833W        W17642  16.055  17.827   0.218  0.1924 -0.1874 -0.0701
 1834W        W17643  15.265   9.733   4.261  0.0292  0.0966 -0.1374
 1835W        W17644  10.568   2.576  11.653  0.2307 -0.1132 -0.5164
 1836W        W17645   9.794   5.290   0.110 -0.0194  0.0053 -0.0092
 1837W        W17646   5.894   9.557  12.680 -0.1891  0.0998  0.0721
 1838W        W17647   5.463  10.929  15.149  0.1496  0.0626 -0.1171
 1839W        W17648   4.114  10.522  12.628 -0.2988  0.2461 -0.2694
 1840W        W17649  17.789  12.764   3.881  0.1133 -0.2135 -0.1571
 1841W        W17650   4.715   5.575   0.104 -0.3089  0.0334 -0.1492
 1842W        W17651   7.500   3.945  11.304 -0.0552  0.2800 -0.0989
 1843W        W17652   3.674   1.969  13.708  0.0457 -0.1814  0.2208
 1844W        W17653  16.764   7.662  14.588  0.4121  0.4188 -0.1923
 1845W        W17654  17.075   4.463   4.150  0.0143 -0.0036 -0.1348
 1846W        W17655  18.518  14.678   2.273 -0.2385 -0.0787  0.0539
 1847W        W17656   4.653   5.389   1.454 -0.3747 -0.3069  0.0704
 1848W        W17657   4.321  12.075  12.310  0.2043  0.4477  0.2064
 1849W        W17658   7.771   3.521  11.437  0.0075  0.2845 -0.0248
 1850W        W17659  12.971   9.292  15.232  0.1480  0.0116 -0.0287
 1851W        W17660  11.782  10.501   0.496  0.2510  0.0313  0.0291
 1852W        W17661  10.934  16.343   0.625  0.1210  0.0884  0.1893
 1853W        W17662   0.255   9.131   0.880  0.0513 -0.0803  0.0155
 1854W        W17663  14.162   4.332  13.050 -0.2616 -0.3428 -0.3812
 1855W        W17664   9.133   9.469   3.639 -0.0415  0.1398  0.1196
 1856W        W17665   7.998   6.942   4.037 -0.2394 -0.0763  0.1215
 1857W        W17666  12.844  17.118  12.208  0.2734 -0.0512  0.1175
 1858W        W17667  14.196  13.793  10.930  0.2845 -0.3347 -0.3068
 1859W        W17668   1.480  11.146  13.929 -0.2066  0.1435  0.1294
 1860W        W17669   9.362   3.018   5.448  0.1461 -0.3206  0.3587
 1861W        W17670   2.591   2.752  13.658 -0.0093  0.0943 -0.1483
 1862W        W17671   4.139   9.536  12.264 -0.0160 -0.0830  0.1539
 1863W        W17672   0.852   2.823   3.270 -0.0790  0.1586  0.0477
 1864W        W17673  15.596   4.322  10.099 -0.3169 -0.2342 -0.1974
 1865W        W17674   8.379   1.863  11.313  0.0660 -0.0933 -0.0573
 1866W        W17675  16.914  15.438  14.888  0.2310 -0.0166 -0.0673
 1867W        W17676  17.068   4.765  11.841  0.1716  0.5743 -0.0652
 1868W        W17677   0.988   8.668   2.959  0.0010  0.4341  0.0926
 1869W        W17678   0.695  14.108   4.267 -0.5581  0.0037 -0.0872
 1870W        W17679   8.986   0.845  12.101 -0.1272  0.2865 -0.1302
 1871W        W17680   8.364   9.940   0.029 -0.5447  0.3844  0.0379
 1872W        W17681   5.400  12.423   4.669  0.1354  0.0426 -0.1801
 1873W        W17682   6.627  13.450   4.620 -0.5089 -0.1123 -0.1996
 1874W        W17683  18.082  16.359   3.448  0.1919 -0.4168  0.1258
 1875W        W17684   0.256   4.722   2.398 -0.0223 -0.0105  0.0762
 1876W        W17685   6.587   7.562   3.569 -0.0470  0.0315  0.2513
 1877W        W17686  11.512   3.952   2.147  0.2548  0.0427 -0.0991
 1878W        W17687  10.571  16.419   2.950  0.2055 -0.0360  0.1450
 1879W        W17688  15.099   4.319  12.664  0.1846 -0.2840 -0.1558
 1880W        W17689   7.970  10.558   0.203  0.1967 -0.1080 -0.1050
 1881W        W17690  15.003  15.864  11.124  0.2770  0.3523 -0.0450
 1882W        W17691   9.493  14.384  14.477 -0.1195 -0.0635 -0.0875
 1883W        W17692   2.055  16.371  11.455  0.0895 -0.0398 -0.1460
 1884W        W17693   4.121   9.586   4.360  0.1966  0.0365 -0.0558
 1885W        W17694  14.947  18.717  11.514  0.2868 -0.2184 -0.1955
 1886W        W17695   2.380   4.838  11.617 -0.2302 -0.0836 -0.2163
 1887W        W17696   2.328   5.080  11.119  0.2653  0.1982  0.2053
 1888W        W17697   2.667  13.130   5.300 -0.1074 -0.1287  0.2017
 1889W        W17698  10.930   9.937   4.530  0.0553 -0.2386  0.0783
 1890W        W17699  18.483   8.178   1.606  0.0123 -0.0080 -0.0036
 1891W        W17700   5.132   7.919   5.570 -0.3594 -0.0436  0.0427
 1892W        W17701  10.792  11.961  11.637 -0.0433  0.0209  0.0463
 1893W        W17702   2.677  18.706  14.087  0.1690  0.1649 -0.3687
 1894W        W17703  16.840  16.477   4.566 -0.1029 -0.2213 -0.5100
 1895W        W17704  17.786   7.965   2.650 -0.3639 -0.0147 -0.1603
 1896W        W17705   2.550   9.828   3.277 -0.0161  0.0169 -0.2595
 1897W        W17706   7.107   6.629  12.269 -0.1147  0.2477  0.2553
 1898W        W17707   9.274   3.515  13.624 -0.2018  0.3403  0.3021
 1899W        W17708   8.274  12.296  13.656  0.0449  0.1550  0.0293
 1900W        W17709  10.200  18.837  10.297  0.3970 -0.2414  0.1316
 1901W        W17710   1.863  15.762  13.280 -0.0740  0.0607  0.0580
 1902W        W17711  17.267   0.050  12.548 -0.0142  0.2256 -0.1964
 1903W        W17712   9.875  12.885  10.901  0.0227  0.1153  0.2126
 1904W        W17713  14.855   7.855  12.537 -0.0847  0.1932 -0.0763
 1905W        W17714   2.843  10.807   3.460  0.1529 -0.2583  0.0973
 1906W        W17715   5.033   5.379   2.279  0.0445  0.1816 -0.3117
 1907W        W17716   8.296   6.845  11.409 -0.1292  0.2730  0.0511
 1908W        W17717   7.777   7.533  13.557 -0.0787  0.1450 -0.1355
 1909W        W17718  18.871   9.351   3.661 -0.3468 -0.1192  0.0051
 1910W        W17719   9.070   4.482   9.869 -0.0674 -0.2217 -0.1837
 1911W        W17720   7.135  18.907  13.621 -0.2077  0.0748 -0.0188
 1912W        W17721   6.889   2.352   0.106 -0.2167  0.0394  0.0114
 1913W        W17722  11.038   2.378   4.252 -0.0857 -0.2209  0.0222
 1914W        W17723   0.554   1.532  15.128 -0.6166  0.0201  0.3442
 1915W        W17724  16.571   6.235   0.175 -0.2701  0.2071  0.0875
 1916W        W17725  11.865  16.029   5.683 -0.0869 -0.0019 -0.2007
 1917W        W17726   3.965  12.390  11.126 -0.0386  0.0902  0.4414
 1918W        W17727   8.970  13.150   3.335 -0.2035 -0.2009  0.3915
 1919W        W17728   9.153  12.012  11.592 -0.0349 -0.6776 -0.1374
 1920W        W17729   2.909   9.159  14.712  0.0688  0.0043 -0.2881
 1921W        W17730  18.815   2.779  10.103 -0.0027  0.1762  0.1179
 1922W        W17731  15.867  17.170  12.246 -0.2421  0.1308 -0.1633
 1923W        W17732   9.015  11.321   2.467 -0.0661  0.2867  0.0004
 1924W        W17733   7.508   2.217   9.189 -0.2422 -0.3235  0.2734
 1925W        W17734   3.500   9.841  11.881 -0.2564  0.3037 -0.0492
 1926W        W17735  14.130  14.835   3.718 -0.3216  0.0928 -0.1441
 1927W        W17736   8.702   7.043  11.435 -0.3540  0.3953 -0.2750
 1928W        W17737  11.445  14.212  14.338 -0.1061 -0.0606  0.0082
 1929W        W17738  16.320  15.657  11.866 -0.2175  0.1080  0.0900
 1930W        W17739  16.083   8.400  13.741  0.0736 -0.1654  0.0196
 1931W        W17740   7.037  15.236   1.365  0.0698  0.0807  0.1066
 1932W        W17741  15.179   2.416   0.162 -0.3274 -0.0839 -0.0292
 1933W        W17742   2.770   5.799  11.297  0.1614 -0.0881  0.1262
 1934W        W17743   5.766  18.874  15.050  0.2689  0.1010  0.0696
 1935W        W17744   5.225  10.695  11.821  0.0125  0.1430 -0.4139
 1936W        W17745   8.031  15.015  11.849  0.1256 -0.0653 -0.2977
 1937W        W17746   9.086  15.025   5.217 -0.2008 -0.2954  0.0911
 1938W        W17747  11.941  14.211   2.630 -0.2610  0.0722 -0.1244
 1939W        W17748   4.073  10.470  13.176  0.1386  0.1824 -0.2535
 1940W        W17749   8.974  12.995  11.528 -0.1728  0.1475  0.0905
 1941W        W17750  15.517  10.790   4.579  0.3295  0.4257 -0.2662
 1942W        W17751   9.397  13.632   4.898  0.1987  0.0486 -0.1630
 1943W        W17752   3.315   0.512   2.580 -0.1207  0.1304 -0.1782
 1944W        W17753   1.274   3.629  15.059  0.2124 -0.2967 -0.1601
 1945W        W17754  15.645   4.764   1.113 -0.1085  0.1622  0.0113
 1946W        W17755   0.441  13.443  10.584  0.0679 -0.0267  0.1758
 1947W        W17756  17.952   9.626  13.204  0.2533  0.1207 -0.1840
 1948W        W17757   3.956   0.376   0.614 -0.3216  0.1172 -0.1167
 1949W        W17758   2.046  18.726   3.690 -0.3178  0.2548 -0.2083
 1950W        W17759   3.717   2.470  12.025  0.1690 -0.2753 -0.1470
 1951W        W17760   9.015  14.504  12.514  0.0255  0.0942 -0.0540
 1952W        W17761   0.282   7.030   3.440  0.1855  0.1490  0.2645
 1953W        W17762  10.055   9.921  10.078 -0.0347  0.1878  0.2027
 1954W        W17763   1.556  12.893   3.193 -0.1214  0.1241 -0.0414
 1955W        W17764  19.015   9.559   4.141 -0.0699 -0.2307 -0.0444
 1956W        W17765   2.043   8.415   4.041 -0.1563  0.3137  0.0166
 1957W        W17766   2.370   1.528   3.744 -0.1655 -0.3230  0.0644
 1958W        W17767  18.593   7.092  14.697  0.3207 -0.0485 -0.0757
 1959W        W17768   5.608  17.148   0.205 -0.0212 -0.4664  0.1939
 1960W        W17769  18.923   6.068  11.143 -0.0289 -0.4161 -0.2593
 1961W        W17770   3.616   0.739   0.648  0.1554  0.1069  0.0359
 1962W        W17771  13.038   5.138  14.670 -0.2692  0.2353 -0.1850
 1963W        W17772   9.287   2.690   4.116 -0.0291  0.0510  0.1573
 1964W        W17773  14.494   5.471  11.981 -0.1546  0.4024 -0.1660
 1965W        W17774  11.306  14.086   4.786  0.1181  0.0625 -0.1770
 1966W        W17775   3.320  11.360   4.445  0.1494 -0.3647 -0.2387
 1967W        W17776  11.749  13.962  11.160 -0.1597 -0.1457 -0.2255
 1968W        W17777  11.165  18.985   2.883 -0.2375  0.1569 -0.2778
 1969W        W17778   9.423   1.925  13.385 -0.0075  0.1985  0.0468
 1970W        W17779  13.989  17.298   5.290 -0.0314 -0.0330 -0.2251
 1971W        W17780  15.507  16.713   3.055  0.0513  0.0508  0.1761
 1972W        W17781   8.053   7.729  11.484 -0.0141 -0.3199 -0.2229
 1973W        W17782  11.631   5.870   2.631  0.3151  0.1100  0.4764
 1974W        W17783   2.142  14.115   2.720  0.0401  0.3333  0.3189
 1975W        W17784   1.721   1.943   4.040  0.2288 -0.0807 -0.0517
 1976W        W17785   0.321   6.790   1.063 -0.1168 -0.3135  0.1504
 1977W        W17786  12.284   4.314   2.556  0.1357  0.0487  0.1740
 1978W        W17787  16.140   1.278  11.292 -0.1245  0.1278  0.1255
 1979W        W17788  11.955  19.058  14.220 -0.2806 -0.0274 -0.2426
 1980W        W17789  12.110  18.235   0.151 -0.1983  0.1505  0.3725
 1981W        W17790  13.025  13.979  12.632  0.1178  0.2227  0.2867
 1982W        W17791   0.621  14.633  13.585  0.1167  0.0801  0.0178
 1983W        W17792  14.806  16.458   2.846 -0.0497  0.3629  0.2181
 1984W        W17793   9.873  16.371  10.861  0.0924  0.0441 -0.0379
 1985W        W17794  18.200  10.753  11.533 -0.2470  0.0389 -0.2744
 1986W        W17795   3.636  10.076   3.395 -0.3598 -0.1505 -0.0166
 1987W        W17796  13.984   1.344  12.751  0.1644 -0.4464  0.1348
 1988W        W17797  17.844   1.372  11.481 -0.0773 -0.0827  0.0981
 1989W        W17798  10.390   0.018  11.459  0.0905  0.1339  0.1365
 1990W        W17799   7.926  16.416   4.111  0.0931 -0.1864  0.4019
 1991W        W17800   8.195  14.136  13.580 -0.0200  0.0424 -0.0252
 1992W        W17801  12.961   9.521  13.397  0.0458  0.1786  0.0218
 1993W        W17802   2.054   0.069   1.282  0.1106  0.0769 -0.1650
 1994W        W17803   9.928  13.117   2.564 -0.0221 -0.0127  0.1915
 1995W        W17804  14.399   2.059  13.490 -0.2685 -0.3924  0.0643
 1996W        W17805  16.574  12.236   1.854  0.0325 -0.1567 -0.0486
 1997W        W17806   4.520  16.450  12.640  0.3379  0.0260 -0.1104
 1998W        W17807   2.846  16.467   2.336 -0.0029 -0.2028  0.1554
 1999W        W17808   2.176   4.354   4.781  0.0533 -0.0603 -0.0527
 2000W        W17809   6.179   4.098   4.554 -0.1387 -0.2691  0.1138
 2001W        W17810  10.748   5.490   3.466 -0.2687  0.1624  0.0357
 2002W        W17811  12.224   9.684  11.498 -0.0944  0.2432 -0.0542
 2003W        W17812   2.315   5.476  12.925  0.3706  0.2778 -0.1323
 2004W        W17813  15.907   1.377  14.946  0.0414 -0.2959  0.1826
 2005W        W17814   2.030  10.383   0.716  0.3142 -0.2218 -0.1231
 2006W        W17815   7.563   3.033   1.635 -0.1392 -0.1004 -0.3030
 2007W        W17816  12.346  16.207  11.740  0.2978 -0.2725 -0.0421
 2008W        W17817  12.481   9.491  12.218 -0.1077 -0.0226 -0.2919
 2009W        W17818  12.338  17.253  12.141 -0.2476 -0.0046 -0.4246
 2010W        W17819   0.701   8.554   3.721 -0.2376 -0.1061  0.0606
 2011W        W17820   7.156   4.707  13.190 -0.3764 -0.2255 -0.3459
 2012W        W17821  15.507  18.667   1.328 -0.3602 -0.0434 -0.3244
 2013W        W17822  10.976   5.544   4.367  0.1269 -0.1420  0.1017
 2014W        W17823   0.098   0.717  10.257 -0.0250  0.0638 -0.1679
 2015W        W17824  16.746   5.047   4.544  0.1871 -0.1317 -0.1877
 2016W        W17825  13.019  17.892  11.662 -0.0156 -0.2229  0.0300
 2017W        W17826  18.538  10.640   5.278 -0.0998  0.0709 -0.1651
 2018W        W17827   6.575  18.372   1.619  0.2952 -0.0984  0.1794
 2019W        W17828   3.367   1.593  12.550  0.1319 -0.3685 -0.4781
 2020W        W17829  10.861   8.014  13.600  0.0344 -0.2280  0.0255
 2021W        W17830   9.517  12.672  12.105 -0.0950  0.0003  0.1223
 2022W        W17831   0.387   4.015  11.355 -0.1419  0.0804 -0.0176
 2023W        W17832  16.932   7.840   1.252 -0.1601 -0.0967 -0.2008
 2024W        W17833  12.003   2.379   0.069  0.1186 -0.1462  0.2636
 2025W        W17834   6.167   0.507   4.644 -0.1095  0.2204 -0.1262
 2026W        W17835  12.583  14.955   2.209  0.0210 -0.0242 -0.3263
 2027W        W17836  13.179  11.656   3.183  0.0026  0.0069  0.0714
 2028W        W17837  17.357   1.630  11.246  0.0433  0.2011  0.1421
 2029W        W17838   3.082  10.377  14.509  0.0507 -0.4269 -0.1378
 2030W        W17839   2.065  13.162   4.007 -0.0649 -0.1103 -0.0546
 2031W        W17840   3.766  11.433   2.381  0.0940  0.0316 -0.0180
 2032W        W17841   8.631  15.414  10.860  0.0749 -0.0732 -0.1631
 2033W        W17842  10.529  16.070  13.524 -0.2964 -0.2083 -0.0908
 2034W        W17843  10.947   0.238   0.630  0.1321  0.0406  0.5485
 2035W        W17844  15.259   2.233   2.164  0.0106  0.1022  0.2955
 2036W        W17845  17.932  16.492  11.654  0.2119  0.0651 -0.0232
 2037W        W17846  18.113   0.041   0.198  0.0240  0.0907 -0.2061
 2038W        W17847  13.336  15.874   2.558  0.4691  0.1964 -0.3841
 2039W        W17848   4.536  13.029  10.765 -0.1826  0.1836 -0.1972
 2040W        W17849  13.286  10.824  11.227 -0.0024  0.3344 -0.3969
 2041W        W17850   0.970   6.274  13.978 -0.1694  0.1608  0.0583
 2042W        W17851   7.659   9.671   3.250  0.0487 -0.1624 -0.1744
 2043W        W17852   6.942   3.058   3.459 -0.1275 -0.2053  0.1200
 2044W        W17853   2.701   1.105  12.590  0.1980 -0.0637  0.0897
 2045W        W17854   2.744  14.098  10.591  0.0004  0.0658  0.2872
 2046W        W17855   2.730   0.368   1.821 -0.2043  0.1162  0.1289
 2047W        W17856   0.938   0.858  14.555  0.0765 -0.0358 -0.3460
 2048W        W17857   0.705   7.417  10.515 -0.1199  0.2310  0.1343
 2049W        W17858  18.923   8.313   1.285 -0.1149  0.0500 -0.2574
 2050W        W17859   5.096   8.973  12.939 -0.0843  0.1094  0.2197
 2051W        W17860  14.522   1.787  11.678 -0.1611  0.1342 -0.3289
 2052W        W17861  13.488   9.617   1.905  0.0994  0.2182  0.0576
 2053W        W17862   3.290  12.707   4.642 -0.1008 -0.1733  0.0128
 2054W        W17863  17.360   6.672   1.352 -0.0310 -0.2226  0.1866
 2055W        W17864   0.165  14.966   3.086 -0.0072 -0.2681 -0.0051
 2056W        W17865   0.839  14.632  10.923  0.1949  0.0960 -0.1253
 2057W        W17866  14.712  13.300  10.512  0.0873 -0.2887 -0.2123
 2058W        W17867  11.126  10.876  13.803  0.2089 -0.0798 -0.2084
 2059W        W17868   1.507   1.491  10.697  0.2620 -0.0387  0.0183
 2060W        W17869   9.325  12.033   1.505 -0.0446 -0.2201 -0.0821
 2061W        W17870  16.737   9.913  12.896  0.1432 -0.2826 -0.0371
 2062W        W17871  11.095  17.984   9.888 -0.0816  0.1819  0.4670
 2063W        W17872  13.633   0.975  12.199 -0.1218 -0.0802  0.4445
 2064W        W17873  17.232  13.222  13.160 -0.1142 -0.4408  0.0931
 2065W        W17874   1.693   0.071   2.607  0.0553  0.4553 -0.0315
 2066W        W17875   9.431   4.627  14.917 -0.1478  0.2378  0.0667
 2067W        W17876  12.210   1.763   3.153 -0.1321  0.2474  0.0616
 2068W        W17877  15.815   8.038  12.339  0.0046  0.0794 -0.1219
 2069W        W17878  15.428   7.148   4.544  0.1531 -0.2495  0.1365
 2070W        W17879   1.218   6.062   2.624 -0.0423  0.3474  0.0971
 2071W        W17880  11.833   9.979  14.671  0.2082 -0.0880 -0.0515
 2072W        W17881  14.564   0.075  10.480  0.0140  0.1568  0.1307
 2073W        W17882   1.151   1.006   1.042 -0.1326 -0.0600 -0.4486
 2074W        W17883  12.133  12.108   4.312  0.1293 -0.0692 -0.4795
 2075W        W17884  13.898  15.509  11.896 -0.2334  0.1371 -0.2271
 2076W        W17885   7.528  11.794  14.135  0.1229 -0.1314  0.1237
 2077W        W17886   0.850  10.995   3.622 -0.1070  0.2050  0.0806
 2078W        W17887   0.738   3.768  12.863 -0.2104 -0.1156  0.0214
 2079W        W17888  17.240   2.574  14.161 -0.1173  0.0847  0.2835
 2080W        W17889  17.869   7.323  15.155  0.2743  0.0246 -0.1523
 2081W        W17890   4.091  12.384  13.998  0.1493  0.0960  0.0557
 2082W        W17891   0.166  12.066   4.835 -0.1348  0.0313  0.1627
 2083W        W17892   5.992   9.320   0.093 -0.0601  0.1671  0.0217
 2084W        W17893  14.147  15.364   2.175 -0.0743 -0.1631  0.0087
 2085W        W17894   5.555   4.367  15.072  0.0143 -0.2894 -0.0176
 2086W        W17895  10.798  10.940   1.078  0.2685 -0.1584 -0.0665
 2087W        W17896  15.496   5.751   3.496  0.0909 -0.1756  0.0559
 2088W        W17897   4.743  11.683   5.321  0.1300 -0.0749 -0.2048
 2089W        W17898   2.647   1.675  12.647  0.0293  0.0067  0.1612
 2090W        W17899  14.861  10.013   0.202  0.0887 -0.2888 -0.2935
 2091W        W17900   3.749   8.448  11.536  0.1689 -0.0639 -0.2239
 2092W        W17901   0.441  18.330  13.780  0.2890  0.4836  0.0135
 2093W        W17902   3.740   9.067  15.202  0.3093  0.1968 -0.0890
 2094W        W17903   9.668  10.535  13.923  0.1254 -0.1274  0.3067
 2095W        W17904   7.501  12.514   1.713 -0.1232  0.1395  0.1735
 2096W        W17905   3.573   8.988  13.571  0.3834 -0.1223 -0.6620
 2097W        W17906  12.136   4.500   9.374  0.0028  0.1616 -0.2874
 2098W        W17907   8.267   5.478  12.851 -0.0101  0.1211 -0.1833
 2099W        W17908  17.419   3.659   5.065  0.0050 -0.1023 -0.0672
 2100W        W17909  10.255  12.109  14.783 -0.2118  0.0470 -0.1564
 2101W        W17910   8.074  12.627   2.556  0.0772 -0.1832  0.0585
 2102W        W17911   2.602   1.745  11.075 -0.1895 -0.4123  0.2902
 2103W        W17912   7.187  11.550   1.629  0.1247 -0.1126  0.1730
 2104W        W17913   6.752   5.089   5.369 -0.0829  0.0330 -0.2185
 2105W        W17914  15.987  16.380  13.275 -0.0375 -0.0115 -0.0234
 2106W        W17915  15.834  14.571   2.847  0.4010  0.1398  0.0575
 2107W        W17916  16.837   9.777   3.623  0.0548  0.0162  0.1751
 2108W        W17917   0.823   7.700   3.781 -0.2694  0.3596 -0.1536
 2109W        W17918   5.207   4.283  11.608  0.1923 -0.0102  0.2542
 2110W        W17919   4.190  12.283  14.705 -0.0830  0.1983  0.1784
 2111W        W17920   5.573  15.399  14.876 -0.4514  0.1146 -0.1495
 2112W        W17921   4.955  18.217   4.005  0.2390 -0.2992 -0.0595
 2113W        W17922  13.917   4.525  10.048  0.0261 -0.1259  0.2220
 2114W        W17923   2.966   3.367   3.008  0.0637 -0.2849 -0.0692
 2115W        W17924   1.522  11.803   4.693 -0.2228  0.0856 -0.0088
 2116W        W17925  13.121   1.291   2.529 -0.0306 -0.1532 -0.0477
 2117W        W17926  17.243  14.061  12.693  0.2087 -0.1453  0.0206
 2118W        W17927   8.103  17.522   1.889  0.0710  0.2343 -0.1464
 2119W        W17928  14.476  16.138  13.843  0.4155 -0.3136 -0.0502
 2120W        W17929  14.995  12.626  12.689  0.3190  0.0895  0.2260
 2121W        W17930  16.889   9.965   9.832  0.1550  0.5855  0.0800
 2122W        W17931   3.446  13.975   2.481  0.1678 -0.1325  0.3395
 2123W        W17932   6.451  12.708   1.793  0.0232  0.0816  0.0177
 2124W        W17933  11.227  18.132   3.542 -0.2569  0.1599 -0.0634
 2125W        W17934  11.288   2.149  11.165  0.1430  0.1712  0.0344
 2126W        W17935   4.672   3.400  12.962 -0.0010  0.2135 -0.0397
 2127W        W17936   0.007   9.744  12.562  0.0216  0.0699  0.1376
 2128W        W17937   0.410   9.057  10.719  0.3598  0.0760  0.0755
 2129W        W17938   7.998   8.504  14.434  0.1126 -0.1419  0.0696
 2130W        W17939  13.336  19.134   4.221 -0.0809  0.0625  0.1125
 2131W        W17940   6.627   7.661   0.978 -0.1415 -0.2257  0.5823
 2132W        W17941  17.359   3.300   3.802  0.3089 -0.0056 -0.3660
 2133W        W17942   9.852   5.015   1.355  0.0176 -0.0063 -0.1685
 2134W        W17943  10.520  16.992   2.668 -0.1612 -0.2304 -0.0577
 2135W        W17944  10.455  11.484   0.968 -0.1412  0.1013 -0.3086
 2136W        W17945  13.813   7.381   1.055 -0.4104  0.1078 -0.0042
 2137W        W17946  10.078   1.624   3.384  0.0967 -0.3425  0.1618
 2138W        W17947   3.236  11.456   2.277 -0.0966  0.0669 -0.0109
 2139W        W17948   0.480   3.530   3.799  0.1737  0.0180  0.1230
 2140W        W17949   5.204  12.110  14.286  0.1292  0.1611  0.3921
 2141W        W17950   8.128   3.861  13.635 -0.0438  0.3950  0.3479
 2142W        W17951  17.470   4.066   2.074  0.1708  0.0233 -0.1287
 2143W        W17952  16.564   0.384   3.767  0.0791  0.1780 -0.0724
 2144W        W17953   9.498   9.838   0.714 -0.1559  0.0162 -0.0387
 2145W        W17954  17.132  14.523   3.430  0.1042  0.1072 -0.1089
 2146W        W17955  15.349  14.699   5.275 -0.0856 -0.0454  0.0386
 2147W        W17956   0.783   5.184  11.023 -0.0046  0.0624 -0.4193
 2148W        W17957  13.891  13.348  12.364  0.1826  0.0010 -0.2133
 2149W        W17958  16.791  10.268  13.235 -0.1893 -0.2736 -0.0965
 2150W        W17959  15.840  14.093   1.602  0.0641 -0.0307  0.0493
 2151W        W17960   9.102   0.599   1.432 -0.1443 -0.0695  0.3453
 2152W        W17961  11.693   1.659   1.696 -0.1475  0.5032 -0.0442
 2153W        W17962  12.147   7.144   3.627  0.0810  0.1280  0.0500
 2154W        W17963  15.986  11.649   9.668  0.1958  0.3785 -0.0369
 2155W        W17964   4.740   3.349   5.421  0.3186 -0.2278  0.1305
 2156W        W17965   5.025  13.237  10.903 -0.0219 -0.0065 -0.1439
 2157W        W17966   6.042  11.952   3.792  0.0455 -0.2041  0.2887
 2158W        W17967  12.477  11.894   1.808  0.3011  0.0278  0.1872
 2159W        W17968   2.568  17.039   0.343  0.1740  0.0647 -0.0055
 2160W        W17969  12.414  10.520  13.707  0.1342  0.1970 -0.0245
 2161W        W17970   9.791   1.375  14.619  0.1556 -0.1317  0.1669
 2162W        W17971   7.410   5.607  10.546  0.4673 -0.1429  0.1070
 2163W        W17972  15.724   9.109  14.391  0.1121  0.2764  0.0362
 2164W        W17973  10.933  11.533  13.185  0.2045 -0.0792  0.2104
 2165W        W17974  18.919   3.116   1.678  0.0482  0.0714 -0.2442
 2166W        W17975   0.398  16.596  12.458 -0.0754  0.1200  0.1930
 2167W        W17976   3.630   3.812  12.813  0.0970  0.0689 -0.0740
 2168W        W17977  16.533   3.209  11.824 -0.0132 -0.0051  0.3363
 2169W        W17978  11.512   1.049   2.878 -0.2454 -0.0674 -0.1819
 2170W        W17979  19.133   5.703   1.858 -0.1737  0.5247  0.0261
 2171W        W17980  16.169   6.080  13.597 -0.2240 -0.1271 -0.0407
 2172W        W17981  11.661  18.674   2.155  0.3287  0.4288  0.0997
 2173W        W17982  13.947  12.473   2.377 -0.0611  0.0999  0.0057
 2174W        W17983   8.829   9.928  13.649 -0.0489  0.2519 -0.3345
 2175W        W17984   8.034   9.287   1.136  0.3354 -0.0925 -0.0486
 2176W        W17985   7.472   2.657   1.282  0.0100 -0.0728 -0.0071
 2177W        W17986  15.700   3.329  10.870  0.0328  0.0536  0.2036
 2178W        W17987   0.717  13.603  12.340  0.1111 -0.1226  0.0199
 2179W        W17988  17.651  11.203  14.996  0.1850 -0.2292 -0.1870
 2180W        W17989  18.040   4.593   4.567  0.0908  0.1681 -0.3362
 2181W        W17990   0.897   5.668  11.009 -0.1573 -0.1629  0.0635
 2182W        W17991   1.718  15.430   1.780 -0.2374 -0.1625 -0.1345
 2183W        W17992   5.981  16.844  10.437  0.1398  0.2247 -0.0895
 2184W        W17993  10.837  10.554  12.202  0.1157 -0.0872  0.0116
 2185W        W17994  11.388  10.092  14.804 -0.3898  0.2228  0.1443
 2186W        W17995   4.951   5.342  14.623 -0.1091 -0.0354  0.1437
 2187W        W17996   8.351  15.295  10.138  0.1426 -0.1550 -0.1530
 2188W        W17997   6.582  16.856  13.479 -0.2352 -0.1406 -0.1728
 2189W        W17998  11.579  10.235   0.101 -0.0151  0.2555  0.0492
 2190W        W17999  14.124  16.121   3.353 -0.2986  0.1851  0.0031
 2191W        W18000  19.069  15.699  15.166 -0.2740  0.1695 -0.1777
 2192W        W18001  12.880   7.091   4.563  0.1484 -0.1732  0.0299
 2193W        W18002  18.650  10.753  11.232 -0.0037 -0.0370  0.3085
 2194W        W18003   5.917  10.039   3.467  0.0170 -0.1987 -0.0723
 2195W        W18004  16.057  10.389  12.098  0.2643  0.0314 -0.1020
 2196W        W18005  12.156   3.122  12.100  0.1390 -0.0157 -0.1761
 2197W        W18006   2.172  15.251   2.603 -0.1663  0.2360 -0.0577
 2198W        W18007  14.558  16.164  12.574 -0.0300  0.0125 -0.1192
 2199W        W18008   5.857   1.456   0.117  0.3381  0.1669  0.0138
 2200W        W18009   4.380   2.399  13.229 -0.5650  0.0988 -0.0317
 2201W        W18010   3.260   0.134   3.059 -0.0885  0.0377 -0.3656
 2202W        W18011   2.174   2.159   3.878 -0.1290  0.0666  0.2206
 2203W        W18012  18.938  17.397  11.876 -0.0357 -0.3223 -0.0742
 2204W        W18013  10.356  14.774   1.493 -0.0904  0.4548  0.0495
 2205W        W18014   9.672  12.575  13.674  0.2109 -0.3910  0.1306
 2206W        W18015   0.344  13.891   5.373 -0.2728 -0.1710  0.1435
 2207W        W18016  11.945   9.715  12.475  0.5547  0.0639  0.1326
 2208W        W18017  11.160  16.293   3.954 -0.2362 -0.1163 -0.0368
 2209W        W18018  15.448  16.875   5.051 -0.0243 -0.0938 -0.3029
 2210W        W18019  10.435  17.747  14.438  0.2034 -0.0853 -0.0895
 2211W        W18020   7.850  14.723   4.978 -0.0076 -0.1809 -0.0181
 2212W        W18021  11.508  10.430   4.100 -0.2552  0.1284 -0.3495
 2213W        W18022  14.023   1.311  12.262  0.0495 -0.2615 -0.1488
 2214W        W18023  13.906  10.618   0.752  0.2300 -0.2337  0.1868
 2215W        W18024   4.835   2.910  11.977  0.3504 -0.0643  0.2288
 2216W        W18025  17.993  16.539   0.004 -0.0394 -0.0787  0.0495
 2217W        W18026   1.398  16.636  11.798 -0.0508  0.1925  0.2893
 2218W        W18027  14.789  13.291   1.507  0.0289  0.0232  0.0394
 2219W        W18028  15.846   0.940   5.873  0.1437  0.4300 -0.0625
 2220W        W18029  17.683   6.894  11.753 -0.1709 -0.1483 -0.2055
 2221W        W18030   4.077  17.835   3.004 -0.3497 -0.2517 -0.0494
 2222W        W18031   1.794  17.089  13.441  0.2379  0.0112 -0.1866
 2223W        W18032  14.097   4.064  13.984  0.3610 -0.3211  0.2622
 2224W        W18033   8.330  18.438  10.948  0.1877 -0.0940 -0.0246
 2225W        W18034  14.811  16.824   9.743 -0.1317  0.1066 -0.0869
 2226W        W18035   3.480   3.865   0.114 -0.1220  0.0370 -0.0947
 2227W        W18036   8.221   6.142   0.310  0.1045 -0.1930  0.2842
 2228W        W18037  14.760  14.690   2.018  0.3025 -0.1043 -0.2098
 2229W        W18038  13.579  18.655   2.785  0.1018  0.0407 -0.0355
 2230W        W18039  13.690  14.074  10.150 -0.1022 -0.2093 -0.0044
 2231W        W18040  13.398   0.072   4.911  0.2528 -0.0573 -0.0825
 2232W        W18041  18.883   9.319   2.316  0.2049 -0.0540 -0.1064
 2233W        W18042  14.026  18.138  10.499  0.0302  0.1497  0.3301
 2234W        W18043  18.763   1.521  13.911 -0.4152 -0.1587 -0.0890
 2235W        W18044   8.641  18.139  15.014  0.2637 -0.1016  0.2388
 2236W        W18045   1.994   6.122   1.969  0.1871 -0.1505 -0.3841
 2237W        W18046  16.087   6.042  12.075  0.0614 -0.2436  0.1249
 2238W        W18047   1.363   6.864  14.621 -0.1586 -0.1431  0.1126
 2239W        W18048   3.361   5.156  13.068  0.0728  0.1725  0.2527
 2240W        W18049  14.796  16.526  14.663  0.1199  0.3633  0.1754
 2241W        W18050   2.243  17.050  11.979  0.1568 -0.3468 -0.0703
 2242W        W18051  10.542   3.653  11.765  0.1421 -0.2390  0.3151
 2243W        W18052  14.598   4.361  12.727 -0.1351 -0.0690  0.1683
 2244W        W18053  18.210   3.815   3.408  0.1515  0.0269 -0.1085
 2245W        W18054  14.292  11.863  10.600 -0.0637 -0.0770 -0.1620
 2246W        W18055   3.196   8.348  10.160 -0.3710  0.1465 -0.2398
 2247W        W18056   2.050  12.727   1.069  0.2069  0.1579  0.1402
 2248W        W18057   6.667  12.430  10.274  0.0759 -0.1694  0.1057
 2249W        W18058  13.585  13.642   5.030  0.2513  0.0584  0.1762
 2250W        W18059  18.236  13.057   2.126 -0.0848  0.0754  0.0689
 2251W        W18060   7.408  13.197  14.070 -0.2566  0.2288  0.0795
 2252W        W18061  14.022  18.878   5.012 -0.1728 -0.1539 -0.1110
 2253W        W18062   8.797  11.194  14.205  0.1471  0.2201  0.2467
 2254W        W18063   6.395   7.201   1.800  0.0387  0.1690 -0.0762
 2255W        W18064  11.293   2.561   3.907 -0.2484  0.2333  0.3860
 2256W        W18065  10.872  14.982   4.681  0.0720  0.0338  0.1129
 2257W        W18066   1.271   3.978  10.661  0.3304 -0.1409  0.0269
 2258W        W18067   5.981  12.918   3.544 -0.1456  0.1121  0.1831
 2259W        W18068   6.810   6.251   1.246  0.1775 -0.0848  0.1655
 2260W        W18069  10.257  11.737  15.190 -0.1447 -0.1563  0.1841
 2261W        W18070  13.935   2.292  10.972  0.1834  0.0291  0.2010
 2262W        W18071  18.199   0.987   0.440  0.4424 -0.1234  0.0933
 2263W        W18072  17.230   5.828   1.443 -0.0566  0.0287 -0.0485
 2264W        W18073   7.814  11.250   4.698  0.0838  0.0011  0.2904
 2265W        W18074  15.018   4.267  10.132  0.2094  0.1484  0.0136
 2266W        W18075   6.481  10.301   0.307 -0.0687  0.0398 -0.1291
 2267W        W18076   3.465  13.099   0.191  0.2981  0.1931  0.1288
 2268W        W18077  10.657  16.363  14.529  0.0258 -0.0954  0.0595
 2269W        W18078  14.176   6.666   5.208 -0.1532  0.2642 -0.0194
 2270W        W18079  15.499  13.700  11.338 -0.2751 -0.4109 -0.0349
 2271W        W18080  15.957   1.528  12.827 -0.2030 -0.0338 -0.1147
 2272W        W18081   9.861   9.971   5.556 -0.1266 -0.1440  0.5250
 2273W        W18082   4.055   0.005  12.526 -0.0292 -0.2714  0.0370
 2274W        W18083   5.992   4.640   1.121 -0.1651  0.3060 -0.2586
 2275W        W18084   1.937  14.704   4.230  0.1811 -0.2168 -0.1305
 2276W        W18085  17.203  16.491  14.835 -0.0046  0.1419  0.0825
 2277W        W18086  13.017   5.041   4.240  0.0222 -0.0610 -0.0579
 2278W        W18087   9.228  11.904  11.064  0.3785  0.1088  0.1671
 2279W        W18088   9.332   4.669   0.208  0.4250  0.1829 -0.2771
 2280W        W18089  15.034   6.227  11.229  0.1239 -0.0563 -0.0032
 2281W        W18090   4.306  12.751   0.706  0.0930 -0.0281 -0.0723
 2282W        W18091  11.719   3.075  10.676 -0.1239  0.2875 -0.2664
 2283W        W18092   4.206   1.208  10.871 -0.0551  0.0154 -0.2750
 2284W        W18093  18.953   8.265  13.107 -0.0977  0.0664  0.0812
 2285W        W18094   2.861  16.566   9.855  0.3381 -0.0072 -0.2602
 2286W        W18095   5.164  14.233  13.464  0.1819 -0.0990  0.1348
 2287W        W18096   2.780  11.564  13.857 -0.2979 -0.1207  0.2851
 2288W        W18097   5.143  15.781   3.716  0.0804  0.1500 -0.2051
 2289W        W18098   2.067   2.271  10.298  0.2770 -0.3056  0.3142
 2290W        W18099   8.993   3.072  13.738  0.0888  0.0144  0.0367
 2291W        W18100   1.044  13.574  12.802 -0.1521  0.0767 -0.2634
 2292W        W18101   2.738  13.510   0.455 -0.2027  0.2929 -0.2903
 2293W        W18102   1.237  17.587   4.072 -0.1337  0.1078  0.3681
 2294W        W18103   3.353  13.583  10.643  0.0554  0.2538  0.1587
 2295W        W18104  18.790   3.709  14.164 -0.0346  0.3615  0.1109
 2296W        W18105   7.849   7.243  12.725 -0.0237  0.1422 -0.2803
 2297W        W18106   0.074   4.526   0.794  0.1290 -0.1532  0.0871
 2298W        W18107   8.794   1.517  11.543 -0.0665 -0.1703 -0.0206
 2299W        W18108  16.856  16.433   3.105 -0.0218 -0.1273  0.0786
 2300W        W18109   2.636   2.183  10.352  0.0333 -0.2034  0.1597
 2301W        W18110   4.895   7.459   5.626  0.2113  0.3565  0.0701
 2302W        W18111   6.086   4.196   4.087 -0.0345  0.0281 -0.0255
 2303W        W18112  15.534  12.631  13.601  0.1346 -0.1539  0.0221
 2304W        W18113   2.797   2.011   2.609  0.0298 -0.2087  0.1997
 2305W        W18114   2.894   0.723   4.379 -0.3255 -0.0157 -0.1113
 2306W        W18115   0.486  16.787  15.010 -0.1522 -0.4305  0.1362
 2307W        W18116  17.176  15.406  10.571 -0.0843 -0.2543  0.0460
 2308W        W18117  19.061  13.417  13.272 -0.5079 -0.0980 -0.4702
 2309W        W18118   0.460  10.392  13.558 -0.0369  0.2754 -0.0694
 2310W        W18119   2.098   6.914  12.297  0.0494 -0.0350 -0.1059
 2311W        W18120   4.539  18.230   3.659  0.1383 -0.2458  0.0512
 2312W        W18121   8.271  14.619   1.837  0.0602 -0.0065 -0.0583
 2313W        W18122  18.581  13.147  12.395  0.2507  0.1071  0.1274
 2314W        W18123   5.126   3.960  11.197  0.2822  0.1563  0.2557
 2315W        W18124  13.924   0.992   3.521  0.0364 -0.0692 -0.1260
 2316W        W18125  10.549  17.268  14.600  0.0897 -0.3128  0.0236
 2317W        W18126   1.003   7.033  12.436 -0.2466 -0.0943  0.0614
 2318W        W18127  17.982   4.928  11.261  0.4751  0.2597  0.6184
 2319W        W18128   2.088  13.678   2.517 -0.0207  0.1499 -0.2089
 2320W        W18129   6.545   7.320  12.011 -0.0284 -0.1962 -0.0284
 2321W        W18130   8.077  18.727   0.595  0.1361  0.1243 -0.1004
 2322W        W18131   9.189  18.109   1.875  0.0051  0.0659  0.0699
 2323W        W18132  15.098  11.360  10.866  0.0593  0.2156 -0.0013
 2324W        W18133   5.444   7.380   3.010  0.0548 -0.2209 -0.1892
 2325W        W18134   0.019   5.422   5.297  0.2002 -0.1293 -0.1503
 2326W        W18135  16.826  13.665   4.106  0.2414 -0.0008 -0.1681
 2327W        W18136  17.089  12.771   2.716  0.1394 -0.1308 -0.3710
 2328W        W18137  12.945  18.725  15.033  0.0402  0.1100  0.0780
 2329W        W18138   1.108  17.081  11.894  0.0281 -0.0146  0.1352
 2330W        W18139   2.994  13.201  11.367 -0.0903  0.2209 -0.0966
 2331W        W18140   0.873   1.684   4.155 -0.1032  0.2417 -0.0052
 2332W        W18141  12.219   5.386  13.797  0.0850 -0.4205  0.3344
 2333W        W18142   5.798   3.842   4.942  0.0717  0.1897 -0.2149
 2334W        W18143  13.214   6.229   3.579  0.2219 -0.1673  0.1577
 2335W        W18144   0.703  16.808   3.804  0.3612  0.1510  0.0015
 2336W        W18145  16.397  15.093  15.096  0.1520  0.1216 -0.1181
 2337W        W18146   0.418  17.803   2.567 -0.1619  0.0682 -0.1710
 2338W        W18147   4.476   2.706   1.944 -0.1172  0.2171 -0.2558
 2339W        W18148  12.585   3.199  14.785 -0.0672 -0.2248 -0.3166
 2340W        W18149   9.651  13.306  14.865 -0.0634  0.0964  0.1369
 2341W        W18150  15.601  11.249   5.111  0.0321  0.1445 -0.0778
 2342W        W18151   2.530   9.834   1.710  0.1423 -0.0146  0.1831
 2343W        W18152   2.441  12.150  14.429 -0.3129  0.1693 -0.0127
 2344W        W18153   9.597  14.897   3.395 -0.0161 -0.1096  0.1498
 2345W        W18154  12.758   9.987   1.197 -0.0761 -0.3053  0.0035
 2346W        W18155  13.619   1.819   3.410  0.0763  0.0608  0.0849
 2347W        W18156  16.675  15.407  13.028 -0.2056  0.2372 -0.0114
 2348W        W18157   7.701  16.408   0.825 -0.1343  0.0384  0.0280
 2349W        W18158  18.216  18.086   5.217  0.0302 -0.0954 -0.0468
 2350W        W18159   8.641   7.068   3.618 -0.0475 -0.2050 -0.2014
 2351W        W18160  14.165   0.669  11.955  0.0908  0.1756  0.3190
 2352W        W18161  13.945   3.599  13.103  0.2324  0.2719 -0.2088
 2353W        W18162  10.258  18.995  14.011 -0.2876  0.0172  0.4282
 2354W        W18163  12.743  11.509   1.680  0.0040  0.3061  0.0089
 2355W        W18164  12.551   2.109  10.744  0.2662 -0.3755 -0.0961
 2356W        W18165  10.405  14.434  14.970  0.1216 -0.0124  0.1159
 2357W        W18166  18.328   8.175  11.166 -0.3490  0.2553 -0.1291
 2358W        W18167  12.020   9.048   0.427  0.1860  0.2135  0.1262
 2359W        W18168  18.675   4.545   2.980 -0.0261  0.0889  0.0989
 2360W        W18169  16.092   3.939  12.860 -0.2124  0.0973 -0.2103
 2361W        W18170  13.778   6.995   1.421 -0.1569  0.2948 -0.0118
 2362W        W18171   6.208  13.054   0.684 -0.2505  0.3386  0.1105
 2363W        W18172  10.950   8.276  11.174  0.1716  0.1661  0.1469
 2364W        W18173  16.207  14.454   2.465 -0.1381 -0.0605 -0.1788
 2365W        W18174  15.168   7.840  11.669 -0.1979  0.0780 -0.1116
 2366W        W18175  17.571  16.945  10.315 -0.3244 -0.1482  0.2236
 2367W        W18176   9.198   3.561   4.671 -0.0999  0.3029  0.0437
 2368W        W18177  13.011   2.728   1.615  0.1214  0.3997 -0.2094
 2369W        W18178  16.131  17.490   4.453  0.3654  0.3093 -0.0971
 2370W        W18179   2.462  13.741  12.706  0.4292  0.1885 -0.0435
 2371W        W18180   6.331  12.640   5.225 -0.1147 -0.0311  0.1138
 2372W        W18181   9.767  14.666   3.914 -0.2595 -0.1429  0.1563
 2373W        W18182   5.127  17.175  15.214 -0.0592 -0.1002 -0.1319
 2374W        W18183  17.995   8.379   1.496 -0.4944 -0.0948  0.5076
 2375W        W18184   4.936  18.458   1.440  0.3644  0.0834  0.1714
 2376W        W18185  16.097  11.718  13.594  0.0188 -0.1699 -0.0011
 2377W        W18186  16.191  12.585   0.494  0.0979  0.1105 -0.2015
 2378W        W18187   6.983  15.544   3.790  0.0224  0.3322  0.1001
 2379W        W18188   0.433  12.465   0.138 -0.0724  0.0035 -0.0626
 2380W        W18189   3.569   0.920   3.322  0.0469  0.0076  0.7430
 2381W        W18190  16.204  11.807   0.515 -0.1117  0.0855 -0.1038
 2382W        W18191   8.741  16.365   2.654 -0.0303  0.3525 -0.3972
 2383W        W18192  16.881  10.075   5.473  0.1104 -0.1422  0.2355
 2384W        W18193   2.173  12.068  13.100  0.0166 -0.1141  0.1368
 2385W        W18194   0.201  12.672   3.334 -0.0622 -0.0001  0.1251
 2386W        W18195  11.857  16.531  12.464  0.1206  0.0947 -0.0281
 2387W        W18196   0.697   9.204   2.475 -0.1216  0.1720  0.1528
 2388W        W18197   6.002   8.109   1.859 -0.1905  0.0785  0.0467
 2389W        W18198   8.313  19.060  14.810 -0.2127  0.2137  0.0243
 2390W        W18199  14.387  15.992   9.965  0.1743 -0.0964  0.1076
 2391W        W18200   2.047  15.693  11.476  0.0229 -0.2765 -0.6940
 2392W        W18201   0.205  17.221   5.225 -0.0222 -0.1068 -0.1339
 2393W        W18202   1.554   1.448   4.348 -0.0891 -0.0837  0.0047
 2394W        W18203  16.524  14.530   4.849 -0.2447 -0.2129 -0.1610
 2395W        W18204  13.240   9.962  11.533  0.0883  0.1393 -0.2377
 2396W        W18205   2.203  15.006  14.024  0.1477 -0.0544  0.1576
 2397W        W18206   2.719   9.301   0.742 -0.1347  0.0844  0.4513
 2398W        W18207  18.228  11.527   2.345  0.4048  0.4122  0.0891
 2399W        W18208  12.708  14.998  12.876 -0.0422  0.2126 -0.0816
 2400W        W18209  18.579  15.478  12.730 -0.1654  0.0359 -0.3482
 2401W        W18210   5.113  11.542   4.664  0.0923  0.0355 -0.1351
 2402W        W18211   2.622  14.684  14.525  0.1950  0.0339 -0.4312
 2403W        W18212   4.614  18.059   3.022 -0.0899 -0.2020 -0.1753
 2404W        W18213   3.643  10.857   0.712 -0.2846 -0.0404 -0.2324
 2405W        W18214   3.938   1.212   5.585  0.0161 -0.2685  0.2471
 2406W        W18215   2.504   1.333   0.201  0.4652 -0.0365 -0.0473
 2407W        W18216  18.978   8.438  14.146 -0.1108 -0.1317  0.1056
 2408W        W18217   0.918  13.104  14.473  0.1480 -0.0686  0.1054
 2409W        W18218   6.244  13.493   0.202  0.0160 -0.0267  0.1313
 2410W        W18219   6.165  14.120   4.081 -0.0346  0.0055 -0.0046
 2411W        W18220  16.633   1.994   3.503  0.1287 -0.0213  0.1449
 2412W        W18221  12.701   3.045  12.993  0.0808 -0.1717  0.0616
 2413W        W18222   5.721  15.969  12.894  0.0170  0.1866  0.1439
 2414W        W18223  12.845   6.061   4.149  0.1519  0.0481 -0.4336
 2415W        W18224  15.971  14.219  14.902  0.1908 -0.2777  0.0207
 2416W        W18225   9.330  12.431  12.596 -0.1952 -0.3280  0.0284
 2417W        W18226  16.625  16.695  15.110 -0.1804  0.0076 -0.3929
 2418W        W18227   3.623   9.710   0.625  0.0211  0.5834 -0.2141
 2419W        W18228   4.764  11.806  12.801 -0.2536  0.0866  0.3692
 2420W        W18229   8.415   3.045  13.431 -0.1428  0.2680 -0.0427
 2421W        W18230   1.817  11.491   4.912 -0.3887 -0.2422  0.1524
 2422W        W18231   2.320  11.039  13.845  0.1054  0.2288  0.0127
 2423W        W18232  12.520   0.675   2.622  0.1947 -0.0461  0.4823
 2424W        W18233  13.241   8.302   2.736 -0.2325 -0.2527 -0.2215
 2425W        W18234  16.275   1.815  12.044  0.1256  0.1416 -0.3840
 2426W        W18235  17.036  12.271  13.372  0.1764 -0.1212  0.2651
 2427W        W18236  18.085   4.286  14.273  0.0533  0.5550 -0.2802
 2428W        W18237  12.320   6.411   1.899  0.2175  0.0470 -0.1829
 2429W        W18238   2.929  12.088  14.027 -0.3165  0.2147  0.1552
 2430W        W18239  12.638  11.224   2.114  0.2369  0.0164 -0.3663
 2431W        W18240   4.793  11.870   1.760  0.2020  0.1644  0.0355
 2432W        W18241   2.157   9.873   0.489  0.2141 -0.0156  0.2039
 2433W        W18242  16.645   3.557   0.892 -0.1962 -0.0499 -0.2860
 2434W        W18243  11.261   1.157  14.189 -0.0250  0.0596  0.0742
 2435W        W18244  10.531  16.939   3.700 -0.1490 -0.1946 -0.2478
 2436W        W18245  14.124   5.194  12.209  0.2804  0.1242  0.1510
 2437W        W18246   6.853  13.630  10.841 -0.0240 -0.0301  0.5535
 2438W        W18247   7.498   1.064   3.663  0.2115 -0.3800 -0.0091
 2439W        W18248  18.552  18.025   4.540  0.0078 -0.1194  0.2292
 2440W        W18249  17.225   0.306  13.026 -0.1181  0.1562 -0.1852
 2441W        W18250   9.419   6.054   4.576 -0.0430 -0.1439 -0.0303
 2442W        W18251  16.425  11.178  10.855  0.0431  0.2895  0.1496
 2443W        W18252   6.103   2.970  14.882  0.1081  0.0993  0.0822
 2444W        W18253  17.422   0.946  14.226  0.0868 -0.2289 -0.0278
 2445W        W18254  15.393   6.574  11.380  0.0592 -0.0943  0.0534
 2446W        W18255   4.481   7.896   3.353 -0.1765  0.4126  0.1544
 2447W        W18256   1.643  14.546  14.811  0.2537 -0.2741 -0.0457
 2448W        W18257   8.924  16.138   5.013  0.2817 -0.0712  0.0584
 2449W        W18258  11.658  15.864   9.741 -0.5115 -0.2109  0.0886
 2450W        W18259  14.259   5.068   2.347  0.1244 -0.1519  0.0523
 2451W        W18260  16.659   2.968  10.930  0.3108  0.0324  0.1834
 2452W        W18261  15.595   6.819  12.748 -0.0767  0.3936  0.0979
 2453W        W18262  11.483   2.079  11.611  0.1878 -0.1346  0.3278
 2454W        W18263   5.211  10.033  15.058 -0.2892 -0.1586  0.3125
 2455W        W18264  11.047   9.579   2.390  0.0960  0.0152 -0.0940
 2456W        W18265  14.460  10.748   1.422  0.2746 -0.1351 -0.1963
 2457W        W18266   1.795   0.263   5.738 -0.1763 -0.2173 -0.0068
 2458W        W18267  11.914  11.584   0.627 -0.0921  0.1155 -0.1466
 2459W        W18268   3.288   6.379   1.598  0.1825  0.3276 -0.0723
 2460W        W18269  14.535  13.688   2.403  0.0736 -0.2272  0.2286
 2461W        W18270   9.087   4.879   4.921  0.1845 -0.1401 -0.0415
 2462W        W18271   4.493   4.677  12.000  0.1522  0.1729 -0.2595
 2463W        W18272  13.246  14.367  14.140 -0.0587  0.2673  0.0062
 2464W        W18273   0.650  14.202   3.102 -0.4568 -0.2699  0.1468
 2465W        W18274  15.520  15.861  10.815  0.0010 -0.0782 -0.0663
 2466W        W18275   5.375  16.391  12.133  0.1610 -0.1163 -0.0516
 2467W        W18276   9.854  14.358  12.278 -0.0053 -0.0336  0.1957
 2468W        W18277  17.598   0.481   3.730  0.1682  0.0423  0.2505
 2469W        W18278   3.532   6.119   0.678  0.0276  0.0476 -0.3679
 2470W        W18279   2.974  16.612   0.598  0.1817 -0.0497  0.0308
 2471W        W18280  16.645  13.829  14.096 -0.1669  0.3886 -0.1006
 2472W        W18281   8.465   1.740  14.083  0.1315 -0.2569  0.0868
 2473W        W18282  12.969   9.599   1.522 -0.1553 -0.1577 -0.1124
 2474W        W18283   3.106   1.861   2.103  0.2212  0.4481 -0.3701
 2475W        W18284  16.237  16.490  14.895  0.1857 -0.0732  0.0756
 2476W        W18285  13.058  14.172   6.229  0.0284  0.1780  0.2694
 2477W        W18286  18.222   9.918   3.891 -0.0689 -0.0257 -0.1397
 2478W        W18287   6.015  13.930  11.161  0.1728 -0.3800 -0.4098
 2479W        W18288  17.469  10.276  12.578 -0.0470 -0.2641 -0.1305
 2480W        W18289   8.815   3.791  12.369  0.3381 -0.1863  0.0075
 2481W        W18290  16.913   0.113   4.668 -0.1354 -0.1498  0.2015
 2482W        W18291  15.085  11.534   1.856 -0.2946  0.2836 -0.2074
 2483W        W18292  15.575  18.431  10.820 -0.0304  0.1304  0.0805
 2484W        W18293  17.993   4.285   3.665  0.0042 -0.1396  0.0425
 2485W        W18294  13.020   8.206   0.209 -0.0302 -0.1751  0.1168
 2486W        W18295   5.240   1.775   1.740 -0.3408  0.0642  0.2248
 2487W        W18296  16.690  10.229   9.489  0.2005  0.0347  0.1257
 2488W        W18297   1.792   1.723  11.286 -0.3806  0.1598  0.0427
 2489W        W18298  16.196  15.349  12.796 -0.0862  0.1792  0.0920
 2490W        W18299  10.336   4.577   4.392  0.2349  0.1183  0.0943
 2491W        W18300   0.107  11.656  11.012 -0.0674  0.1530 -0.0465
 2492W        W18301  18.695  18.820  13.630  0.0894  0.1002  0.0991
 2493W        W18302  17.415   9.554   4.864  0.0101  0.0126  0.1527
 2494W        W18303   1.487  13.850   0.433  0.0682 -0.1342 -0.0350
 2495W        W18304   1.598  11.147  14.829  0.2260  0.4390 -0.0104
 2496W        W18305   8.533  10.748   4.622 -0.2135 -0.0149 -0.0793
 2497W        W18306  15.247   6.570  14.376 -0.3930 -0.1735  0.0058
 2498W        W18307  12.893   5.489  10.400 -0.1891  0.0437  0.2587
 2499W        W18308   7.159  16.534  11.491  0.0733 -0.1095  0.1704
 2500W        W18309   5.987  11.121   3.146 -0.0378 -0.1417  0.2497
 2501W        W18310   9.607   2.873  11.929  0.2029 -0.0983 -0.0720
 2502W        W18311   9.551  16.217   0.912  0.1832 -0.1220 -0.0389
 2503W        W18312   4.066   3.609  11.307 -0.0484  0.2538 -0.0252
 2504W        W18313  13.399  16.308  14.731 -0.2139 -0.0608  0.0733
 2505W        W18314  11.037   8.242  14.434 -0.1069 -0.0415 -0.1226
 2506W        W18315   3.832  18.023  14.101 -0.4076  0.0950  0.2706
 2507W        W18316  13.601  10.831   3.516  0.1941  0.1556  0.0914
 2508W        W18317   9.280   4.404   4.938  0.0983  0.0984  0.1522
 2509W        W18318  16.580  13.212   1.414 -0.1059  0.2381  0.0225
 2510W        W18319  10.072   7.950   4.141  0.1024  0.0511  0.4228
 2511W        W18320  16.068   5.891   0.328 -0.4682 -0.1260 -0.1497
 2512W        W18321   8.964   4.884  12.260 -0.0275  0.1184  0.0960
 2513W        W18322   6.080   9.118   2.103  0.0613  0.0738  0.0558
 2514W        W18323  18.839  16.350   2.364  0.1133  0.0399 -0.1077
 2515W        W18324   5.247   4.932   2.479 -0.0914 -0.0857 -0.0102
 2516W        W18325  17.928  18.191  13.360 -0.0890  0.3337  0.1338
 2517W        W18326  17.851  17.009  11.308 -0.2160 -0.0980  0.0207
 2518W        W18327   4.739  10.282   2.125  0.1768  0.0486  0.1177
 2519W        W18328  10.153   3.133   3.042 -0.2687 -0.1659  0.0675
 2520W        W18329  10.082  10.528   3.097 -0.1822  0.3127  0.2046
 2521W        W18330  17.813   3.534   2.868  0.0612  0.1587 -0.2577
 2522W        W18331   2.014   3.174  11.754 -0.2392  0.2441  0.1838
 2523W        W18332   6.334  15.477  10.691 -0.4294  0.2961 -0.0935
 2524W        W18333   0.015   7.243   4.064 -0.0313  0.2353  0.0575
 2525W        W18334   4.539  12.912   4.963  0.4116  0.1610  0.1030
 2526W        W18335   2.344  16.609   2.888  0.0934  0.0518  0.0808
 2527W        W18336   9.225  13.802  11.771  0.0619 -0.0471 -0.4138
 2528W        W18337   4.985  13.953  14.994 -0.0807  0.2744  0.2211
 2529W        W18338   0.951  11.472  11.558 -0.0286  0.3933 -0.2307
 2530W        W18339   4.735  17.889  13.016  0.1039 -0.0726 -0.0601
 2531W        W18340  15.914  11.350   0.055  0.1337 -0.1065 -0.2358
 2532W        W18341  17.500   9.963  12.094  0.0396  0.0338 -0.2230
 2533W        W18342   1.002   5.056  12.167  0.1632  0.1188 -0.1277
 2534W        W18343   9.889  14.719   2.440 -0.1050 -0.1209 -0.0303
 2535W        W18344   0.300  14.757  14.377 -0.0745  0.1879  0.1350
 2536W        W18345   6.751   4.752   4.458  0.0301 -0.1270 -0.2061
 2537W        W18346  14.332   8.713   2.749  0.1165 -0.2431 -0.0608
 2538W        W18347   7.615   0.800  14.621  0.0111  0.1720 -0.0822
 2539W        W18348   6.505   7.197  13.143  0.0808 -0.0685 -0.0294
 2540W        W18349  18.641  18.529   0.779  0.3510  0.1205  0.1669
 2541W        W18350   8.045   6.755  12.517  0.0613 -0.1207 -0.1314
 2542W        W18351   5.712   1.880   1.440 -0.0908 -0.1012 -0.0793
 2543W        W18352   9.452   7.324   0.163  0.0518  0.2895 -0.0006
 2544W        W18353  10.518  17.092   0.671 -0.0572  0.0040  0.2752
 2545W        W18354  14.725   5.927   2.892  0.2576 -0.0159 -0.2030
 2546W        W18355  17.306   5.453   4.041  0.1477  0.0937  0.1598
 2547W        W18356  18.375  14.738  11.919 -0.0985 -0.2431  0.1814
 2548W        W18357  17.958   2.651  11.951  0.0477  0.1268  0.2592
 2549W        W18358   4.114  13.411   2.078  0.0656  0.0217  0.2348
 2550W        W18359  16.320   3.787  15.204 -0.1622  0.0442  0.1244
 2551W        W18360   6.518   8.305  12.865  0.1294  0.0881 -0.0450
 2552W        W18361   8.134   1.856   2.503 -0.3596  0.1163 -0.1236
 2553W        W18362   8.157  13.136  11.857 -0.2650 -0.0025 -0.4367
 2554W        W18363   7.971   5.411   2.044  0.1079  0.1631  0.0575
 2555W        W18364  13.923   8.112  14.279 -0.2338  0.0592 -0.1728
 2556W        W18365  17.991   2.222   2.149 -0.1669 -0.3225  0.2814
 2557W        W18366  13.592   9.701  14.751 -0.1200 -0.1745 -0.4251
 2558W        W18367  10.774   7.855   3.537 -0.0504 -0.1257  0.0419
 2559W        W18368   3.521   2.648   2.672 -0.1078  0.0352  0.0562
 2560W        W18369   0.302   3.034  10.737  0.1896 -0.2252 -0.2023
 2561W        W18370   6.344   7.525   3.117 -0.0563  0.1285  0.1028
 2562W        W18371   1.980  18.635  10.586 -0.3143 -0.0364  0.3529
 2563W        W18372  17.465  16.571  13.128 -0.1730 -0.1401  0.0205
 2564W        W18373  17.651   1.982  11.091 -0.3389  0.2320  0.2183
 2565W        W18374  11.149   4.537  13.409  0.0955 -0.1927 -0.0545
 2566W        W18375   8.058   5.628   5.079  0.0687  0.2616  0.4642
 2567W        W18376  18.666   2.789   3.852  0.1924 -0.0227  0.2068
 2568W        W18377   2.083  16.234   4.652 -0.0537  0.1210  0.3069
 2569W        W18378   5.451  14.176  10.697  0.1900 -0.1811 -0.2870
 2570W        W18379  16.312   8.855   0.464  0.2822 -0.2857  0.0893
 2571W        W18380  10.718   6.804   3.301  0.0848 -0.0253  0.1783
 2572W        W18381   5.326  10.366   4.871  0.4424  0.1719  0.0494
 2573W        W18382   4.868   2.244   4.333  0.0464  0.1704 -0.0319
 2574W        W18383  11.521   7.120  12.528  0.0323 -0.1422 -0.0469
 2575W        W18384  15.827   9.468  11.990  0.4115 -0.0453  0.1357
 2576W        W18385   1.011   0.249  13.071  0.1852 -0.1196 -0.1332
 2577W        W18386  14.690  11.847  12.647 -0.0202 -0.0144 -0.1006
 2578W        W18387   7.631  17.351   3.185 -0.1139  0.3175  0.3175
 2579W        W18388   9.536   3.909  13.513  0.1614 -0.0073 -0.0263
 2580W        W18389   4.365   3.524   0.180  0.3425 -0.0195 -0.2202
 2581W        W18390  15.806  18.847  10.715 -0.0445  0.0478 -0.1769
 2582W        W18391  13.569  16.105   5.147  0.1859  0.3270  0.2692
 2583W        W18392   1.863  10.071   2.130  0.1785  0.0788 -0.0852
 2584W        W18393  18.669   4.539  10.088 -0.3967 -0.2737  0.1385
 2585W        W18394  16.396  18.210  10.059 -0.3374 -0.0927 -0.0964
 2586W        W18395   4.969   1.456  12.690  0.0407  0.1855 -0.1240
 2587W        W18396   8.928  15.572  12.466 -0.2489 -0.1304  0.3183
 2588W        W18397   0.174  18.814  13.732  0.2268  0.1718 -0.2639
 2589W        W18398  16.029  16.891  13.459 -0.3984 -0.1306  0.0525
 2590W        W18399   9.727   3.976  10.460 -0.0083 -0.0426 -0.0049
 2591W        W18400   3.549  17.009   3.296 -0.0220 -0.0578 -0.0603
 2592W        W18401   4.899   6.836   5.699  0.1852  0.1595 -0.1987
 2593W        W18402   8.294   5.191   4.476 -0.0445 -0.0865 -0.1415
 2594W        W18403  16.971  14.724   3.985  0.2920 -0.1556  0.1110
 2595W        W18404  14.727   1.090  12.462 -0.0913  0.1299  0.4783
 2596W        W18405  17.418  16.297   3.850  0.0433  0.1115  0.1083
 2597W        W18406  12.436   9.150   3.863 -0.2948  0.0594 -0.4894
 2598W        W18407  14.833  12.479  11.789 -0.1606  0.0456 -0.1185
 2599W        W18408  15.803  14.375  11.865 -0.0699 -0.1061 -0.0793
 2600W        W18409  12.107   8.631  10.938  0.0216  0.3998 -0.1168
 2601W        W18410  10.520   1.078   1.668  0.0968  0.1415  0.0768
 2602W        W18411   1.653   0.234   5.224  0.0874 -0.1285 -0.3558
 2603W        W18412  10.882   3.470   3.431  0.0485 -0.3768 -0.1254
 2604W        W18413   7.352  13.688   3.656 -0.0726 -0.0227  0.0745
 2605W        W18414   2.270   4.228  14.134  0.1969  0.0630  0.0920
 2606W        W18415   5.394  14.734   4.017 -0.0101 -0.3952  0.1454
 2607W        W18416   3.387  11.164  14.968  0.0151 -0.0361 -0.1697
 2608W        W18417   5.575  12.788  12.544 -0.0298 -0.1308  0.2969
 2609W        W18418   9.093  12.318   2.773  0.0382  0.0361 -0.2652
 2610W        W18419   9.471   4.608  13.147 -0.1326 -0.1819 -0.0425
 2611W        W18420   8.644  17.400   4.295  0.5772 -0.0268  0.0576
 2612W        W18421   7.677  19.095  13.717  0.1870  0.1165 -0.4489
 2613W        W18422  15.821   2.701  12.155  0.2093 -0.0251  0.2677
 2614W        W18423  16.660  12.232   4.984  0.0052 -0.0620 -0.0065
 2615W        W18424   8.682  15.292   4.963  0.1605 -0.0920  0.0741
 2616W        W18425  14.658  13.347   4.402 -0.0820 -0.0119 -0.0255
 2617W        W18426  12.634  10.866  10.903 -0.1045 -0.1232  0.2759
 2618W        W18427  15.301   9.305  12.999  0.0897 -0.1080  0.1584
 2619W        W18428  18.169  13.828   1.379 -0.4405 -0.0941  0.1951
 2620W        W18429  16.060   5.395   2.394 -0.3566 -0.2958 -0.4332
 2621W        W18430   4.086  17.464   0.336 -0.2344  0.2924 -0.0881
 2622W        W18431   1.193   6.899   4.298  0.2330  0.0383  0.0442
 2623W        W18432  10.378   9.776   5.651  0.0383  0.1142  0.1370
 2624W        W18433   6.295   4.186  10.517  0.0837  0.0929  0.1878
 2625W        W18434  18.727   0.847  13.173 -0.2103  0.2832 -0.1611
 2626W        W18435  10.893  11.829  10.320  0.0987 -0.2824 -0.2774
 2627W        W18436  10.647  13.203  10.546 -0.1309 -0.1724  0.3887
 2628W        W18437   2.480  12.045   6.345 -0.0548 -0.2719 -0.1147
 2629W        W18438  15.429  11.318   4.601 -0.3952 -0.3253 -0.0288
 2630W        W18439   1.670   0.132  15.240  0.0299  0.1613 -0.2116
 2631W        W18440  16.944   5.841  10.710 -0.1426 -0.2342  0.1129
 2632W        W18441  13.176  12.741  12.369 -0.1723  0.1568  0.1792
 2633W        W18442  14.362   1.530   3.088  0.0140 -0.2809 -0.1731
 2634W        W18443  11.516   2.460  12.925  0.2212 -0.2552  0.0917
 2635W        W18444  10.735   7.532   0.451  0.1197  0.1722  0.3059
 2636W        W18445   5.797  15.443  14.148  0.1510 -0.3006  0.3378
 2637W        W18446   5.592  13.870   2.792  0.5271  0.1523  0.1240
 2638W        W18447   3.137  16.425  13.447 -0.3330  0.0532 -0.0484
 2639W        W18448  10.937  12.747  14.556 -0.0223 -0.1931  0.1578
 2640W        W18449  14.723   0.889   1.250 -0.1791 -0.2585 -0.4865
 2641W        W18450   5.579   4.059   1.505 -0.2060  0.0587  0.1827
 2642W        W18451   6.703   8.747  12.225 -0.2317 -0.0995 -0.1984
 2643W        W18452   5.548   4.990  14.960 -0.0961  0.2112 -0.0515
 2644W        W18453  17.264   7.837  14.633 -0.0015  0.2521  0.0437
 2645W        W18454  17.665  12.647   0.284 -0.1925 -0.0414 -0.2730
 2646W        W18455   7.837  12.067   2.253  0.1600  0.0830  0.0567
 2647W        W18456  12.324  12.091  13.829  0.1034 -0.4287  0.0179
 2648W        W18457   8.971   5.661   2.097  0.4059  0.1931  0.2311
 2649W        W18458  14.570   1.552   4.931  0.3476  0.2261  0.1499
 2650W        W18459  14.586  15.468   4.635 -0.1348 -0.1120  0.3113
 2651W        W18460   7.470   1.044   4.880 -0.1593 -0.1241  0.0554
 2652W        W18461   4.264  17.023   0.114  0.2452  0.0728  0.2346
 2653W        W18462   9.218   1.657   2.241  0.0694  0.3554 -0.0215
 2654W        W18463  14.891   2.188   3.682  0.2764  0.2942  0.1491
 2655W        W18464  14.890   9.965  12.497 -0.0185  0.0024 -0.2432
 2656W        W18465   4.417   3.983  11.518  0.1286 -0.1252  0.0376
 2657W        W18466  14.596   1.277  13.607 -0.2218  0.2727  0.1753
 2658W        W18467  14.249   3.906  14.406  0.0095 -0.2266 -0.2331
 2659W        W18468   5.595   0.756  11.127 -0.3397 -0.0144 -0.1370
 2660W        W18469  15.700  12.297   2.971 -0.0720 -0.2742 -0.0934
 2661W        W18470  13.867   0.097   4.219  0.2007 -0.0792 -0.0514
 2662W        W18471  12.791   2.463  14.084 -0.2414 -0.2379 -0.1258
 2663W        W18472  10.998   7.308   2.894  0.1138  0.0650  0.0069
 2664W        W18473  12.047  10.515  13.274 -0.1504 -0.0033  0.0678
 2665W        W18474  16.832  14.471   0.843  0.1792 -0.1214  0.1328
 2666W        W18475  12.189   3.057   4.046  0.1577  0.0924 -0.1308
 2667W        W18476  17.939   5.387  12.775  0.0123 -0.1788 -0.1021
 2668W        W18477   8.316   1.902   3.600  0.0795  0.1971  0.4373
 2669W        W18478  17.652   5.258  10.989  0.1822 -0.0970 -0.0588
 2670W        W18479   2.676   3.812  11.131  0.0032  0.0067 -0.0248
 2671W        W18480  15.318  16.250   2.996  0.1133 -0.0099 -0.0809
 2672W        W18481   4.383  16.732  10.527 -0.0260 -0.2199 -0.0146
 2673W        W18482  10.334   4.375   9.653  0.1293  0.0545  0.2062
 2674W        W18483   5.604  12.711  13.741 -0.2013  0.2143  0.0086
 2675W        W18484  17.517  17.914  13.456  0.0225  0.1958 -0.2022
 2676W        W18485   1.780   3.723   0.743 -0.0783 -0.0521 -0.1149
 2677W        W18486   3.301   3.210  14.163  0.2546  0.2805 -0.1727
 2678W        W18487   8.099  17.592  13.836  0.0109  0.2106 -0.1646
 2679W        W18488   0.630   6.815   1.406 -0.0285 -0.1117 -0.1601
 2680W        W18489  14.987   0.011   1.664  0.0432 -0.1120  0.1604
 2681W        W18490  10.993   1.893   0.084 -0.2544 -0.0334  0.0054
 2682W        W18491  14.277  18.687  12.479  0.0201 -0.1756 -0.3758
 2683W        W18492  11.392  16.134  13.574  0.3270 -0.0693  0.1289
 2684W        W18493  12.856  13.803   2.818 -0.2567  0.0041 -0.0638
 2685W        W18494   1.153   3.205  11.423  0.0603  0.2372  0.1310
 2686W        W18495  11.225   5.058   4.959  0.1025  0.0799 -0.1954
 2687W        W18496   9.629  12.097   1.047  0.1217 -0.2854 -0.1119
 2688W        W18497  13.749  15.491   0.920 -0.0451 -0.1399 -0.2856
 2689W        W18498   4.804  13.437  11.906 -0.0831  0.1908  0.0097
 2690W        W18499  16.750   2.142   2.042  0.0024  0.1541 -0.3316
 2691W        W18500   4.733  17.986  13.508  0.0153 -0.0841  0.0614
 2692W        W18501  16.437   2.074   1.586 -0.4921  0.3147 -0.4729
 2693W        W18502   9.269   8.416  10.974 -0.2009  0.1618 -0.2699
 2694W        W18503   9.409  19.034  12.266  0.0928  0.2312 -0.1686
 2695W        W18504   8.220   0.613   3.744 -0.1070 -0.1002 -0.0363
 2696W        W18505  14.289   1.134   1.160 -0.0144  0.1563  0.0043
 2697W        W18506   3.263   5.165  13.886 -0.0039 -0.2140  0.2865
 2698W        W18507  17.940   0.512   2.891 -0.1415  0.1687 -0.0547
 2699W        W18508   1.486   0.332   0.386  0.1336  0.2427 -0.1182
 2700W        W18509  14.050   0.606   4.169 -0.0787 -0.1150  0.2734
 2701W        W18510   1.309   9.364   4.919  0.0282  0.1694 -0.1543
 2702W        W18511  12.631  13.245  12.893 -0.4169  0.0921 -0.1952
 2703W        W18512   7.567  10.009  12.724  0.4192  0.0735  0.0382
 2704W        W18513   4.032   9.767  11.100  0.1686 -0.1992  0.0493
 2705W        W18514   8.595   8.952   1.192 -0.0185 -0.0034  0.0053
 2706W        W18515   4.129   6.993   5.125  0.2561 -0.2182  0.0438
 2707W        W18516   9.232  16.332  10.081  0.2938 -0.1441  0.1671
 2708W        W18517   7.195   0.139   9.840  0.3833  0.0423 -0.2519
 2709W        W18518  18.105  16.424  13.765  0.3173 -0.0502  0.0162
 2710W        W18519   8.232   6.361   9.883  0.1129  0.0313  0.0952
 2711W        W18520   5.321  17.966  11.934  0.2472  0.1835 -0.1586
 2712W        W18521  11.552   9.529   3.634  0.0548  0.1863  0.0596
 2713W        W18522   2.929   9.986   2.845 -0.1135 -0.3016 -0.2013
 2714W        W18523   3.807   8.403   4.669 -0.0089  0.2386 -0.1834
 2715W        W18524   3.990   6.829  11.718  0.2381  0.0850 -0.0595
 2716W        W18525  16.762  17.305  14.033  0.1134 -0.0373  0.2287
 2717W        W18526  11.530   6.694   3.807  0.1547 -0.1214 -0.1585
 2718W        W18527   4.435   5.393   0.888  0.1592  0.0367  0.0162
 2719W        W18528   6.057   6.328   0.740 -0.1239  0.0651  0.0238
 2720W        W18529  10.760   0.344  10.561  0.3166  0.0566 -0.0502
 2721W        W18530  14.658  15.663   3.296  0.0302 -0.2217 -0.0640
 2722W        W18531  11.454   2.047   4.496 -0.0567 -0.1912 -0.0926
 2723W        W18532  15.062   6.088  10.761  0.0622 -0.2792  0.0435
 2724W        W18533  15.000  13.668   2.916 -0.1220  0.1752 -0.3947
 2725W        W18534   3.780  11.125   1.092  0.0223 -0.1728  0.1115
 2726W        W18535   0.838   0.918  10.754 -0.1297  0.0420  0.0086
 2727W        W18536   3.544   4.124  12.105  0.1373  0.2307  0.0003
 2728W        W18537   6.577  10.021  13.071  0.0731 -0.1295 -0.1370
 2729W        W18538   2.268  10.631   1.760  0.1615  0.2106  0.1092
 2730W        W18539   2.401   8.108  14.515 -0.2982 -0.2055  0.2221
 2731W        W18540  17.468   4.957   1.890 -0.1239  0.0021  0.1788
 2732W        W18541  14.164   4.989  14.409 -0.2960 -0.2269 -0.1356
 2733W        W18542  18.074   6.200  13.060 -0.2872 -0.1101 -0.1464
 2734W        W18543   9.614  16.420   2.850 -0.1125  0.3167  0.2041
 2735W        W18544  15.686   0.626  14.828 -0.4534  0.1048  0.0420
 2736W        W18545   1.549   6.347  12.338 -0.0953  0.1440  0.0225
 2737W        W18546  13.537   1.885  11.237 -0.1283 -0.1860 -0.0117
 2738W        W18547   2.390   5.611   2.533 -0.1136 -0.2671  0.1996
 2739W        W18548  18.948   1.555  11.649 -0.0591  0.0353  0.1423
 2740W        W18549  10.218   4.693  13.954 -0.0870  0.2108 -0.0716
 2741W        W18550  11.454  14.956  12.200 -0.2045  0.0326  0.2796
 2742W        W18551   7.433  12.658  14.487 -0.2317 -0.2736  0.3627
 2743W        W18552  14.815  13.587   5.773 -0.0514 -0.0296  0.0623
 2744W        W18553  10.995  16.741  14.714  0.1173  0.1591 -0.0241
 2745W        W18554  11.219   6.739  10.725 -0.1700  0.2058 -0.0399
 2746W        W18555  14.780   4.410   3.199 -0.2556 -0.1095  0.2107
 2747W        W18556   6.089  10.005   0.131  0.2880 -0.0164 -0.2405
 2748W        W18557  18.243   6.067   2.370  0.0085  0.2045 -0.1872
 2749W        W18558   7.320  17.344   4.288 -0.0922 -0.0290 -0.0912
 2750W        W18559  17.754  16.675   1.477 -0.2267 -0.0234 -0.1278
 2751W        W18560   4.601   1.812   4.234 -0.1739  0.0384 -0.3157
 2752W        W18561   9.582  16.416  14.842  0.1843  0.0282 -0.2345
 2753W        W18562  14.478   7.106  11.187  0.0966 -0.0955  0.1281
 2754W        W18563   2.521  16.067  13.817  0.1688  0.0498  0.3090
 2755W        W18564   2.607   8.753   0.696  0.2977 -0.1468 -0.0099
 2756W        W18565   2.556   4.994  12.524  0.1117 -0.0162 -0.2411
 2757W        W18566  14.489  16.719   1.664  0.0659  0.0889 -0.2907
 2758W        W18567   0.975  13.998  14.457  0.3537  0.1036  0.2604
 2759W        W18568   6.428  10.888   0.276 -0.1959 -0.2003 -0.2038
 2760W        W18569  18.474  11.575  15.082  0.3390 -0.0603 -0.0808
 2761W        W18570  13.819   4.791  14.061  0.1300 -0.0975 -0.1524
 2762W        W18571  18.452   5.495   2.671 -0.2537 -0.0622 -0.1732
 2763W        W18572   0.712   2.666  10.619  0.3206 -0.0245  0.0180
 2764W        W18573   6.748  10.856  13.734  0.1833  0.2007  0.1372
 2765W        W18574   5.793  16.441  10.746  0.0786 -0.2976  0.0751
 2766W        W18575   5.493  12.280  12.852 -0.0462 -0.3836 -0.3448
 2767W        W18576  17.868   4.640   3.274  0.0309 -0.0439  0.0759
 2768W        W18577   3.113   0.862  13.375  0.2349  0.1690 -0.0748
 2769W        W18578   8.359   5.923  12.149  0.2439 -0.2115 -0.0064
 2770W        W18579   4.237   3.642   0.818 -0.0328  0.0436 -0.0034
 2771W        W18580  10.766   5.577  12.445  0.1276  0.3786 -0.1991
 2772W        W18581   1.084  10.477   0.458 -0.1174 -0.2920 -0.3090
 2773W        W18582  15.350   0.636  13.564 -0.2833  0.1966 -0.3007
 2774W        W18583  12.547   3.266  12.438 -0.0050 -0.1809  0.0478
 2775W        W18584  15.370  14.553   0.654 -0.2482 -0.0677 -0.1477
 2776W        W18585   3.843  13.391  11.363  0.1157 -0.2156  0.1564
 2777W        W18586  15.338   0.477   4.581 -0.1052  0.2399  0.0440
 2778W        W18587  15.859  15.061  12.450  0.2096 -0.1469  0.0636
 2779W        W18588  17.118   3.084   2.273  0.3029 -0.0656 -0.2512
 2780W        W18589   8.055   2.491   0.852 -0.4426  0.1803  0.2687
 2781W        W18590  18.447   6.397   1.520 -0.1167  0.2185  0.2625
 2782W        W18591   2.537  17.743  15.204  0.4020 -0.0092 -0.1523
 2783W        W18592  17.283   4.062   1.573  0.0695 -0.3352 -0.2349
 2784W        W18593  18.183   7.601   0.211  0.0739  0.0850 -0.2190
 2785W        W18594  19.079   2.749   4.166  0.1408  0.0034 -0.1001
 2786W        W18595  11.466   3.165   0.324 -0.2237 -0.0573 -0.2088
 2787W        W18596   9.788  18.552  10.583 -0.2666  0.2768 -0.2663
 2788W        W18597  17.867  14.027   0.425 -0.1251  0.0076  0.1313
 2789W        W18598  12.189   7.415  13.007  0.2144  0.4077 -0.0123
 2790W        W18599  15.412   4.714   3.279  0.0272 -0.0719 -0.2357
 2791W        W18600   6.039   3.611  12.211  0.0357 -0.1365 -0.1987
 2792W        W18601  18.471   8.462  13.970 -0.3195 -0.1229  0.0380
 2793W        W18602  15.577  17.614  12.264 -0.1112 -0.0240 -0.3230
 2794W        W18603   7.095  14.249   5.359 -0.1927  0.1470 -0.0681
 2795W        W18604  14.433  12.480   1.018  0.1732  0.0179  0.1804
 2796W        W18605   3.558   3.986  10.226 -0.1478  0.0661  0.0327
 2797W        W18606   7.263  14.805  15.062 -0.2975 -0.0693  0.1697
 2798W        W18607  14.384   6.033   9.954 -0.0270 -0.1107  0.2109
 2799W        W18608  12.734  15.897   3.808  0.0164 -0.2065 -0.1833
 2800W        W18609   6.690  15.985  10.933 -0.1839 -0.0737 -0.0179
 2801W        W18610   7.533   6.585  10.840  0.1224 -0.1235 -0.0581
 2802W        W18611   7.239   1.299  11.646  0.0874 -0.0437  0.1091
 2803W        W18612  17.526   5.499   4.589  0.0071  0.3197  0.2801
 2804W        W18613  15.177   9.510   1.088  0.1363 -0.1346 -0.3039
 2805W        W18614   4.988   8.471   2.979 -0.2146 -0.0933  0.1551
 2806W        W18615  15.108  11.646  14.474 -0.0399  0.3892  0.0003
 2807W        W18616   7.260  12.418  11.580 -0.3516 -0.0851 -0.1978
 2808W        W18617   4.316   4.951  11.012  0.1975  0.1497  0.0533
 2809W        W18618   0.639   4.432  10.101 -0.2700  0.1427  0.0544
 2810W        W18619   1.258   4.000  14.006 -0.0176 -0.0515 -0.2807
 2811W        W18620  17.703   5.536  13.189 -0.1143  0.1571 -0.3708
 2812W        W18621  16.489   8.755  12.506 -0.1032  0.0846  0.1959
 2813W        W18622  14.666  12.782   2.908 -0.0634  0.0341 -0.0321
 2814W        W18623   8.271  15.627   4.748  0.3245  0.0859  0.0762
 2815W        W18624   0.078  12.498   4.336 -0.4114 -0.1219 -0.1926
 2816W        W18625   0.954   8.542  10.153 -0.0194 -0.0365  0.3060
 2817W        W18626   5.618  10.975  10.213  0.1206  0.0042 -0.2171
 2818W        W18627  14.017   1.348  14.956  0.2111  0.1342  0.0275
 2819W        W18628   4.993   2.490   1.137 -0.0194  0.0693  0.2052
 2820W        W18629  13.482   3.373   1.369  0.0799  0.0364  0.3656
 2821W        W18630  15.198  17.054   1.269 -0.2278  0.0493 -0.1429
 2822W        W18631  13.244   7.654   1.874  0.1064  0.3126 -0.1826
 2823W        W18632  15.446  11.906   2.108  0.0624 -0.1462 -0.2712
 2824W        W18633   8.479   5.931  12.623 -0.2307 -0.0247 -0.0868
 2825W        W18634   0.949   0.423  10.918 -0.0145 -0.0740  0.0292
 2826W        W18635  10.063  17.856   0.047  0.0420 -0.1496  0.2051
 2827W        W18636   6.820  14.342   4.901 -0.1569  0.1112  0.0904
 2828W        W18637   1.957  12.419   1.391  0.0909 -0.2655 -0.1813
 2829W        W18638   0.074  17.872  12.881  0.1031  0.0550  0.3522
 2830W        W18639   4.491  12.548   2.246  0.1534  0.0018 -0.0833
 2831W        W18640  19.111   7.845   1.008 -0.1632  0.3494 -0.4458
 2832W        W18641   2.933  19.075   3.976  0.0004  0.2511  0.2509
 2833W        W18642   9.333   3.045   0.079  0.4323 -0.0166 -0.0510
 2834W        W18643  14.128  15.562   0.523  0.0691  0.1251  0.0251
 2835W        W18644  13.459  13.846  13.849  0.2165  0.1795  0.0297
 2836W        W18645  10.129  17.293   2.797 -0.2640  0.1557 -0.4379
 2837W        W18646  15.589  12.477  14.939 -0.2727 -0.1624 -0.0071
 2838W        W18647  17.268   8.215   4.284 -0.1043  0.2010 -0.2940
 2839W        W18648  17.089  11.035   2.321 -0.1287 -0.2650 -0.1483
 2840W        W18649  10.040   8.633  10.782 -0.3433 -0.3771 -0.0897
 2841W        W18650  16.694  18.018   4.390  0.2397 -0.3315 -0.1160
 2842W        W18651  16.429  12.918  14.897 -0.0173 -0.0733  0.1930
 2843W        W18652   2.771  13.352   0.951  0.1479 -0.1396 -0.1307
 2844W        W18653   3.839   8.964   1.862 -0.3218  0.0040 -0.0120
 2845W        W18654  16.474  11.622  10.585  0.1698  0.0785  0.0774
 2846W        W18655   5.549   9.625  11.710 -0.0189 -0.2762  0.1645
 2847W        W18656  13.870  18.664  10.653 -0.1058 -0.0152  0.2260
 2848W        W18657  18.095  13.414  10.934 -0.1340  0.1570  0.3109
 2849W        W18658  10.832  16.719   3.185 -0.1374 -0.1987 -0.0373
 2850W        W18659  11.983  15.597   0.548  0.0698  0.1368  0.4329
 2851W        W18660   9.413  15.051   3.914 -0.0054  0.2544 -0.2234
 2852W        W18661  15.812  13.329  11.523  0.0758  0.0902 -0.0228
 2853W        W18662  11.372  11.952  12.936 -0.1809  0.0620 -0.0627
 2854W        W18663  16.199   7.840  12.630  0.1419 -0.2514 -0.2022
 2855W        W18664  10.841  13.617  14.835  0.0239 -0.1129 -0.2635
 2856W        W18665  17.553   0.154  11.699  0.2330 -0.4277  0.1655
 2857W        W18666   0.444  13.959   4.784  0.4167 -0.0716 -0.1143
 2858W        W18667   0.955  12.630   0.753 -0.1423 -0.2056 -0.0767
 2859W        W18668   5.947  17.358  10.596  0.1187 -0.1108  0.1917
 2860W        W18669   8.376  10.345   0.403  0.4712  0.4771  0.2002
 2861W        W18670  18.110   2.309  12.426 -0.0275 -0.0509 -0.0731
 2862W        W18671  13.655  17.634   2.259 -0.0004  0.0464  0.1376
 2863W        W18672   6.676   1.505  12.867 -0.2226 -0.0422  0.0233
 2864W        W18673   5.658  16.405   4.316 -0.1703 -0.2195 -0.4341
 2865W        W18674  12.052  12.049   3.217 -0.0371  0.3588 -0.2343
 2866W        W18675  15.692   1.649  13.252 -0.0038 -0.2463 -0.1676
 2867W        W18676   2.887  16.916  11.724  0.0668 -0.1192 -0.3102
 2868W        W18677   5.174  12.888  11.270  0.2210  0.0636 -0.1218
 2869W        W18678   0.718   8.849  15.021  0.4238  0.3887  0.1867
 2870W        W18679   7.818  14.454  13.421  0.0533  0.1809  0.2407
 2871W        W18680   2.208   7.769   2.419  0.3040  0.0068 -0.1042
 2872W        W18681  15.500  10.571   3.966  0.0723 -0.1149  0.0088
 2873W        W18682  17.366   6.308   4.291  0.1840 -0.2052 -0.0075
 2874W        W18683  15.758   5.841   1.687  0.0018  0.2457 -0.2645
 2875W        W18684   0.353   6.178   2.975  0.0367 -0.1399  0.0008
 2876W        W18685   6.063  15.647  13.201  0.2599  0.0398 -0.0107
 2877W        W18686   7.999  18.863  13.408 -0.0484 -0.0594 -0.2916
 2878W        W18687  16.768  11.498  11.782  0.2236  0.0352  0.0659
 2879W        W18688  15.239  10.170   1.690  0.2030 -0.1394  0.0021
 2880W        W18689   7.050   5.529   0.298  0.0761 -0.1170 -0.2606
 2881W        W18690  14.170   7.549   0.227  0.6486  0.0269  0.5235
 2882W        W18691  16.273  18.696   1.261  0.0753 -0.2612  0.0498
 2883W        W18692  17.825   3.029   2.953 -0.0388 -0.0035  0.0858
 2884W        W18693  18.025   3.517   1.277  0.1099 -0.1577 -0.2659
 2885W        W18694  13.244   4.238  13.144 -0.0787 -0.3020  0.1490
 2886W        W18695  17.489   3.662  11.154  0.3221 -0.3104 -0.0859
 2887W        W18696  14.027  12.918  10.448 -0.2555  0.1067  0.0088
 2888W        W18697   3.301  12.718  12.649 -0.3103 -0.1789  0.0869
 2889W        W18698   8.011   8.314   2.573 -0.3599  0.0230 -0.1287
 2890W        W18699   1.912   4.608  14.497 -0.0531  0.0405  0.4332
 2891W        W18700  10.567  17.000  12.168  0.1676 -0.2394  0.4392
 2892W        W18701  15.017   0.342  10.509  0.5735 -0.0306 -0.1410
 2893W        W18702  13.376  15.522   2.207  0.0588 -0.1777 -0.0157
 2894W        W18703  18.329  16.703  11.443 -0.1529 -0.0230  0.1322
 2895W        W18704  16.645  18.785  13.671 -0.0117 -0.0958  0.2572
 2896W        W18705  19.033   0.406   0.322 -0.2284  0.0278 -0.0064
 2897W        W18706  16.895   4.072   0.637  0.0860  0.1330  0.2455
 2898W        W18707   3.783  16.196   4.910 -0.1045 -0.0675 -0.0286
 2899W        W18708   1.253   8.871  11.135  0.0276 -0.2845  0.0485
 2900W        W18709  15.097  12.702   1.194  0.0131 -0.4577 -0.1048
 2901W        W18710   0.184   6.273  11.877 -0.2021  0.0165 -0.0264
 2902W        W18711  15.857   1.809   2.877  0.0183  0.3133  0.0004
 2903W        W18712   1.709   8.080  13.089 -0.2557 -0.4516 -0.2786
 2904W        W18713  11.771  15.854   2.727  0.1550 -0.0762 -0.1235
 2905W        W18714   3.533   2.737  14.720  0.1359  0.0880  0.0463
 2906W        W18715  10.649   0.874  11.760 -0.0002  0.0821  0.1336
 2907W        W18716  10.627  12.401   0.282 -0.1825  0.0827  0.4736
 2908W        W18717  17.684   6.092   2.723  0.0340 -0.1933  0.0989
 2909W        W18718  18.353  16.256   3.838 -0.0272 -0.2424 -0.0466
 2910W        W18719  18.844  15.512   2.367 -0.0370  0.2981  0.0576
 2911W        W18720   0.049   0.532   2.998 -0.2535 -0.0648 -0.4672
 2912W        W18721  15.472  14.961   5.756 -0.2717 -0.0803  0.1301
 2913W        W18722  13.428  12.159   4.271  0.0743 -0.0765  0.1623
 2914W        W18723  13.762  10.569   2.108  0.4003 -0.3384  0.0170
 2915W        W18724   2.427   4.407  14.774  0.2520  0.0149 -0.1399
 2916W        W18725  18.616   9.035  11.467  0.1861 -0.0319  0.0718
 2917W        W18726   1.074   0.430   5.797 -0.0093  0.0241  0.2683
 2918W        W18727   1.546   7.376   2.052  0.0305  0.2238  0.2342
 2919W        W18728  17.792   3.726  13.084  0.3502  0.1864 -0.0367
 2920W        W18729   8.143   0.538   4.225 -0.0744 -0.4046 -0.2726
 2921W        W18730   9.582   9.614   3.808 -0.0289  0.3270  0.1205
 2922W        W18731   9.507   9.624   5.183 -0.1829 -0.0539 -0.0262
 2923W        W18732  10.028   8.630  14.090 -0.0744  0.1956  0.2647
 2924W        W18733  10.085   5.409   1.125 -0.0582  0.1298 -0.1255
 2925W        W18734   5.951  19.075   9.136  0.2123 -0.2428  0.0462
 2926W        W18735   2.926   7.015   2.314 -0.0551  0.1596  0.1418
 2927W        W18736  16.448   7.553   1.950  0.3104 -0.1766  0.0832
 2928W        W18737  11.889   6.282  13.735  0.1178  0.2048 -0.1857
 2929W        W18738   7.524  19.116   3.038  0.0549 -0.1207  0.1405
 2930W        W18739  14.081   5.796   4.770  0.1631  0.1019 -0.2108
 2931W        W18740   3.954   6.671  13.353 -0.2095  0.0379 -0.5225
 2932W        W18741  16.235  18.575   0.661  0.1229 -0.0307 -0.0289
 2933W        W18742  12.973  18.041   3.311 -0.3180  0.0279 -0.1530
 2934W        W18743   2.978  17.416  12.038 -0.0158 -0.2531  0.0708
 2935W        W18744   8.900   8.519   2.382  0.2395 -0.1517 -0.2598
 2936W        W18745  17.573   9.200  11.389  0.1821  0.0569  0.1920
 2937W        W18746  19.015  13.451   4.384  0.3387 -0.1073  0.0613
 2938W        W18747   0.208   0.545  12.396 -0.1381 -0.0104 -0.1295
 2939W        W18748   1.132  17.823   0.929 -0.0444  0.1429 -0.2401
 2940W        W18749  12.667   3.830   1.874  0.2495  0.1399 -0.1688
 2941W        W18750  12.860  13.017  15.226 -0.2496  0.3487  0.1073
 2942W        W18751   0.824   3.059   1.477  0.2508 -0.1129  0.0681
 2943W        W18752   3.946   8.781  11.918  0.1362  0.1186  0.0360
 2944W        W18753   3.521  18.367  13.969  0.1896  0.0450  0.1090
 2945W        W18754   3.131   1.833  14.946 -0.1716 -0.1575  0.0124
 2946W        W18755   3.583   3.465   0.900  0.1002  0.3223 -0.0863
 2947W        W18756  12.507   4.171  11.873  0.4170 -0.3351 -0.0387
 2948W        W18757   1.224  16.555   3.690  0.0769  0.0824  0.0060
 2949W        W18758  14.600   1.885   4.048 -0.0756 -0.2228 -0.2160
 2950W        W18759   2.904  15.961  13.417 -0.1791 -0.1006 -0.0688
 2951W        W18760  10.027   9.901   9.606  0.0715  0.4904  0.1349
 2952W        W18761   3.060   8.645  13.855  0.1824  0.2018  0.1350
 2953W        W18762   0.798   2.519   2.297 -0.1433 -0.2466  0.1415
 2954W        W18763   6.905   8.857   2.134  0.2297 -0.2746  0.0117
 2955W        W18764   9.919  18.331  13.789 -0.0148  0.0282 -0.1269
 2956W        W18765   9.472   2.227   0.103 -0.2022 -0.1755  0.1042
 2957W        W18766   3.100   4.238   2.428  0.0432 -0.0642 -0.0862
 2958W        W18767   7.941   9.923  14.753 -0.4226 -0.0700  0.0802
 2959W        W18768   9.260   9.670  15.032  0.3315 -0.1073  0.1441
 2960W        W18769  12.231  13.991   5.310  0.0956 -0.0443 -0.2527
 2961W        W18770   4.328   2.728   3.778  0.0948 -0.0012 -0.0120
 2962W        W18771  16.701  14.584  10.968  0.2408  0.0009  0.1691
 2963W        W18772   4.398  17.509  15.193  0.1860  0.0158 -0.3731
 2964W        W18773   6.224  17.270  13.377  0.2756 -0.1349  0.0457
 2965W        W18774  10.193  10.784   2.580 -0.1613 -0.0314  0.0522
 2966W        W18775  14.479   8.864  14.564  0.5098  0.0398  0.0510
 2967W        W18776  13.075   0.776   1.014  0.0295 -0.1445 -0.1401
 2968W        W18777   8.090  12.134  12.874 -0.4752  0.0600  0.3089
 2969W        W18778   0.955  10.171   1.219 -0.0003 -0.2452 -0.1474
 2970W        W18779  10.560  14.740  13.731 -0.1605  0.0736  0.1954
 2971W        W18780  17.390  10.360   0.173  0.0831  0.3712 -0.2940
 2972W        W18781  10.730  15.644  12.361  0.1952  0.1154  0.0858
 2973W        W18782   4.248  10.543   3.441 -0.0873  0.0178  0.1268
 2974W        W18783  17.516  16.117   4.303 -0.3455  0.2505  0.0347
 2975W        W18784  12.762  15.109  11.402 -0.0627  0.0849 -0.2295
 2976W        W18785   6.204   5.796  11.842 -0.3237  0.0551 -0.1638
 2977W        W18786  14.044  15.337  13.057 -0.0277  0.2200  0.1091
 2978W        W18787  16.954  18.412   3.114  0.1419 -0.4045 -0.0896
 2979W        W18788  13.511   4.845  10.605  0.0771  0.1692  0.0065
 2980W        W18789   3.452   8.389   4.267  0.2149 -0.0775 -0.4030
 2981W        W18790   6.094  12.885   1.141 -0.1155  0.2140  0.0056
 2982W        W18791  10.801   0.147   5.594 -0.0220  0.1626  0.1898
 2983W        W18792  12.639  18.515   2.459  0.3988  0.0898 -0.1400
 2984W        W18793   2.752  12.735  12.752  0.2027  0.3098  0.0013
 2985W        W18794   0.496   4.256   4.713 -0.1340  0.1482  0.1360
 2986W        W18795  10.103  14.099  14.682 -0.0253  0.0743 -0.3853
 2987W        W18796  14.601   9.491   0.713  0.1826  0.0899  0.3419
 2988W        W18797  18.169  17.906  10.434  0.1445  0.0099 -0.0049
 2989W        W18798   3.179  16.290   1.497  0.1295 -0.2805 -0.1748
 2990W        W18799  14.076  16.342   5.398  0.2653 -0.0854 -0.2403
 2991W        W18800  16.342   9.001  12.947 -0.3441 -0.1745 -0.1520
 2992W        W18801  14.037  13.242  13.734 -0.1219 -0.0420  0.2950
 2993W        W18802   1.466  11.412   4.398  0.0714  0.0942  0.1106
 2994W        W18803  10.386   3.157  15.048  0.1062  0.1756 -0.4934
 2995W        W18804   3.481  11.919  12.432  0.1676 -0.0833  0.0273
 2996W        W18805   1.939   8.179   0.622 -0.2037  0.0486 -0.2430
 2997W        W18806  18.402   1.094   1.152 -0.2239  0.1346 -0.3524
 2998W        W18807  14.104  10.898   2.226 -0.0470  0.1220 -0.2840
 2999W        W18808  14.951   2.853   0.273 -0.2639 -0.3734 -0.1395
 3000W        W18809  11.266  18.140  12.715  0.1328 -0.0854 -0.2790
 3001W        W18810  18.947   2.880   0.765 -0.0632 -0.0186  0.0648
 3002W        W18811   6.277   4.544  13.273 -0.0855  0.3109  0.0734
 3003W        W18812   1.387  12.169  13.676  0.1250 -0.0705 -0.0387
 3004W        W18813   1.445   2.314  10.535 -0.0904  0.1642  0.0520
 3005W        W18814   6.538   4.638   0.676 -0.1857  0.1851 -0.0323
 3006W        W18815  10.449  18.459   3.211 -0.0440 -0.3800 -0.1347
 3007W        W18816  16.833  16.555   5.046  0.0073  0.1348  0.1966
 3008W        W18817   8.383   7.957  11.740  0.0470  0.0853  0.0180
 3009W        W18818  14.210   7.666   4.902 -0.0914 -0.1564 -0.0083
 3010W        W18819  10.324  15.836   3.110 -0.2544  0.2011 -0.1310
 3011W        W18820  18.167  17.483  11.841 -0.0800  0.0583  0.1721
 3012W        W18821   8.803   0.430   2.337 -0.2235  0.0753 -0.1301
 3013W        W18822  10.845  18.208   0.366  0.3567  0.0390 -0.0634
 3014W        W18823  13.223   7.255  10.768 -0.1944 -0.2327 -0.2719
 3015W        W18824  10.397  12.070  12.941  0.0821  0.0773  0.1942
 3016W        W18825   6.080   0.424   9.002 -0.0107  0.2049  0.0363
 3017W        W18826   9.343  17.813  13.188  0.0941 -0.0480 -0.0831
 3018W        W18827   3.404  13.705   5.015  0.0914 -0.0518 -0.0207
 3019W        W18828  18.736  10.367   1.319  0.1117  0.4058 -0.1825
 3020W        W18829  10.029  17.792   1.428 -0.2719  0.0266  0.1536
 3021W        W18830   6.150  13.864  10.030 -0.3142 -0.1212  0.2741
 3022W        W18831  14.420  12.047   2.101  0.1575  0.2629 -0.2892
 3023W        W18832   7.849  16.182   2.762  0.4240  0.2066  0.0109
 3024W        W18833   1.056   7.127   3.205 -0.2077 -0.1163  0.3919
 3025W        W18834   3.736  18.377   3.653  0.0787 -0.1113 -0.2260
 3026W        W18835   5.699   9.899  13.893  0.3215  0.3366  0.0650
 3027W        W18836   1.705  13.716  10.346 -0.3383 -0.0101  0.0005
 3028W        W18837  17.955  15.593   0.692  0.2236  0.0223 -0.1522
 3029W        W18838   6.581  15.031   2.382  0.1448  0.2582 -0.0419
 3030W        W18839   2.475  11.895   4.133  0.2434  0.0455 -0.0398
 3031W        W18840   9.964   1.968  13.553  0.5119 -0.2867  0.2551
 3032W        W18841  12.879  18.378  12.666  0.0726 -0.1305 -0.1086
 3033W        W18842  17.140   0.685   2.989  0.0394  0.2107 -0.1403
 3034W        W18843   0.520   1.619   2.529 -0.0289  0.2787  0.0756
 3035W        W18844  11.937   1.528   1.038  0.3646 -0.0168  0.2912
 3036W        W18845  11.344  14.184  11.383 -0.2230  0.2125  0.1430
 3037W        W18846  11.604   5.364   2.919  0.1869 -0.1106 -0.0263
 3038W        W18847  13.131   5.638   3.005 -0.3867 -0.2557  0.3141
 3039W        W18848   5.015   1.590   9.898  0.0522  0.3815  0.1470
 3040W        W18849  10.142   8.245  11.736  0.0436 -0.1678 -0.0253
 3041W        W18850   0.139  14.369   0.762  0.2324  0.1694 -0.0157
 3042W        W18851  14.333   7.444  13.520  0.1449  0.1529  0.1735
 3043W        W18852  11.058   1.572   4.238  0.0572 -0.1054  0.1576
 3044W        W18853  15.419   0.063   4.848 -0.0884  0.1324  0.1134
 3045W        W18854   8.546  12.314   1.227 -0.0416 -0.0664 -0.1134
 3046W        W18855   7.442  17.527  14.830 -0.0188  0.5849 -0.5889
 3047W        W18856  11.878   5.262   4.245  0.0565  0.0395  0.1376
 3048W        W18857  18.086  13.553   3.768  0.2341  0.2645  0.0265
 3049W        W18858   3.614  15.352  12.236 -0.2881 -0.3743 -0.0888
 3050W        W18859  17.264   5.743  14.793 -0.4960 -0.2267 -0.1392
 3051W        W18860  16.655  10.166   1.375 -0.4343 -0.0544 -0.2218
 3052W        W18861  11.259  14.387   3.572 -0.0175  0.4251  0.1284
 3053W        W18862  12.022   8.738   1.393  0.3052 -0.3847  0.0350
 3054W        W18863   2.134  16.777  14.758 -0.1366  0.0933  0.2015
 3055W        W18864   8.898  15.043   0.485 -0.1590 -0.1379  0.1082
 3056W        W18865  10.844   8.332  11.806 -0.0099 -0.2871 -0.0510
 3057W        W18866   8.152   3.160   2.828 -0.0026  0.1362 -0.0416
 3058W        W18867   0.097  11.807  11.497  0.3903  0.0955 -0.3880
 3059W        W18868   9.438   6.466   2.755 -0.1126  0.1380 -0.2020
 3060W        W18869  12.692  12.431   2.634 -0.2110 -0.1538 -0.1981
 3061W        W18870  17.377   6.097  13.956 -0.2270 -0.1048 -0.0465
 3062W        W18871   3.859  15.455   0.612  0.3239  0.3009  0.1178
 3063W        W18872  15.495   9.469  13.452 -0.0236  0.2976 -0.3029
 3064W        W18873   0.411  15.586   2.097 -0.0582  0.1084  0.4161
 3065W        W18874   9.724   0.643   3.312  0.0735  0.4221  0.3455
 3066W        W18875   2.374   2.422  10.931  0.1311  0.0609 -0.0539
 3067W        W18876   0.264  18.583  10.520  0.0279 -0.0305  0.0362
 3068W        W18877   5.429   4.406   1.884  0.2386 -0.0185  0.0051
 3069W        W18878   5.106  16.805   9.849 -0.1658 -0.1558  0.0919
 3070W        W18879  15.281  19.042  12.516 -0.0730 -0.1687  0.0319
 3071W        W18880  19.134   4.689   4.090 -0.0232 -0.0205 -0.1559
 3072W        W18881  17.994  10.030   2.381 -0.4482 -0.1204 -0.0612
 3073W        W18882   3.884   5.876   2.456  0.2784 -0.3229  0.0294
 3074W        W18883   6.249   6.740  13.914 -0.2833 -0.1159 -0.0305
 3075W        W18884  11.706   2.137   0.368  0.1718  0.0588 -0.4372
 3076W        W18885   4.130   1.061   1.561 -0.0952  0.0634  0.1086
 3077W        W18886   7.917  17.048  10.776  0.0910  0.0226  0.0116
 3078W        W18887   1.028  16.959   4.145 -0.0468  0.1480 -0.0518
 3079W        W18888  14.477   8.136   5.192  0.1526  0.2403 -0.1106
 3080W        W18889   9.747   4.633  12.789 -0.3686 -0.2864  0.1508
 3081W        W18890   9.705   6.766  12.380 -0.1744 -0.2611 -0.0648
 3082W        W18891  16.004  18.612   3.540  0.1277 -0.1924 -0.0381
 3083W        W18892  15.662   7.843  14.594  0.0471  0.1747 -0.0431
 3084W        W18893  14.640   6.401  12.639  0.3161 -0.1220 -0.1050
 3085W        W18894  11.325  19.087   2.316 -0.0020 -0.1848  0.1075
 3086W        W18895   6.081   8.496  14.731  0.1593  0.1472  0.1786
 3087W        W18896  14.249   5.659   9.652  0.3915  0.0819 -0.0760
 3088W        W18897   9.724  13.641  12.136 -0.0929 -0.0726  0.1572
 3089W        W18898   6.613  14.713  14.117 -0.1398 -0.0461 -0.1810
 3090W        W18899   9.647  12.752   0.512  0.3384  0.0748  0.2945
 3091W        W18900  17.170   9.465   0.350  0.2055 -0.3110 -0.2565
 3092W        W18901   5.546  14.934  10.326  0.1342  0.0625 -0.0401
 3093W        W18902   8.905  18.898  11.488 -0.2468  0.0111 -0.0827
 3094W        W18903  12.311   5.410  13.160  0.1114 -0.2059  0.2931
 3095W        W18904   0.370   9.451  12.713 -0.0702  0.2972  0.1663
 3096W        W18905  15.100  18.732   2.918 -0.0239 -0.2191  0.0896
 3097W        W18906  15.459   5.890   2.141 -0.0869  0.3505  0.2024
 3098W        W18907  11.979  16.584   5.215  0.0064 -0.1809  0.0551
 3099W        W18908   8.847  13.790   1.427 -0.1925  0.1393 -0.2150
 3100W        W18909  18.860  15.706   1.533 -0.1781 -0.0502 -0.1269
 3101W        W18910   3.448   7.519  11.378  0.2258 -0.0415  0.3864
 3102W        W18911  16.774   5.001  14.275  0.1608  0.1656  0.1392
 3103W        W18912  11.447   0.100   5.658 -0.2290 -0.2777 -0.0274
 3104W        W18913   9.426  12.645   3.705 -0.0806  0.0754 -0.2530
 3105W        W18914   8.887  15.253  12.861 -0.1378  0.0284 -0.0663
 3106W        W18915   2.915   0.269   2.712  0.4394  0.1332  0.4640
 3107W        W18916   7.073   6.747  11.040 -0.4246 -0.2079 -0.0564
 3108W        W18917   1.222   6.585  12.628 -0.0960  0.2590 -0.2042
 3109W        W18918  12.028   7.992   4.909  0.3299 -0.0616  0.0680
 3110W        W18919   4.269   2.309   3.166  0.0095  0.2410  0.1433
 3111W        W18920   3.473  15.910   1.786  0.1880 -0.1843  0.1968
 3112W        W18921  15.006   1.672  14.735  0.0655 -0.3571 -0.0132
 3113W        W18922   4.967   3.241   2.705 -0.3869 -0.0573 -0.0729
 3114W        W18923   7.343  14.738  10.024  0.2350  0.1491  0.2459
 3115W        W18924   4.663   0.716  14.550 -0.2571 -0.4091  0.0043
 3116W        W18925   7.652   3.954   3.598  0.1568 -0.1182 -0.1670
 3117W        W18926   4.858  14.687   3.468  0.2559  0.2270  0.1814
 3118W        W18927  17.937   4.423   0.219  0.1192  0.1269 -0.0286
 3119W        W18928   8.155   7.399  13.872  0.2637 -0.3086  0.2575
 3120W        W18929   6.437   8.147  14.015  0.1346 -0.2777 -0.0394
 3121W        W18930  15.398  13.094  11.150 -0.2382  0.0888  0.2170
 3122W        W18931  15.498  12.502   1.649  0.0678  0.1353 -0.2141
 3123W        W18932   3.411  12.607   6.094 -0.0591  0.0509 -0.0212
 3124W        W18933   2.228  11.446  12.364  0.0734 -0.0424 -0.3641
 3125W        W18934   7.774   1.090   2.650  0.0759 -0.0497 -0.3035
 3126W        W18935   7.792   7.935   5.536 -0.2677  0.1157 -0.0566
 3127W        W18936   2.582  12.118   4.607 -0.3948 -0.3180  0.1906
 3128W        W18937   5.208  13.619   3.678 -0.0303 -0.0880 -0.2039
 3129W        W18938   4.517   1.877  13.490 -0.0315 -0.3035  0.2797
 3130W        W18939   7.426  14.215  11.317 -0.2349 -0.1302  0.0198
 3131W        W18940  12.868  18.891  11.553 -0.0269 -0.2088 -0.1188
 3132W        W18941   8.824  17.833  12.362  0.0794 -0.2971  0.0377
 3133W        W18942   5.547   9.015   2.702  0.0133  0.0129  0.1679
 3134W        W18943   6.670  18.429  13.152  0.0255  0.3116  0.2219
 3135W        W18944   6.122   2.731  11.259 -0.2370  0.2265 -0.0232
 3136W        W18945  10.174   4.588  11.699  0.2852  0.0257  0.0053
 3137W        W18946  11.905   9.039   0.939 -0.1109  0.1912  0.4126
 3138W        W18947  14.334  15.207  13.569  0.0234 -0.1071 -0.0649
 3139W        W18948  12.690  16.430   5.073  0.3919  0.1217  0.3507
 3140W        W18949   1.678   2.406   1.883 -0.0848  0.1892 -0.1740
 3141W        W18950  12.674  14.124  11.512 -0.1294 -0.0914 -0.0782
 3142W        W18951   7.069  13.851   9.496  0.0205 -0.0521  0.1428
 3143W        W18952   5.419  13.516   0.933  0.1346 -0.2798  0.0653
 3144W        W18953  12.900  10.696   1.806 -0.3734 -0.4088  0.0798
 3145W        W18954   3.616   1.048  13.255  0.0424 -0.1376  0.2146
 3146W        W18955   0.439  18.648   0.095 -0.2509 -0.1067 -0.2219
 3147W        W18956  17.127   8.031  11.053  0.2942  0.0196  0.3439
 3148W        W18957   3.053  11.956  13.273  0.1364  0.1933  0.2366
 3149W        W18958   8.006  18.365   3.868  0.1137  0.1391  0.0833
 3150W        W18959  13.294  13.300   4.749  0.0701  0.0919  0.1295
 3151W        W18960  10.404  15.367   0.345  0.2713 -0.1540 -0.4229
 3152W        W18961   4.115   7.519   3.227 -0.1998  0.0500 -0.4799
 3153W        W18962   8.908  12.709   3.536 -0.0603 -0.1607 -0.0107
 3154W        W18963   7.692   2.248   2.724  0.1460  0.0422  0.2060
 3155W        W18964  14.622  13.123  13.603 -0.0645 -0.1272  0.1872
 3156W        W18965  10.893  14.421  11.342  0.1168  0.3712  0.2999
 3157W        W18966  11.839  18.462  13.186  0.2626 -0.2751 -0.1249
 3158W        W18967  18.531   7.693  15.106 -0.1299  0.2222 -0.2047
 3159W        W18968  10.441   7.351   0.089 -0.0503 -0.1087  0.1821
 3160W        W18969   6.195   3.275   3.579 -0.0965 -0.2568  0.1835
 3161W        W18970   2.228  14.464   1.706  0.5576  0.0112  0.0972
 3162W        W18971  17.375  13.790  15.024 -0.0501  0.1342 -0.3990
 3163W        W18972  15.677   4.817   2.045  0.4592  0.0605  0.4023
 3164W        W18973   1.635  15.149   4.237  0.3357 -0.2030 -0.0271
 3165W        W18974   0.759  12.928   2.132  0.0766  0.1736  0.0894
 3166W        W18975   3.993   9.949   4.869  0.0984 -0.0368  0.2382
 3167W        W18976  12.911   2.325   3.833  0.5869  0.0799  0.0386
 3168W        W18977  11.260   4.657  11.584  0.0148 -0.0968  0.1631
 3169W        W18978   9.652   1.658  11.679  0.0606  0.1689 -0.0113
 3170W        W18979   9.337  12.778  10.689  0.0601  0.0189  0.1505
 3171W        W18980   9.991   6.948   2.635  0.0462  0.2043 -0.0725
 3172W        W18981   6.355   1.785   2.303  0.0182  0.1195  0.2959
 3173W        W18982   4.537  12.695   5.462  0.2732  0.0792  0.2376
 3174W        W18983   5.548   0.210  11.835 -0.2848 -0.0063  0.0652
 3175W        W18984  11.695   3.622   2.969  0.1214  0.1462  0.2734
 3176W        W18985   8.742   7.157   1.425 -0.1485 -0.0074  0.0731
 3177W        W18986   5.586  17.197   2.622 -0.0338 -0.2301  0.0296
 3178W        W18987  11.937   9.109   3.576  0.3102 -0.3619  0.3254
 3179W        W18988   4.418   0.075  11.567 -0.2240  0.1833  0.1401
 3180W        W18989  10.052  18.664   4.726  0.1920 -0.0922 -0.0589
 3181W        W18990  13.661   8.606   4.100 -0.3583 -0.1660 -0.2220
 3182W        W18991  16.158   0.749  13.662 -0.0068  0.0780 -0.0571
 3183W        W18992  12.548   7.082  10.047  0.0895  0.2021 -0.2153
 3184W        W18993   2.136  11.559   4.511  0.3603  0.1783 -0.0180
 3185W        W18994   9.362   3.616   2.298 -0.1592 -0.1316  0.5731
 3186W        W18995  13.056  12.740   0.329 -0.1855 -0.0956  0.1113
 3187W        W18996  13.492   3.857   3.645  0.0279 -0.0178  0.2206
 3188W        W18997   9.526   6.729   3.684  0.1006  0.2716  0.5629
 3189W        W18998   7.791   4.954   3.529  0.0592  0.0599 -0.0292
 3190W        W18999  10.569  14.608   4.599 -0.2694  0.0833  0.2127
 3191W        W19000   4.873   3.685   2.959 -0.3138 -0.0434  0.0710
 3192W        W19001  14.032   8.769   3.303  0.0022  0.0109 -0.0450
 3193W        W19002  11.113   6.430   4.044 -0.1826  0.2909 -0.0270
 3194W        W19003   8.145   0.130  11.442  0.0986  0.3971  0.1575
 3195W        W19004  18.571   5.793   1.549 -0.0120 -0.1305  0.2589
 3196W        W19005   9.020   4.951  13.767 -0.0548 -0.1136 -0.1039
 3197W        W19006  15.348   8.137   3.475 -0.1777 -0.0630  0.1485
 3198W        W19007   5.335  17.998  14.628  0.3931  0.0392  0.2164
 3199W        W19008   2.193   5.527   1.979  0.4108  0.1888  0.0938
 3200W        W19009   7.405   7.984   1.788 -0.2432 -0.1594  0.1858
 3201W        W19010  13.876   6.447   9.717 -0.3038  0.1510  0.0729
 3202W        W19011  11.431   0.263  12.418  0.0857 -0.1265  0.1641
 3203W        W19012   1.311  18.676   0.953 -0.0072 -0.1886 -0.2267
 3204W        W19013   4.719  13.513   0.149 -0.0926  0.1731  0.0588
 3205W        W19014  16.448   6.799   0.407  0.0501  0.2845  0.1589
 3206W        W19015  11.374   7.144  11.201  0.0163  0.2205 -0.1700
 3207W        W19016  14.044  11.564   4.952  0.0391  0.2452  0.4205
 3208W        W19017   8.991   9.308  11.923  0.5492  0.4286  0.0075
 3209W        W19018  15.872   7.623  10.250 -0.0322 -0.0814  0.1574
 3210W        W19019  13.070   1.812   0.557 -0.3574 -0.0020  0.0742
 3211W        W19020  17.648   0.691   4.508  0.0512  0.1080 -0.0843
 3212W        W19021  16.057   3.908   4.105  0.2036  0.1609 -0.1103
 3213W        W19022  18.843  12.036  14.000 -0.1879 -0.3101 -0.0075
 3214W        W19023  13.710  16.969   0.117  0.0771 -0.0297  0.3104
 3215W        W19024  16.344   3.846   2.093 -0.1130  0.5026 -0.1873
 3216W        W19025  17.209   0.354  10.751 -0.5329  0.0762  0.3254
 3217W        W19026  12.437   5.354   1.725 -0.0725  0.2951 -0.1784
 3218W        W19027  17.328   6.343   2.565  0.1113  0.2959 -0.1211
 3219W        W19028  10.542  18.976   3.797 -0.1406  0.1589 -0.0912
 3220W        W19029  11.453   7.592  11.493 -0.0368 -0.1086  0.3723
 3221W        W19030  17.308  16.212  12.265 -0.2120 -0.0570 -0.0934
 3222W        W19031   7.335  12.352   4.627  0.0045  0.2143  0.0101
 3223W        W19032  16.449   5.832  14.208 -0.1669 -0.3333 -0.3378
 3224W        W19033  10.531  11.680   3.774  0.1664 -0.0003  0.3524
 3225W        W19034   5.342   9.348   0.989 -0.0966  0.2972  0.0653
 3226W        W19035  10.983   9.662  11.334  0.0317 -0.4263 -0.0455
 3227W        W19036  12.864  13.171   5.790  0.1292  0.0078  0.0524
 3228W        W19037   5.352   6.838   5.945  0.1086  0.1304 -0.1131
 3229W        W19038   8.749   4.672  12.655 -0.2623 -0.0227 -0.0044
 3230W        W19039  18.705  17.698  13.586 -0.2764 -0.1102  0.0451
 3231W        W19040   0.759  18.670   2.903 -0.1969  0.0247 -0.1106
 3232W        W19041  15.926  16.945   5.130 -0.0393  0.1886  0.0205
 3233W        W19042  14.240   6.493   3.867  0.1693 -0.4437  0.2688
 3234W        W19043  11.950   1.384  10.947 -0.0535  0.0651  0.0039
 3235W        W19044  12.079  11.859   0.183 -0.3515 -0.0026 -0.0395
 3236W        W19045   9.292   7.341  14.540 -0.3089  0.1537 -0.6265
 3237W        W19046   2.234   4.924   9.567  0.1301  0.0496  0.3347
 3238W        W19047  17.223   3.744  14.853  0.2681  0.0155 -0.2882
 3239W        W19048  16.386   7.947   4.798 -0.3981 -0.2369 -0.3241
 3240W        W19049  14.422   7.842  11.714  0.0184  0.1494 -0.0539
 3241W        W19050   5.029  13.020  12.322  0.0267  0.0575 -0.2826
 3242W        W19051  15.808   4.396  11.429 -0.0620 -0.2328  0.2044
 3243W        W19052   1.730  14.238   4.104  0.2504 -0.0195 -0.0160
 3244W        W19053  11.553   1.338   0.828 -0.0963 -0.1644  0.1986
 3245W        W19054   9.335  11.520   9.233  0.3095 -0.1052  0.1788
 3246W        W19055   8.558   0.686   2.724  0.4643 -0.1191  0.0634
 3247W        W19056  10.959  13.607  10.745 -0.1381  0.0705 -0.0648
 3248W        W19057   7.739   5.341   1.162 -0.2506 -0.1713 -0.2886
 3249W        W19058  15.002  17.301  13.061 -0.3728  0.0163 -0.1148
 3250W        W19059   7.850  16.741  15.210  0.0577  0.2540 -0.3163
 3251W        W19060   9.260  14.600  10.538  0.1587  0.2794 -0.0154
 3252W        W19061   6.734   2.188   3.567  0.1526  0.1761  0.1019
 3253W        W19062   5.569  12.725  14.709  0.1190  0.0178 -0.0015
 3254W        W19063  17.464   7.938  13.786 -0.0772  0.0801  0.1740
 3255W        W19064   7.042   1.397   1.757 -0.1132  0.2755  0.0948
 3256W        W19065  12.177   0.875   0.816  0.2015 -0.2006  0.0086
 3257W        W19066   6.211   7.546  12.861  0.3220 -0.1273  0.0095
 3258W        W19067   9.074  11.178  11.944 -0.1564  0.0852 -0.3439
 3259W        W19068   6.162  16.315  11.784 -0.0465 -0.2328  0.3016
 3260W        W19069   5.220   8.049   1.504 -0.0703  0.1161 -0.3505
 3261W        W19070   7.813  16.709   3.070 -0.2552 -0.3399 -0.0979
 3262W        W19071  10.611  13.181  12.887  0.0848  0.0384  0.1564
 3263W        W19072  18.225  11.964   5.715  0.0599  0.0896 -0.1181
 3264W        W19073   0.853   7.259   2.330 -0.0231 -0.0654 -0.1320
 3265W        W19074   5.671  13.872  11.606 -0.0723 -0.1254  0.0327
 3266W        W19075   5.753   5.666   0.182 -0.0863  0.2636 -0.2821
 3267W        W19076  13.795   2.340   5.843  0.0453 -0.3623  0.2114
 3268W        W19077  18.567   4.257   2.041  0.3740 -0.0776  0.0952
 3269W        W19078   6.622   7.425   2.204  0.3312 -0.2886 -0.0792
 3270W        W19079  16.443   5.514  14.663  0.0318  0.1740 -0.3575
 3271W        W19080   0.416   8.898   2.904  0.0898  0.0348 -0.1078
 3272W        W19081   5.897   7.444   9.711  0.1417  0.2996  0.1424
 3273W        W19082  13.794   0.041   0.669 -0.2530  0.1740 -0.0274
 3274W        W19083   5.773   6.623   5.470  0.2600  0.0318  0.1443
 3275W        W19084  12.152   6.629   4.484  0.1502 -0.2318 -0.0624
 3276W        W19085  17.872  17.771  13.131 -0.3951  0.0446 -0.0407
 3277W        W19086   4.882  16.160   1.609  0.1357  0.1363  0.0463
 3278W        W19087  15.248  16.864   4.049  0.0446 -0.2848 -0.1124
 3279W        W19088  10.980   6.630  13.358 -0.1772 -0.0099 -0.0721
 3280W        W19089   1.606   9.242  14.869  0.0548  0.2120 -0.0221
 3281W        W19090   8.880   9.201   1.545  0.2048 -0.0529  0.1161
 3282W        W19091   8.755  14.346   0.990  0.1349  0.1036  0.1850
 3283W        W19092  11.743  16.538   2.081  0.0445  0.1651  0.0647
 3284W        W19093   5.276  10.612  14.685  0.1624 -0.0950 -0.2888
 3285W        W19094   5.517  13.143  12.143  0.1467  0.0884 -0.0794
 3286W        W19095  17.192   0.722  13.810  0.0235  0.1069 -0.0744
 3287W        W19096  10.063  17.623   4.737 -0.1145  0.1195 -0.3163
 3288W        W19097   7.901   6.286  12.517  0.5587 -0.0684  0.4804
 3289W        W19098   0.544   9.346   3.224 -0.1360 -0.0656  0.0307
 3290W        W19099  12.485   2.713  15.116  0.3694 -0.0681  0.5200
 3291W        W19100   7.201   3.375   4.905 -0.3399 -0.0850  0.2688
 3292W        W19101  16.615  12.876  10.020  0.1249  0.1352  0.0833
 3293W        W19102   3.548  13.624  12.929  0.0747  0.4009 -0.2225
 3294W        W19103  10.536  17.743  13.327  0.1211 -0.2730 -0.0796
 3295W        W19104   7.011   3.801   3.979 -0.3526 -0.1904  0.4451
 3296W        W19105  13.732   5.152   3.738  0.2642  0.3114 -0.2027
 3297W        W19106  12.270  12.462  11.765 -0.2597  0.3569 -0.2160
 3298W        W19107   9.743  10.821  14.380 -0.0733  0.0371  0.1826
 3299W        W19108   7.556  11.182  15.071 -0.0161  0.0455 -0.1351
 3300W        W19109   3.294  12.363  11.124 -0.0993 -0.0192 -0.5322
 3301W        W19110   8.554   6.439  12.335 -0.3680  0.0302 -0.2360
 3302W        W19111  15.658  14.214  12.314  0.0597  0.3727 -0.0928
 3303W        W19112   3.795  12.641   1.529  0.0205  0.4477 -0.0620
 3304W        W19113  17.047  10.217  14.003  0.2541  0.3196  0.1524
 3305W        W19114   3.290   9.745   2.527  0.0937 -0.2779 -0.0804
 3306W        W19115  15.890   9.245   3.822  0.2640 -0.0269 -0.0370
 3307W        W19116  16.001   2.220   5.443  0.2208  0.0403 -0.0938
 3308W        W19117  11.892   3.936   2.583 -0.2357 -0.0913  0.3027
 3309W        W19118   5.858   2.540  13.616  0.2286  0.0261 -0.5493
 3310W        W19119  12.484   5.308  14.631  0.0654 -0.1680 -0.2084
 3311W        W19120  15.471  13.436   4.911  0.2405  0.2687  0.4038
 3312W        W19121   7.667  16.520  13.087 -0.2921 -0.0574  0.0188
 3313W        W19122  11.671   8.913  12.697  0.1531  0.1785  0.3869
 3314W        W19123   1.215   0.228   5.000  0.0806 -0.0085  0.1698
 3315W        W19124  12.457   0.453   1.763  0.0450  0.2349  0.2412
 3316W        W19125   8.961  13.497  11.367  0.0650  0.0466 -0.0650
 3317W        W19126  15.115  16.742  12.221  0.4081  0.1679 -0.1318
 3318W        W19127  14.268   5.891   3.639 -0.1388  0.0513 -0.0212
 3319W        W19128   6.379  18.908   3.339  0.2604  0.0956  0.1084
 3320W        W19129  10.189   6.946  10.973  0.0967  0.2068 -0.3308
 3321W        W19130  15.447   7.396   9.717  0.3184 -0.0395  0.2566
 3322W        W19131   7.729  10.541  14.089  0.1022 -0.3728 -0.1898
 3323W        W19132  13.002   0.807   2.692 -0.2632  0.1860  0.2118
 3324W        W19133  15.859   6.371   5.002  0.1258  0.0456 -0.1093
 3325W        W19134  10.472   6.285  10.311 -0.0652 -0.2748  0.1477
 3326W        W19135  16.939  17.406  12.036  0.1965 -0.2837 -0.1260
 3327W        W19136  13.270   1.771  10.860  0.1583  0.2038  0.0018
 3328W        W19137   5.432   1.254  12.728  0.1195  0.0232 -0.1702
 3329W        W19138   7.085   2.441   0.993 -0.1200 -0.3744 -0.1857
 3330W        W19139  13.016  13.583   3.285  0.3014 -0.1389  0.4004
 3331W        W19140   7.432  11.425   5.545  0.0464 -0.1691  0.0731
 3332W        W19141  16.349   0.033   4.954  0.0677 -0.0368 -0.1044
 3333W        W19142  11.990   1.533   4.622 -0.3123 -0.2626 -0.1028
 3334W        W19143   9.743   5.502  12.264  0.1838  0.3254 -0.1061
 3335W        W19144  13.619   8.140  11.581 -0.2300  0.1174 -0.2971
 3336W        W19145   0.203  14.724  10.456  0.1902 -0.2576 -0.1859
 3337W        W19146  14.734  15.533  14.420  0.3134  0.1620 -0.2736
 3338W        W19147  10.482   0.015  12.379 -0.2208 -0.0303 -0.3005
 3339W        W19148   8.757  11.919  14.631 -0.4160 -0.2388  0.0253
 3340W        W19149  15.047  13.119   4.647 -0.1679  0.1524 -0.1773
 3341W        W19150   0.879   0.194  10.251 -0.0155  0.3289 -0.0182
 3342W        W19151   5.216   0.548   4.323  0.2263 -0.4434 -0.0553
 3343W        W19152   4.973   2.694   0.265  0.5216  0.3504 -0.1772
 3344W        W19153  14.646  13.560   0.163 -0.0195 -0.0305  0.2326
 3345W        W19154   6.555   6.152  14.982  0.0676  0.0542  0.0764
 3346W        W19155   4.973   2.090   5.343  0.1132  0.5370 -0.1257
 3347W        W19156   3.988   4.963  13.390 -0.5608 -0.0175 -0.2456
 3348W        W19157  10.297  16.563  13.259  0.0061  0.2022 -0.1060
 3349W        W19158   3.493  10.820   5.139  0.2432  0.2195  0.0801
 3350W        W19159  10.619   6.024   2.401  0.2098 -0.0302  0.1190
 3351W        W19160   1.876  12.760   2.848 -0.1120  0.0812 -0.0423
 3352W        W19161  16.825   9.322   1.252  0.0045  0.0363 -0.0149
 3353W        W19162   1.481  10.581  12.419  0.1018  0.0880  0.3101
 3354W        W19163  14.386  12.896  11.266 -0.0254 -0.1568 -0.2585
 3355W        W19164  11.192   0.508   4.719 -0.1929 -0.2510  0.2444
 3356W        W19165   1.909   1.283   1.251 -0.1538 -0.1126 -0.0819
 3357W        W19166  10.290   1.817   9.317 -0.1074  0.3343  0.4486
 3358W        W19167  14.344   1.111   2.143  0.0590  0.1157  0.0563
 3359W        W19168   8.792  17.223  12.699  0.0809 -0.0787 -0.0101
 3360W        W19169   4.510   2.738  11.702  0.0016 -0.0103  0.1354
 3361W        W19170  10.048   5.270  13.540 -0.2246 -0.1580 -0.0211
 3362W        W19171   8.598  14.407  13.611  0.0790 -0.4594  0.2719
 3363W        W19172   6.499  18.643  14.870 -0.0050  0.0377 -0.0869
 3364W        W19173  15.956   7.375  10.733 -0.1481  0.4203  0.0618
 3365W        W19174   3.792  18.037  13.010 -0.1951  0.1048  0.0034
 3366W        W19175  10.993  10.366   1.008 -0.1665 -0.1856  0.0399
 3367W        W19176  10.374   9.680   1.795 -0.2900  0.0082  0.0539
 3368W        W19177  17.312  10.924  12.200  0.2294  0.0257  0.0202
 3369W        W19178  11.348   9.144  13.054 -0.0143  0.3103  0.1117
 3370W        W19179  12.317  16.319   1.761  0.0032  0.3295 -0.1925
 3371W        W19180   1.168  14.886   3.116  0.0865 -0.2506  0.1553
 3372W        W19181   8.709   3.097   9.945 -0.2239 -0.3004 -0.2417
 3373W        W19182  15.980  13.887   4.673 -0.0136  0.3163 -0.0853
 3374W        W19183  16.603  16.475  11.156  0.2704 -0.1412  0.1278
 3375W        W19184   2.738   5.873   3.502  0.1308 -0.0168 -0.2161
 3376W        W19185  18.409   1.503   1.504 -0.1034  0.0765 -0.3437
 3377W        W19186  17.513   9.505  13.596  0.0053  0.1212  0.0460
 3378W        W19187  10.259  11.842   1.925  0.2517  0.2969 -0.0661
 3379W        W19188   2.605   4.007   4.219  0.0947 -0.1248 -0.0074
 3380W        W19189  10.084   7.252   0.916  0.1984 -0.0341  0.0952
 3381W        W19190   9.736   8.978  11.660  0.2905  0.1031  0.2029
 3382W        W19191   6.846  18.706   2.548  0.0737  0.2438  0.2106
 3383W        W19192   3.590   3.094  15.186 -0.1599  0.2267 -0.0711
 3384W        W19193  14.082  16.141  12.449 -0.0878  0.1455  0.3870
 3385W        W19194   7.363   3.857  12.344 -0.0620 -0.3341 -0.0953
 3386W        W19195  14.330  18.782  13.559 -0.3487  0.2352  0.0625
 3387W        W19196   1.916  18.919   4.523 -0.2855  0.2103  0.0377
 3388W        W19197   7.283  15.056   0.775 -0.2242 -0.1351 -0.2530
 3389W        W19198   8.344   2.611  11.993  0.1413 -0.1221 -0.1429
 3390W        W19199   1.694  10.356   0.058 -0.0686 -0.2853 -0.0142
 3391W        W19200   6.868  10.738   5.392  0.1191  0.0168 -0.0418
 3392W        W19201   5.533  15.836  14.003  0.2242 -0.1227 -0.0747
 3393W        W19202   7.581   2.381  15.002  0.0464 -0.0839 -0.2552
 3394W        W19203  16.655   6.646   0.954  0.1854  0.0035 -0.0579
 3395W        W19204  18.838   1.756  13.226  0.2869 -0.2772  0.0092
 3396W        W19205  17.922  13.884  14.759  0.3748 -0.0393 -0.0163
 3397W        W19206   8.445  19.060   1.363 -0.0450  0.2225 -0.0789
 3398W        W19207  11.585  18.457   3.528 -0.3391 -0.2822  0.3264
 3399W        W19208   9.236  11.887  14.763 -0.6372 -0.0455  0.4125
 3400W        W19209   6.493  18.461  10.956  0.1996  0.0906  0.1662
 3401W        W19210   5.815   2.124   9.326  0.0964 -0.1138 -0.1198
 3402W        W19211   5.707  14.661  10.676  0.0121  0.2481  0.3132
 3403W        W19212   9.400   6.468   3.278 -0.1360  0.1436 -0.5235
 3404W        W19213   6.860  17.109   2.169 -0.0116 -0.1120  0.2756
 3405W        W19214   6.610   5.681  15.099  0.2112  0.0150  0.0629
 3406W        W19215   7.792  14.811   1.676 -0.2340  0.0737  0.0041
 3407W        W19216   0.674   9.555  14.373  0.0491 -0.0322 -0.3815
 3408W        W19217  14.114  13.586  14.983 -0.1840  0.1860 -0.0881
 3409W        W19218  17.164   8.556  11.155  0.3277 -0.1057 -0.1292
 3410W        W19219   9.404   8.323   4.899 -0.0233  0.2372 -0.0664
 3411W        W19220   1.306  18.919   1.768  0.0970  0.3566 -0.2210
 3412W        W19221   5.703   5.270   5.406 -0.4721 -0.0043  0.2866
 3413W        W19222   4.132  12.869   1.160  0.3572  0.2532  0.1517
 3414W        W19223  15.698   0.904  11.398 -0.0413 -0.1696  0.0829
 3415W        W19224   2.546   9.627  13.452 -0.0219  0.0567 -0.1199
 3416W        W19225  11.170  18.835  13.577 -0.1252  0.0913  0.0634
 3417W        W19226   0.673   4.598   0.688 -0.0429 -0.0068  0.3580
 3418W        W19227  10.856  14.326  13.437 -0.0572 -0.5102 -0.2239
 3419W        W19228   4.630  18.320  10.304  0.4764  0.0607  0.2148
 3420W        W19229   0.024  13.566  11.833  0.3257  0.1285 -0.3315
 3421W        W19230  14.188   9.220  13.271 -0.1063 -0.0779  0.1877
 3422W        W19231  12.280   8.643   5.722  0.1651 -0.1844  0.2057
 3423W        W19232  10.989   6.609   2.965  0.3313 -0.3355  0.1883
 3424W        W19233   0.663  10.542  12.756 -0.0335 -0.0472 -0.2023
 3425W        W19234   2.180   3.743  12.948 -0.2509  0.0514  0.0498
 3426W        W19235   4.887  14.646  13.373 -0.2578  0.0941  0.1108
 3427W        W19236  10.796   1.072  14.123 -0.0759  0.3975 -0.2482
 3428W        W19237  12.577   6.850  13.744  0.0824 -0.0192  0.0594
 3429W        W19238  10.985  13.659   4.347  0.0583  0.1500  0.2875
 3430W        W19239  13.385  18.295   3.894  0.0212  0.2041 -0.1147
 3431W        W19240   1.408  13.984  11.851 -0.1218 -0.1210  0.0109
 3432W        W19241  11.533  15.173   3.350  0.1535 -0.3115  0.1725
 3433W        W19242   6.595  16.717  10.246 -0.0635  0.1701 -0.0041
 3434W        W19243   3.157  10.825   4.221  0.0746 -0.1352 -0.1571
 3435W        W19244  16.244  11.393  14.020  0.2156 -0.2602 -0.1353
 3436W        W19245  14.271  13.357  12.777 -0.1236  0.1914 -0.0850
 3437W        W19246   5.292  12.597  12.058  0.1676  0.2102  0.3084
 3438W        W19247  17.474   3.326   2.554 -0.2985  0.1939 -0.0349
 3439W        W19248   9.404  11.589   0.705 -0.2749  0.0415  0.0449
 3440W        W19249   1.298  12.459   5.901 -0.0149 -0.2383  0.0249
 3441W        W19250  10.010   2.691   3.232  0.0132  0.0502 -0.2128
 3442W        W19251  14.924  17.861   0.603 -0.1034 -0.1841 -0.2928
 3443W        W19252  17.959   3.097   1.957  0.5824  0.0090  0.0724
 3444W        W19253   7.463  13.537   2.074  0.2923  0.1305 -0.0069
 3445W        W19254  17.434   5.190   3.145 -0.3705  0.3692 -0.0044
 3446W        W19255   0.192   1.844  11.882  0.1462 -0.1235 -0.2542
 3447W        W19256   4.133  13.820   3.640  0.0465 -0.0401  0.1221
 3448W        W19257   6.945  17.152   9.369 -0.0154  0.1101 -0.1153
 3449W        W19258  14.846   0.265  14.728 -0.2355 -0.1081  0.0181
 3450W        W19259  14.947  13.301   1.010 -0.0415 -0.0302 -0.1200
 3451W        W19260   6.818  15.031   3.655  0.1387  0.0155  0.0575
 3452W        W19261  17.708   4.631  11.596 -0.0896 -0.1444  0.2513
 3453W        W19262   2.960  13.841   2.743  0.0011  0.1709 -0.2163
 3454W        W19263  17.018  15.517   5.168  0.1077 -0.1304  0.4847
 3455W        W19264   3.172   2.885   2.474 -0.1877 -0.0495  0.2337
 3456W        W19265   6.868  13.898   4.585 -0.0746  0.1058  0.0645
 3457W        W19266   1.516  11.845   2.166 -0.1540  0.2893  0.1816
 3458W        W19267   6.135   6.681  13.329  0.1399  0.1018 -0.0262
 3459W        W19268   2.880  17.994   3.413  0.1181 -0.0378 -0.0664
 3460W        W19269  11.104   1.716   4.706  0.2506 -0.0959  0.4173
 3461W        W19270   3.463   7.482  14.507  0.2410 -0.0216  0.2627
 3462W        W19271   5.021  14.681  11.795 -0.2362  0.1413  0.2161
 3463W        W19272   1.217   3.565   2.820 -0.4062 -0.2419  0.0042
 3464W        W19273  17.335   3.051  14.305 -0.2757 -0.0392  0.2488
 3465W        W19274  15.492   6.415  13.015  0.3718 -0.0836  0.1583
 3466W        W19275   4.404  12.018   2.065 -0.0878 -0.3529 -0.0571
 3467W        W19276   0.504  17.913  14.150 -0.0720  0.1743 -0.1598
 3468W        W19277   0.173  16.036  12.487  0.3112  0.1025  0.0540
 3469W        W19278  10.783  10.265   4.964  0.1176 -0.3866 -0.0291
 3470W        W19279  16.826   4.475  11.573 -0.0366  0.0419 -0.0714
 3471W        W19280  17.431  14.261   3.098 -0.0069  0.2656  0.1973
 3472W        W19281   9.311   8.804   4.994 -0.1224  0.5169  0.0216
 3473W        W19282  18.383  11.168   0.152  0.1130 -0.2964  0.0793
 3474W        W19283  12.304  15.727  13.303 -0.0769  0.1934  0.0641
 3475W        W19284   4.464  12.270   0.626 -0.7614 -0.1607 -0.3795
 3476W        W19285   2.688   5.642  10.097  0.0964 -0.1445  0.1368
 3477W        W19286  15.917  10.792  13.826  0.0441  0.0242 -0.0885
 3478W        W19287   6.071   2.310  13.180 -0.0172  0.1826 -0.0358
 3479W        W19288   7.225   7.567  11.268 -0.0459 -0.0038 -0.0930
 3480W        W19289   8.955   8.962  14.483  0.3915  0.3569 -0.0541
 3481W        W19290   4.444   3.797  12.242 -0.0018  0.0823 -0.0187
 3482W        W19291  17.847   3.131   3.772  0.3651  0.0696  0.2422
 3483W        W19292   1.738  16.280  13.119 -0.0636 -0.3218 -0.2173
 3484W        W19293   9.333   8.684   0.242 -0.1580  0.0677  0.0632
 3485W        W19294   4.367   3.683  10.629  0.1774  0.0022  0.3466
 3486W        W19295   8.968  14.755  11.992  0.0174  0.0379 -0.2142
 3487W        W19296  10.612   2.176   0.171 -0.0362  0.2425 -0.1866
 3488W        W19297   8.197   3.916   3.482  0.2357 -0.3707  0.2961
 3489W        W19298   4.003  10.682  14.218  0.2608 -0.1720  0.1356
 3490W        W19299  18.459  11.314   1.435 -0.1984  0.1301  0.1891
 3491W        W19300  15.118  13.919   4.881 -0.0256  0.1976  0.3329
 3492W        W19301  10.313   3.100  10.771 -0.3488 -0.0647 -0.2114
 3493W        W19302  11.439   6.671  12.030 -0.0890  0.3552  0.3432
 3494W        W19303  12.818   9.234  10.826  0.4274  0.0479  0.1142
 3495W        W19304   6.656   4.457  10.199 -0.1652  0.4294 -0.1145
 3496W        W19305   3.062  13.915   0.140  0.1029 -0.1007  0.5701
 3497W        W19306  16.108  13.933   0.332  0.0767  0.4243  0.0549
 3498W        W19307  18.473  18.246  10.666  0.0895 -0.0082  0.0807
 3499W        W19308  18.859   8.348   3.757  0.1029  0.0007  0.2438
 3500W        W19309   9.491  13.614  14.479 -0.0440  0.0633 -0.0008
 3501W        W19310   5.761  12.611  13.150 -0.1245 -0.3208  0.0038
 3502W        W19311  12.404  10.425  10.875  0.1728 -0.0809  0.0389
 3503W        W19312   8.315   9.967   5.376 -0.1184  0.1803  0.0560
 3504W        W19313   4.619  18.631  10.836 -0.0651  0.1520  0.2442
 3505W        W19314   5.892  19.027   4.089  0.1510 -0.1186  0.2270
 3506W        W19315  17.235  18.308   4.471  0.0404 -0.4045  0.1362
 3507W        W19316  10.261  12.239   3.693  0.2157 -0.0239  0.4186
 3508W        W19317   1.764   6.924  11.218 -0.0733 -0.0870 -0.0036
 3509W        W19318  13.848  15.997  14.907  0.2219 -0.0448  0.1230
 3510W        W19319   9.611  11.289   2.872  0.0152 -0.0545 -0.0535
 3511W        W19320  15.638  10.533   1.824  0.1152  0.0957 -0.1107
 3512W        W19321  15.970   3.110  11.849 -0.0967 -0.0327 -0.2591
 3513W        W19322   7.812  12.407  13.752 -0.3990 -0.2130  0.1077
 3514W        W19323  10.113  18.335  10.269 -0.1479  0.3188 -0.1010
 3515W        W19324  18.121   5.512  12.304  0.1131 -0.1195  0.2578
 3516W        W19325   7.486   7.696   2.666 -0.0975  0.0828 -0.0558
 3517W        W19326   2.271  10.865   5.220 -0.0431  0.1928  0.0406
 3518W        W19327  17.595   0.095  12.203  0.0245  0.1964 -0.0205
 3519W        W19328  14.628   0.690  14.835 -0.0587 -0.0188  0.0773
 3520W        W19329  14.037   1.657  11.833 -0.0634  0.1757 -0.2241
 3521W        W19330   5.309   0.355   1.080  0.1362  0.0389  0.2045
 3522W        W19331  16.009   4.373  14.139  0.1718  0.0877  0.3868
 3523W        W19332   6.335   0.186  14.467 -0.0097 -0.1699  0.4287
 3524W        W19333  16.738  10.057   4.043 -0.3067 -0.1476 -0.3855
 3525W        W19334  18.437   3.401  11.505 -0.1682 -0.1267  0.1212
 3526W        W19335  12.314  11.653   2.307 -0.1869  0.2387  0.1647
 3527W        W19336   2.068   8.626  12.130 -0.3106 -0.3843  0.2262
 3528W        W19337  14.366   0.687   2.436 -0.2453 -0.1850 -0.0783
 3529W        W19338   5.393  13.914  12.251  0.4414  0.2554  0.0723
 3530W        W19339   7.820   7.693   4.708 -0.2712  0.1337 -0.3296
 3531W        W19340   8.475   1.234   1.016 -0.0827 -0.2349 -0.0531
 3532W        W19341   4.237  11.374   0.451  0.1987 -0.3622 -0.3325
 3533W        W19342  12.022   5.279  11.633  0.2146  0.0209 -0.0562
 3534W        W19343  15.082   8.342  12.732  0.1025 -0.1684 -0.1024
 3535W        W19344  12.524  12.619  10.783  0.0305 -0.0375 -0.0453
 3536W        W19345   7.302  14.362   0.247  0.0709 -0.1770  0.0298
 3537W        W19346  11.821  16.404   1.536 -0.0099 -0.0753  0.0103
 3538W        W19347   9.652  14.119  11.468 -0.0659 -0.1773  0.2806
 3539W        W19348   1.487   5.183   4.473 -0.0843  0.0026 -0.0051
 3540W        W19349   3.775   9.700   2.760  0.0548  0.2330 -0.2080
 3541W        W19350  14.351   4.802  11.210  0.2648  0.1051 -0.1273
 3542W        W19351  13.448  18.572   2.013 -0.1690 -0.1890 -0.1045
 3543W        W19352   6.376   9.444  10.961  0.0087 -0.1277 -0.0344
 3544W        W19353   1.079   3.620  14.383  0.1617  0.4917  0.0005
 3545W        W19354  17.027  11.430  11.373 -0.1523 -0.1965  0.0400
 3546W        W19355  13.306   7.376   4.468  0.0291 -0.0365 -0.3223
 3547W        W19356   8.438   7.493   0.556  0.0400 -0.0883  0.2482
 3548W        W19357   6.212  17.087  14.275 -0.0044  0.0580 -0.3545
 3549W        W19358   7.874   5.434   3.522  0.1590  0.0821 -0.3020
 3550W        W19359  18.861  13.335  15.227  0.0475  0.0146  0.2214
 3551W        W19360  18.549   5.223  12.340  0.1452  0.0866 -0.0360
 3552W        W19361  18.832   4.663   3.443 -0.0190  0.1577 -0.1145
 3553W        W19362  14.560   6.650  12.146 -0.1032  0.0466  0.1261
 3554W        W19363  14.897   1.676  10.720 -0.0670 -0.0352 -0.2516
 3555W        W19364  11.398  17.101  15.202  0.0588 -0.1426 -0.2232
 3556W        W19365  13.988  10.383  12.283 -0.1346 -0.0258 -0.4020
 3557W        W19366   8.011   9.400   4.502  0.1895 -0.1005  0.3118
 3558W        W19367   2.516   9.014   2.876  0.0504  0.2218 -0.1610
 3559W        W19368  15.170  15.401   2.722 -0.1758 -0.2552  0.0441
 3560W        W19369   4.939  11.307   5.060  0.0966 -0.2031 -0.2187
 3561W        W19370  14.451   5.629  10.849 -0.2375  0.2198  0.0045
 3562W        W19371  15.598  14.319   1.146 -0.0569  0.1586  0.0768
 3563W        W19372   8.185  17.144  14.150 -0.0360  0.1075 -0.2342
 3564W        W19373   1.887   2.369  10.801 -0.1504 -0.0596  0.0207
 3565W        W19374   7.673  11.895  12.953  0.1422  0.0168 -0.0386
 3566W        W19375   2.266   9.368   4.210 -0.2390 -0.2887  0.4206
 3567W        W19376  17.556  16.815  10.851  0.0524 -0.1428 -0.1134
 3568W        W19377  14.268   4.629  15.243 -0.1255  0.1514 -0.0400
 3569W        W19378  10.728   1.615  10.596 -0.3253 -0.0186  0.0124
 3570W        W19379  11.004  15.468  13.180 -0.0727 -0.4287 -0.0500
 3571W        W19380  13.311   2.990   3.334  0.1088  0.1289 -0.1188
 3572W        W19381   0.710   6.319   1.183 -0.0186  0.2634  0.1460
 3573W        W19382  10.913  10.813   5.578  0.0874 -0.0063  0.3162
 3574W        W19383   2.567  17.498   4.280  0.3616  0.0161 -0.1580
 3575W        W19384  15.398   6.746  14.886 -0.1091  0.1255 -0.1018
 3576W        W19385   6.115   5.790  10.938 -0.0408  0.0793 -0.0333
 3577W        W19386  16.808   6.202   9.932  0.2600  0.2659 -0.3669
 3578W        W19387  11.998   9.887  11.107 -0.1143  0.1369  0.1127
 3579W        W19388   1.565  17.172   3.930  0.2307 -0.0118 -0.1962
 3580W        W19389  16.205   5.938  11.589 -0.2088  0.1461  0.1368
 3581W        W19390   4.582  15.795   5.011 -0.0862  0.0236 -0.0981
 3582W        W19391  15.230   4.970   3.665  0.0791 -0.1221  0.1614
 3583W        W19392   5.783   8.555  13.941  0.3026  0.1510  0.0677
 3584W        W19393  10.989   3.713   0.330 -0.1294 -0.0696  0.1327
 3585W        W19394  11.370  15.024   1.824  0.0648 -0.1908  0.1675
 3586W        W19395   8.256  18.695  10.425  0.1017 -0.0264  0.0410
 3587W        W19396   2.513   3.016  11.655 -0.0687 -0.1251 -0.0007
 3588W        W19397  15.898   1.068  10.577  0.0080 -0.4119  0.0275
 3589W        W19398   6.218  18.358   1.260  0.1428 -0.0379  0.4539
 3590W        W19399  10.148  16.734   2.801 -0.2209  0.1473 -0.2265
 3591W        W19400   7.017  18.792   3.364 -0.0483  0.4131  0.1095
 3592W        W19401   8.332  15.979   4.381  0.0079  0.1045  0.1695
 3593W        W19402   2.993   0.032  11.268 -0.0329  0.1305 -0.0490
 3594W        W19403  15.566  15.935   3.764  0.0282 -0.0134  0.0015
 3595W        W19404  17.479   9.470  14.130  0.2410 -0.1626 -0.1394
 3596W        W19405   5.628  18.928   3.633 -0.1159  0.0775  0.0060
 3597W        W19406  17.721   4.974  10.043  0.0884  0.0725 -0.0327
 3598W        W19407  11.510   4.185   0.996 -0.1213 -0.2923  0.2479
 3599W        W19408   2.410   0.197  10.504 -0.2336 -0.0896  0.1241
 3600W        W19409   8.252   6.792   4.505  0.1657  0.0096  0.0286
 3601W        W19410   9.348  13.433  13.447 -0.1435  0.1968 -0.0832
 3602W        W19411   1.456  10.349   2.311  0.2848 -0.0424 -0.0878
 3603W        W19412  13.712  17.863   5.996 -0.2618 -0.0226  0.0122
 3604W        W19413   4.430  10.117  14.473  0.2025 -0.0276 -0.2571
 3605W        W19414  15.330  14.860   3.128 -0.0464  0.1663  0.1735
 3606W        W19415  18.907   4.889   1.581  0.3007  0.0227  0.2911
 3607W        W19416  13.701  10.131  11.287 -0.0034 -0.0933 -0.1219
 3608W        W19417  10.024  17.805   3.356  0.0580  0.0754 -0.1095
 3609W        W19418  18.302   8.614   4.750  0.1251  0.0390  0.0485
 3610W        W19419   6.073   8.121  13.699 -0.2038  0.0336  0.3323
 3611W        W19420   6.023  16.308   4.745  0.1604  0.0438 -0.0463
 3612W        W19421  14.766  14.309  10.972 -0.0336  0.3387  0.2109
 3613W        W19422  10.057  12.724   5.069  0.0968 -0.1769  0.2026
 3614W        W19423  12.757   5.440   4.244 -0.2059 -0.1379  0.2062
 3615W        W19424   0.454  11.092   3.172  0.0672  0.1723 -0.0739
 3616W        W19425   5.599  13.400  14.791  0.0276  0.1725 -0.1431
 3617W        W19426  11.422   5.947   4.801 -0.2418  0.1573  0.0783
 3618W        W19427   0.205  14.218   1.979 -0.0049  0.1121 -0.1491
 3619W        W19428  16.808   7.932  10.080  0.1428  0.1633  0.2182
 3620W        W19429   6.540   3.700  10.693  0.1404  0.1645 -0.1942
 3621W        W19430  10.727  18.704   1.534  0.1569 -0.2054 -0.2107
 3622W        W19431   6.697  16.320  12.254 -0.1071  0.2334  0.0132
 3623W        W19432   6.167  18.855   0.080  0.3280  0.1898 -0.0627
 3624W        W19433  10.130   0.667   2.954 -0.2343 -0.1368  0.0291
 3625W        W19434   6.335  12.195   5.007  0.4174 -0.1388 -0.0738
 3626W        W19435  13.710  11.300   4.390  0.1459  0.1014  0.1888
 3627W        W19436   9.067   4.173  13.336 -0.0865  0.0773 -0.0628
 3628W        W19437   9.555  15.114   0.939 -0.3490  0.0487 -0.1145
 3629W        W19438  14.791   9.174   0.241 -0.1710  0.0181 -0.3444
 3630W        W19439   7.321   3.443  13.733  0.0063 -0.0479  0.1736
 3631W        W19440   6.919   5.568   3.909 -0.1446 -0.2159  0.2505
 3632W        W19441   2.108   4.594   1.065 -0.0268  0.0591  0.0943
 3633W        W19442  14.707   3.126   3.115 -0.0659 -0.0952  0.2952
 3634W        W19443   9.833  11.440  10.986  0.0301 -0.0985  0.0122
 3635W        W19444   0.800   8.092   1.462 -0.0626 -0.4076 -0.1871
 3636W        W19445  17.679   2.030   2.524  0.2291  0.0758  0.0616
 3637W        W19446   9.413  18.454  15.225  0.0003  0.0906 -0.0257
 3638W        W19447  18.372   4.953  13.028  0.2193 -0.3048 -0.0249
 3639W        W19448   7.410   6.961  14.700  0.0851  0.1711 -0.0013
 3640W        W19449  12.231  10.884   1.154 -0.0307 -0.0313 -0.1473
 3641W        W19450   0.342  16.013  14.384  0.1972  0.1800 -0.0236
 3642W        W19451  14.192  11.227  11.620 -0.0803  0.2589  0.2211
 3643W        W19452   4.544  18.498   2.387  0.0332 -0.1029 -0.0669
 3644W        W19453  13.273   6.025  12.214  0.0008  0.0359  0.3185
 3645W        W19454   5.134  16.638   4.198 -0.1664  0.0028  0.0324
 3646W        W19455   5.788  10.099   1.359  0.2178  0.2309  0.1313
 3647W        W19456  17.916  11.188   0.541  0.2179 -0.1772 -0.1532
 3648W        W19457   2.149   7.920   3.888 -0.2657  0.0733  0.2376
 3649W        W19458  15.704   2.182  13.317  0.1220  0.1511 -0.2804
 3650W        W19459  13.116  16.682   0.870 -0.4615 -0.2393  0.3135
 3651W        W19460  18.476   1.657   4.441 -0.3087 -0.1215  0.1313
 3652W        W19461   0.802  17.107  12.435  0.0979 -0.2447  0.2907
 3653W        W19462   4.462  10.223  12.197 -0.0014 -0.1909 -0.0455
 3654W        W19463  12.366  14.614  12.704  0.1998  0.2264  0.0024
 3655W        W19464  10.281  13.716  15.082 -0.3638  0.2459 -0.2104
 3656W        W19465   4.225  13.305   0.909  0.0036  0.5727  0.0038
 3657W        W19466  16.711   1.492  14.139  0.0765 -0.2698  0.0804
 3658W        W19467   7.986  18.792  11.157  0.1484 -0.0105 -0.0222
 3659W        W19468   8.039  12.513   1.528 -0.5494 -0.2190 -0.0081
 3660W        W19469   0.146   2.257   4.502 -0.2042 -0.3135 -0.0129
 3661W        W19470  14.513  10.325  15.220  0.1325 -0.2923 -0.1278
 3662W        W19471   0.652  18.895  12.252 -0.4034  0.4879 -0.0319
 3663W        W19472   6.054   0.171   2.046 -0.0560 -0.0898  0.0106
 3664W        W19473   0.979   0.183   3.661  0.1509  0.0267  0.2291
 3665W        W19474   2.859  10.468   3.880  0.0433  0.0018  0.0200
 3666W        W19475   5.024   2.928  10.315  0.0446  0.1380  0.1637
 3667W        W19476   2.612   5.216   2.297  0.0736 -0.0015 -0.0978
 3668W        W19477   1.852  10.889  15.246  0.0944  0.3773  0.2467
 3669W        W19478   4.412  14.879   1.047 -0.0377  0.1290 -0.0360
 3670W        W19479  18.933  14.600   5.761 -0.0133  0.0512  0.0661
 3671W        W19480  14.441   3.668  12.378  0.0790 -0.2417  0.0292
 3672W        W19481   2.783   1.136  15.036 -0.1317  0.0556  0.4514
 3673W        W19482   0.393   0.596   0.803  0.0601  0.1955  0.2322
 3674W        W19483  17.956  12.122   1.718  0.3430 -0.0444 -0.0056
 3675W        W19484  13.797  15.991  13.078 -0.1784 -0.3416  0.0724
 3676W        W19485   5.721  17.456  15.097  0.0787 -0.0456 -0.1750
 3677W        W19486  12.131  12.178  13.294  0.0435 -0.0803 -0.0266
 3678W        W19487  11.828  15.371   1.029 -0.2649 -0.2174 -0.0818
 3679W        W19488   5.409   9.239  12.565  0.0161  0.2762  0.1472
 3680W        W19489   8.913   4.862  10.475  0.0126 -0.0686 -0.1596
 3681W        W19490  11.605   5.591   0.605  0.0323 -0.0016  0.0970
 3682W        W19491   2.333  12.632  13.070 -0.1454  0.1364 -0.1221
 3683W        W19492   0.162   3.741   2.525  0.1053  0.0769  0.2157
 3684W        W19493  16.701  10.887   3.602  0.0998  0.2412  0.1032
 3685W        W19494   1.942  10.159  12.859  0.0347 -0.0694 -0.0105
 3686W        W19495  18.615   3.602   3.172  0.0428  0.1968 -0.0305
 3687W        W19496  10.848  15.020   0.249 -0.3211 -0.0288 -0.1976
 3688W        W19497  10.256  17.375  14.169  0.0493 -0.1260 -0.0371
 3689W        W19498   9.359  13.511  13.972 -0.0893 -0.1411 -0.0482
 3690W        W19499  10.861  11.909  12.835 -0.0208  0.0890 -0.0520
 3691W        W19500   3.467  18.559  11.703  0.0085 -0.1821  0.0494
 3692W        W19501   6.332  11.350   2.791 -0.0064  0.0837 -0.0612
 3693W        W19502  14.931  14.239   1.826  0.2569  0.1668  0.2230
 3694W        W19503   5.759   1.715  10.215  0.0053  0.0457  0.0515
 3695W        W19504   0.450   9.258  14.023  0.3986 -0.3370 -0.0362
 3696W        W19505   2.631   8.517  10.891  0.1591 -0.0557 -0.2285
 3697W        W19506   0.118  14.989   4.122  0.1807  0.4514 -0.6079
 3698W        W19507   2.098   4.130   0.700 -0.1153  0.2938 -0.0789
 3699W        W19508   2.511   6.527  10.873  0.2164  0.0721  0.2605
 3700W        W19509   2.356   7.828  11.399 -0.0829 -0.2779  0.1451
 3701W        W19510  14.410  18.196   4.359  0.1836  0.0584 -0.1755
 3702W        W19511   5.798   8.278  12.849  0.0930  0.4089  0.3536
 3703W        W19512   4.492  12.095   3.556 -0.0948  0.2578  0.1375
 3704W        W19513   4.779  14.220   4.706 -0.0069 -0.1058  0.2331
 3705W        W19514   9.345   7.778  10.961 -0.3912  0.1986 -0.1841
 3706W        W19515  15.116  13.688   0.195 -0.3334  0.1084 -0.3148
 3707W        W19516   9.567  13.126   0.895 -0.2155  0.0244 -0.1313
 3708W        W19517  10.014  10.087   4.370 -0.2409  0.0145 -0.1566
 3709W        W19518   5.017  10.848   2.914  0.2113  0.2435 -0.2553
 3710W        W19519   2.394   2.619  12.281 -0.0184  0.0969 -0.1841
 3711W        W19520  13.871   3.989   0.543  0.1055 -0.0449  0.0178
 3712W        W19521   0.147   9.801  13.052  0.2797 -0.1170 -0.0260
 3713W        W19522   1.945  14.605   0.501  0.0727  0.0186 -0.1379
 3714W        W19523   5.153  18.212   0.259 -0.0697 -0.0501 -0.4229
 3715W        W19524   4.190   6.017   3.286  0.1114 -0.2170 -0.1819
 3716W        W19525  12.558   0.941   5.288 -0.0295 -0.1565 -0.3623
 3717W        W19526   6.354  16.803  10.728  0.2280  0.1321  0.0502
 3718W        W19527   2.985   3.106   0.187  0.1032  0.1006 -0.1217
 3719W        W19528   5.870  12.463   5.128 -0.3168 -0.2748 -0.1843
 3720W        W19529  11.890  11.061   0.421  0.0896  0.1781 -0.1152
 3721W        W19530   0.337   1.166  14.578  0.1307  0.0312 -0.0886
 3722W        W19531  16.733   3.761   0.145 -0.0763 -0.0342 -0.4064
 3723W        W19532  10.956   0.254  13.628  0.0525 -0.1010  0.4832
 3724W        W19533   6.125  15.076   0.743  0.1720  0.1797  0.0880
 3725W        W19534  17.799   7.311  12.052 -0.1509 -0.2387  0.1665
 3726W        W19535   6.644  10.928   2.415  0.2064 -0.2893  0.2079
 3727W        W19536   6.765   1.424  10.825  0.0887  0.0493 -0.1006
 3728W        W19537   9.742  13.871  14.931  0.0105  0.1782  0.1675
 3729W        W19538  16.899   6.457   1.349  0.3033 -0.1688  0.0554
 3730W        W19539  11.901  10.615  10.743  0.0379  0.0368  0.3640
 3731W        W19540   2.143   3.130  11.269 -0.0162  0.2032 -0.0354
 3732W        W19541   0.128   9.996  13.497 -0.0588  0.2147  0.0813
 3733W        W19542   1.437   7.755  14.565 -0.2278  0.1005 -0.2104
 3734W        W19543  16.431  18.219  11.896 -0.1383 -0.0175  0.1983
 3735W        W19544   3.813   9.560  11.487  0.0437  0.1614 -0.2187
 3736W        W19545  12.109   8.312   1.834 -0.0053  0.1134 -0.3861
 3737W        W19546  17.752  16.355  14.837 -0.0566 -0.1344 -0.1426
 3738W        W19547   4.455   2.213  14.764 -0.0744  0.0360  0.2359
 3739W        W19548  11.797  12.319  14.527  0.1165  0.0831  0.0711
 3740W        W19549   0.107  10.442   0.452  0.1677 -0.1106  0.0430
 3741W        W19550  11.305   1.454  15.099 -0.3095 -0.0911 -0.2046
 3742W        W19551   8.657   4.727   3.259  0.0846  0.0080 -0.0940
 3743W        W19552  10.566  15.755   1.119 -0.0116 -0.0975 -0.1609
 3744W        W19553  12.011   7.163   0.809 -0.0275 -0.0237  0.1572
 3745W        W19554  18.972  13.186  14.462 -0.0842 -0.4869  0.3751
 3746W        W19555   5.847  16.649   0.752 -0.0010  0.1735 -0.0775
 3747W        W19556   1.178   1.738  11.653  0.2201 -0.1836 -0.1801
 3748W        W19557  11.509   0.799   3.561 -0.0670  0.1064  0.0398
 3749W        W19558   4.513  11.791   3.004 -0.3089 -0.1590 -0.2630
 3750W        W19559   2.023  16.639   2.159 -0.2927 -0.1856 -0.0341
 3751W        W19560   6.697  18.173   0.494 -0.3324  0.3564  0.4627
 3752W        W19561  10.805  17.399  12.979  0.0640 -0.1939  0.2270
 3753W        W19562   8.718  17.547   1.212  0.0007 -0.0525  0.1822
 3754W        W19563   9.603   5.143   0.933  0.2294  0.0814  0.1312
 3755W        W19564  12.580   6.741  11.785  0.0877  0.0060  0.1502
 3756W        W19565  12.384   5.321  10.458 -0.7156  0.0317 -0.1347
 3757W        W19566  12.227   6.285   5.456  0.2009  0.0901 -0.1691
 3758W        W19567  18.825  14.630   5.172  0.2441  0.1391 -0.1371
 3759W        W19568   4.206   8.130  10.534  0.2864 -0.3025 -0.3995
 3760W        W19569  12.618  11.048   1.578 -0.2030 -0.1985 -0.2847
 3761W        W19570  15.386   8.938   5.714  0.0429 -0.0222 -0.3230
 3762W        W19571   5.616  14.342   0.421 -0.0499  0.2884 -0.3737
 3763W        W19572  17.526  13.004   0.568  0.1827 -0.1729  0.0491
 3764W        W19573  13.811   0.526  14.565 -0.0126  0.1432  0.0047
 3765W        W19574   6.118   3.038   2.265 -0.0442 -0.3971 -0.1863
 3766W        W19575  13.315   1.408   4.338  0.0655 -0.0263  0.1455
 3767W        W19576   5.949   3.974  10.861 -0.1173 -0.1694 -0.4060
 3768W        W19577  11.789   2.129  10.953 -0.1291  0.1057  0.0151
 3769W        W19578   1.747  18.349   0.986  0.1202  0.1392  0.1636
 3770W        W19579   0.427   6.521   0.239 -0.0250 -0.0622 -0.3263
 3771W        W19580   6.338  13.298  13.623 -0.3992  0.1081  0.0329
 3772W        W19581  15.508   5.835   0.653 -0.5501 -0.1575  0.1293
 3773W        W19582   5.501  13.854   0.488 -0.0690 -0.0303  0.0893
 3774W        W19583   4.226  15.334  14.224 -0.2171  0.0938 -0.2208
 3775W        W19584  11.858   8.324   2.240  0.1186 -0.1715  0.3865
 3776W        W19585  18.489   2.243   1.601 -0.0859  0.0494  0.0699
 3777W        W19586  11.676  14.790  10.471  0.0652  0.2562  0.0839
 3778W        W19587   6.006   1.187   1.929  0.1180 -0.1148 -0.1758
 3779W        W19588  10.949   8.310   3.694 -0.2913  0.3760  0.0919
 3780W        W19589   3.416  10.308   0.707  0.0756 -0.1465  0.0295
 3781W        W19590   0.834   9.812  12.390  0.1588 -0.3023  0.1429
 3782W        W19591  11.838  14.243   1.563 -0.0618 -0.1650  0.1634
 3783W        W19592  12.763   5.753  13.927  0.0350 -0.0794 -0.0118
 3784W        W19593   9.507   9.224   9.953  0.5064  0.1876  0.0567
 3785W        W19594   9.910   2.785   1.538 -0.0169 -0.0910  0.2648
 3786W        W19595   5.336   8.686   4.433 -0.0365 -0.0085  0.0083
 3787W        W19596   8.630   4.008   9.164 -0.1150  0.0146 -0.0726
 3788W        W19597  15.791   7.037   5.695 -0.1844 -0.1909  0.1848
 3789W        W19598  17.027  14.742  13.604  0.1068  0.0736 -0.1353
 3790W        W19599  18.725  10.227  14.662  0.2010  0.1257  0.1375
 3791W        W19600   2.805   2.104  12.138  0.1801  0.0074 -0.3179
 3792W        W19601   4.203   7.814  11.364  0.1704 -0.0941 -0.2611
 3793W        W19602   0.356   5.417  12.741  0.0871 -0.3532 -0.1863
 3794W        W19603   9.363  13.784   4.427  0.0321 -0.1731 -0.1301
 3795W        W19604  17.193  11.299   2.767 -0.1606  0.0123 -0.1507
 3796W        W19605  10.582   7.256   0.835  0.1728 -0.0255 -0.1670
 3797W        W19606  15.052   3.433   3.627  0.1746 -0.0233 -0.1093
 3798W        W19607   0.507   7.140  12.361  0.2123 -0.1589 -0.0395
 3799W        W19608   1.537   3.054   1.221 -0.1160 -0.2481 -0.0999
 3800W        W19609  13.611   5.818   4.356 -0.3158  0.2870 -0.0603
 3801W        W19610  10.503  11.699  14.637 -0.1933  0.3041  0.2583
 3802W        W19611  15.019  10.387  12.735 -0.4059 -0.1644  0.1348
 3803W        W19612  15.604  13.440  13.855 -0.1001 -0.0472  0.2304
 3804W        W19613  12.523   7.283   0.859 -0.2789  0.2024 -0.0831
 3805W        W19614  18.406   5.553   4.078 -0.1767  0.0785  0.1174
 3806W        W19615   4.793   5.132  14.247 -0.2837  0.2546 -0.2193
 3807W        W19616   4.543   5.443   4.347  0.0367 -0.3343  0.1703
 3808W        W19617   0.800   3.811  11.936  0.1009  0.0467  0.0549
 3809W        W19618  19.006  14.037   6.178 -0.0330 -0.2334  0.2635
 3810W        W19619   9.446   7.361  10.530 -0.0939 -0.0398  0.0593
 3811W        W19620   2.926   1.117   3.920 -0.0591  0.3053 -0.1158
 3812W        W19621  12.059   0.120   2.076 -0.3354  0.1953  0.3499
 3813W        W19622   2.434  15.944   2.211  0.1228 -0.1532  0.0468
 3814W        W19623  18.298   9.738  12.304 -0.1980 -0.5809  0.0234
 3815W        W19624   4.765  17.606  11.330  0.1439  0.1924 -0.0616
 3816W        W19625   7.785   5.623   3.072  0.0076  0.1325 -0.0438
 3817W        W19626   0.114  14.292   4.668 -0.0916 -0.1140  0.0637
 3818W        W19627  16.955   2.113   3.134 -0.0733 -0.0744  0.0046
 3819W        W19628  15.280  18.978  11.941  0.3819  0.0201 -0.0837
 3820W        W19629  16.660  12.648   0.552 -0.0263  0.5079 -0.1020
 3821W        W19630   2.936   0.782  12.868  0.0368  0.0140 -0.2648
 3822W        W19631   3.000  15.483   3.553  0.2991 -0.1526 -0.2103
 3823W        W19632   7.202   3.004  13.054  0.4827  0.2202  0.2186
 3824W        W19633  10.507   4.874  13.568 -0.0214  0.2739 -0.1854
 3825W        W19634  18.377   9.498   3.154  0.2475  0.3836  0.4065
 3826W        W19635  15.700   3.683   1.015 -0.0957  0.0936 -0.0698
 3827W        W19636  15.728   9.665  12.892 -0.3540 -0.2075 -0.2720
 3828W        W19637   2.098  13.442  12.871  0.1243  0.0538  0.0784
 3829W        W19638   3.486   3.051  11.635 -0.2996  0.3038 -0.0676
 3830W        W19639  11.022   0.084   3.811  0.0457  0.1416 -0.3944
 3831W        W19640   1.241   0.436   0.985 -0.2090 -0.1695 -0.0365
 3832W        W19641   1.659  17.341   3.050  0.1965 -0.0346 -0.2622
 3833W        W19642   6.465   4.679  11.271  0.2703  0.0927  0.5230
 3834W        W19643   0.224   8.930   4.630  0.3023  0.2098 -0.1373
 3835W        W19644   2.353  14.127  11.704 -0.0814  0.1653  0.1875
 3836W        W19645   8.445   6.548   5.391 -0.0720 -0.3071  0.4843
 3837W        W19646  19.072   1.541  10.990  0.0534 -0.0978  0.0208
 3838W        W19647  12.538   9.592  13.722 -0.3315  0.1714  0.2988
 3839W        W19648  16.976   5.667  12.941 -0.1653 -0.0408  0.1033
 3840W        W19649   1.116  10.370  15.267 -0.3580  0.0482 -0.1053
 3841W        W19650   5.321   6.224   2.283  0.1804  0.0743  0.0839
 3842W        W19651   3.654   6.295   3.987 -0.0665 -0.1187 -0.1439
 3843W        W19652   0.958   6.341  14.952 -0.2640  0.1400  0.0905
 3844W        W19653  17.488  16.382   0.535 -0.3731  0.0334 -0.1861
 3845W        W19654  13.271  17.600  14.380  0.4899 -0.0260  0.3769
 3846W        W19655  10.175   5.805  12.466 -0.0683  0.1811  0.1194
 3847W        W19656   5.631   3.283  12.744 -0.0070  0.2567 -0.2049
 3848W        W19657  15.167   7.658  13.326  0.3515  0.2580 -0.0708
 3849W        W19658  11.404  13.553   1.676 -0.0468  0.1234 -0.1058
 3850W        W19659   2.317  18.750   0.713 -0.1869 -0.0459 -0.1951
 3851W        W19660  11.939  16.146  10.712 -0.1188  0.2678 -0.1783
 3852W        W19661  11.177  16.684  10.276  0.1249 -0.1703  0.3606
 3853W        W19662  10.175   7.822  14.455 -0.0655  0.1697  0.2870
 3854W        W19663  15.989   9.684   4.046 -0.0485  0.5094  0.0142
 3855W        W19664   3.751   4.073   1.731 -0.0491  0.0035 -0.1168
 3856W        W19665   5.467   9.869   2.163 -0.1207 -0.2604 -0.2328
 3857W        W19666   3.181  16.636   1.999 -0.4855  0.0035 -0.1276
 3858W        W19667   2.352   8.415   5.535  0.2638  0.0817 -0.2309
 3859W        W19668  11.979  10.507   3.769 -0.0105  0.2166  0.1189
 3860W        W19669   3.235  10.734  11.775 -0.0919  0.0314 -0.2544
 3861W        W19670  11.212   9.092   2.568  0.1729  0.1397  0.1632
 3862W        W19671  10.927   9.220   3.123  0.0234  0.1121 -0.2018
 3863W        W19672   4.435   2.883   5.311 -0.0622  0.0698 -0.0191
 3864W        W19673  11.454   7.793   3.058 -0.0218  0.3847 -0.0832
 3865W        W19674   3.740  13.809   5.413  0.0201  0.1601  0.3070
 3866W        W19675  12.752   8.828  13.444  0.1587  0.1924 -0.2103
 3867W        W19676  12.913   5.652  13.132  0.2142 -0.1278 -0.2032
 3868W        W19677   4.290  16.770   3.691 -0.2895 -0.1923  0.3382
 3869W        W19678   9.071  14.336   1.450 -0.1205  0.1007  0.2408
 3870W        W19679  16.727  16.213  13.787  0.1157 -0.0059  0.2028
 3871W        W19680   0.650  10.963  11.005 -0.2092  0.0207  0.0970
 3872W        W19681   5.505   6.629  14.546 -0.1366  0.0230  0.4776
 3873W        W19682   3.721  13.245   0.853  0.0206 -0.0645 -0.1245
 3874W        W19683  16.385  18.139  10.598 -0.4834 -0.0481 -0.0036
 3875W        W19684   3.236   2.930   2.998  0.1672 -0.3579  0.0141
 3876W        W19685  17.581   0.174   4.604  0.0605 -0.0077 -0.2473
 3877W        W19686  13.957  12.805   1.833  0.3521 -0.0872 -0.2312
 3878W        W19687  11.788  13.898   1.913 -0.0757 -0.2017 -0.1988
 3879W        W19688  15.720   9.509   4.442 -0.1111 -0.3734 -0.2600
 3880W        W19689  11.053   6.023  14.937  0.0456 -0.1787 -0.2957
 3881W        W19690  10.890  15.556   0.241  0.2687  0.2569 -0.2103
 3882W        W19691  12.145   2.301   2.305 -0.0403 -0.0875 -0.4139
 3883W        W19692  13.018  12.525  10.816 -0.0886 -0.5328  0.0929
 3884W        W19693   5.069   5.085   2.911  0.0674  0.1948  0.1175
 3885W        W19694   9.773   0.110  14.142  0.2668  0.1167 -0.0109
 3886W        W19695   7.628   0.521   2.192 -0.0109  0.1574  0.1611
 3887W        W19696   3.069   3.783  12.855 -0.3540  0.3748  0.1479
 3888W        W19697   9.159   0.567   0.585 -0.1990 -0.1076  0.0322
 3889W        W19698   8.933  10.931   0.219 -0.2327 -0.1662 -0.1353
 3890W        W19699  11.245  11.908   2.884 -0.2624 -0.1194  0.1172
 3891W        W19700   1.336  18.331  11.355  0.0021 -0.0314  0.1099
 3892W        W19701  13.490   9.184   5.955  0.3491 -0.0206  0.0977
 3893W        W19702  17.349  17.253   4.263 -0.0499  0.1215 -0.0267
 3894W        W19703   6.584   4.395   0.142 -0.0177  0.0395  0.0202
 3895W        W19704   7.701  18.112   2.846 -0.2317 -0.1411  0.1973
 3896W        W19705  13.187  11.633  15.148 -0.1805  0.0060 -0.2012
 3897W        W19706   4.119   0.854  11.288  0.4636 -0.1285 -0.1132
 3898W        W19707   1.953  13.064   1.898  0.3917  0.0599 -0.0751
 3899W        W19708  17.942  11.714  11.337 -0.2358  0.2109  0.2628
 3900W        W19709   6.345   9.396  14.533  0.0379  0.0973  0.0567
 3901W        W19710   7.053   4.725   5.489  0.1452 -0.1363 -0.0194
 3902W        W19711   9.167  11.407   0.235  0.0891 -0.3246 -0.4584
 3903W        W19712  12.262   6.624   5.022 -0.0043 -0.0060 -0.1571
 3904W        W19713   8.469  12.443   1.791 -0.1843  0.0971 -0.0313
 3905W        W19714  10.694  13.763  12.956  0.3956  0.0071 -0.0917
 3906W        W19715  15.269   9.191   4.515 -0.2066 -0.0725 -0.1286
 3907W        W19716   5.128   4.204   9.671 -0.0110  0.1352 -0.1967
 3908W        W19717   2.938  10.244   0.982 -0.0000  0.0313 -0.1431
 3909W        W19718  16.540   4.322   1.946 -0.4153  0.0061 -0.2801
 3910W        W19719   0.333   9.192  11.875 -0.2470 -0.3338  0.2918
 3911W        W19720   9.156  12.520   4.125 -0.1811 -0.1262 -0.1393
 3912W        W19721   3.885   8.896   2.392  0.1525 -0.0463 -0.1584
 3913W        W19722   5.610   1.367   1.326 -0.3621  0.0993  0.1480
 3914W        W19723   9.993   6.581  13.080  0.0218 -0.0669 -0.3258
 3915W        W19724  13.500   1.453  13.005  0.0289 -0.2079  0.1108
 3916W        W19725  16.721   0.471   4.240  0.2466 -0.1356  0.0085
 3917W        W19726   3.868   5.337  11.916 -0.1298  0.0329  0.0463
 3918W        W19727   3.110  18.443   0.246  0.2673 -0.1096  0.1280
 3919W        W19728   6.584   9.909   5.337  0.1285 -0.1020  0.3140
 3920W        W19729  11.445   6.320  13.335 -0.1002  0.2035 -0.1721
 3921W        W19730   1.108   8.488   5.892  0.1563 -0.2332  0.1144
 3922W        W19731   5.529  10.425  15.116 -0.0118  0.1163 -0.0524
 3923W        W19732  13.830  18.155   4.211  0.1588 -0.0208 -0.2022
 3924W        W19733  16.685   5.020   9.690  0.1058 -0.0554  0.1861
 3925W        W19734   3.905  12.708   3.920 -0.0725 -0.2175 -0.1844
 3926W        W19735   2.592  18.413   4.643  0.1058  0.2290  0.1519
 3927W        W19736   0.755   8.126  14.777 -0.1901 -0.0965  0.1453
 3928W        W19737  12.858   9.389   1.943  0.2209 -0.2455 -0.0968
 3929W        W19738  18.684  19.013   3.170 -0.1003  0.0452  0.0050
 3930W        W19739  15.360  14.850   2.588 -0.4104 -0.3787  0.0196
 3931W        W19740  12.899  15.637  12.023 -0.1670  0.0421  0.1086
 3932W        W19741   7.658   0.811   0.346  0.3966  0.5232  0.2862
 3933W        W19742  14.919   6.712   2.353  0.0530 -0.2888  0.1960
 3934W        W19743  16.470   4.664  10.093 -0.0075 -0.1562 -0.1153
 3935W        W19744  15.545   1.420  11.454 -0.1083  0.3424  0.2989
 3936W        W19745  15.284   4.656  14.485 -0.2290  0.2614  0.0683
 3937W        W19746   2.936   4.972  13.475 -0.2853 -0.4001  0.0701
 3938W        W19747  16.544   6.524  12.013  0.0938 -0.0161  0.1460
 3939W        W19748   4.400   7.283  12.332 -0.0939  0.2044  0.0275
 3940W        W19749   4.193   4.930   4.604 -0.1866  0.2398  0.0295
 3941W        W19750  11.321  19.016  14.676  0.3723 -0.0415 -0.0106
 3942W        W19751  17.752   0.813   0.662 -0.1415 -0.0461  0.2943
 3943W        W19752  13.877   9.726  12.155 -0.0960 -0.3272 -0.1604
 3944W        W19753  19.059   1.402   0.206 -0.0172  0.2013  0.0132
 3945W        W19754  10.055  11.765  13.736 -0.1043 -0.0055  0.1911
 3946W        W19755  15.008  15.391  14.790 -0.2233 -0.0196 -0.2231
 3947W        W19756  17.405   8.737   5.338  0.0155  0.1586  0.2624
 3948W        W19757   3.710   7.452   1.397 -0.4550 -0.0546 -0.0943
 3949W        W19758   3.457  18.377  12.324 -0.3303  0.3224 -0.2060
 3950W        W19759  12.766  12.506  11.634  0.0138  0.0824  0.3030
 3951W        W19760  13.554  10.274   1.056  0.0030 -0.2042 -0.1126
 3952W        W19761  10.188   9.660   3.366  0.4247  0.2441 -0.2468
 3953W        W19762   5.469  12.188  14.718  0.0619 -0.2194 -0.1563
 3954W        W19763   7.792   8.653   0.145 -0.2886  0.1692  0.0804
 3955W        W19764   2.103  14.345   1.226 -0.0801 -0.3890 -0.1416
 3956W        W19765  18.439   7.143   0.489 -0.1155 -0.1228  0.0317
 3957W        W19766  16.590   6.295  11.480 -0.0494 -0.2147 -0.1121
 3958W        W19767   1.134  10.222   3.026  0.2464  0.2589  0.0908
 3959W        W19768  11.046  16.448  13.843  0.2034 -0.2055  0.1571
 3960W        W19769  13.161  15.962   3.004 -0.2075  0.0514  0.2945
 3961W        W19770  14.135   8.389  11.475  0.1184 -0.1763 -0.3506
 3962W        W19771  17.016   7.847  13.244 -0.1673 -0.2285  0.1177
 3963W        W19772  14.707  11.263   5.299 -0.0645 -0.1238 -0.0722
 3964W        W19773   2.768   1.818   0.368 -0.1883  0.1581 -0.1403
 3965W        W19774  14.947  11.840   0.767 -0.1595 -0.2659  0.3505
 3966W        W19775   2.533   1.899  11.560 -0.0504 -0.2728 -0.2063
 3967W        W19776  11.724  15.201   3.850 -0.1076  0.1135 -0.0477
 3968W        W19777   9.164  15.136  11.571 -0.0955  0.4394  0.5235
 3969W        W19778  11.701   1.812   0.017 -0.2234 -0.3672  0.0416
 3970W        W19779   5.645   5.541   1.367  0.0263  0.0682 -0.0932
 3971W        W19780   5.397  13.147   3.413 -0.1274  0.0937 -0.0379
 3972W        W19781  11.414   1.656  14.163 -0.1301  0.2514  0.0250
 3973W        W19782  13.864  14.224   0.298  0.0975 -0.2152 -0.1695
 3974W        W19783   2.812  11.142  12.604  0.0579 -0.2664  0.1636
 3975W        W19784   8.648  17.587  14.747  0.0017 -0.0583  0.3387
 3976W        W19785  18.571   0.246   4.615  0.1801 -0.1202 -0.1602
 3977W        W19786   7.836   4.932   4.432  0.0279 -0.0476 -0.3397
 3978W        W19787  14.954   4.055  14.985 -0.3439 -0.2880  0.0559
 3979W        W19788   0.989  16.433  10.838 -0.0667  0.0774  0.1410
 3980W        W19789   2.833   8.071  14.703 -0.0146 -0.2694 -0.0794
 3981W        W19790  18.387  16.129  14.327 -0.2197 -0.1194 -0.0047
 3982W        W19791   6.711  13.700   1.177  0.4398  0.0169  0.3945
 3983W        W19792  18.887   9.616   3.248 -0.2219 -0.4264 -0.2022
 3984W        W19793  11.691   4.067   4.325 -0.3136  0.0870 -0.2114
 3985W        W19794   7.871   7.297   0.054 -0.3001 -0.0278  0.0896
 3986W        W19795   7.245  18.466  11.538  0.1303 -0.2358 -0.2306
 3987W        W19796  18.624   8.598  14.723  0.2814  0.0845  0.0474
 3988W        W19797  18.512  15.527  11.848 -0.1116  0.3151  0.0805
 3989W        W19798  12.129  16.905  11.037 -0.2013 -0.1960 -0.2904
 3990W        W19799   5.216  18.279   9.334 -0.2465 -0.3109  0.1208
 3991W        W19800  12.330  16.987  15.221 -0.0859 -0.2947 -0.1919
 3992W        W19801  17.556   5.288   0.813 -0.1517  0.1282 -0.1959
 3993W        W19802  10.799   3.406   1.404 -0.0320 -0.1065  0.2447
 3994W        W19803  15.165   0.598   5.131 -0.1288  0.3379 -0.0544
 3995W        W19804  12.036   4.885  11.338  0.1085  0.4452 -0.0220
 3996W        W19805  10.735   0.090  14.066  0.4581  0.0991 -0.0429
 3997W        W19806  13.445  11.467  12.938 -0.0476  0.1318  0.0461
 3998W        W19807  15.171  14.271   4.544 -0.2402 -0.0991  0.0613
 3999W        W19808  14.796   1.023   0.811 -0.0207 -0.1836  0.2450
 4000W        W19809   9.460   5.876  11.131  0.2010 -0.0227  0.1909
 4001W        W19810  14.390   3.395  13.333  0.2740  0.4203 -0.2510
 4002W        W19811  10.244  12.103   2.413 -0.0013  0.2757 -0.2195
 4003W        W19812   5.466   6.393   0.852 -0.0084  0.0414  0.2753
 4004W        W19813   8.001   2.716  13.418 -0.2624 -0.3918 -0.2202
 4005W        W19814  12.780  18.807   1.485 -0.0011  0.2106  0.3016
 4006W        W19815   9.170  10.845  11.381  0.0728  0.2127  0.1737
 4007W        W19816  17.759  10.561  11.415 -0.2212 -0.0903  0.1199
 4008W        W19817  16.482  14.632  13.792 -0.0273 -0.3116 -0.1752
 4009W        W19818   0.926  19.053   3.253 -0.2150  0.0057  0.3781
 4010W        W19819   3.984  11.982   5.800 -0.1351 -0.0967  0.1252
 4011W        W19820  15.055   3.068   4.951 -0.1593  0.1737  0.0796
 4012W        W19821   4.972   6.462  14.002 -0.0530  0.4104  0.1212
 4013W        W19822  15.782  16.577  14.735  0.0296  0.1892 -0.0960
 4014W        W19823  17.231   9.279   2.413 -0.1665 -0.2152 -0.0014
 4015W        W19824  17.960   0.520  12.340 -0.2429  0.1604 -0.1458
 4016W        W19825  16.427  16.191  15.241 -0.2540 -0.1081  0.1670
 4017W        W19826  15.022  14.478  12.451  0.0786  0.2332  0.0353
 4018W        W19827   8.141  19.125   0.330  0.1103 -0.1749  0.3614
 4019W        W19828  12.642   8.620  12.478  0.1488 -0.2787  0.2081
 4020W        W19829  14.712  12.745  13.076  0.3845  0.0755 -0.0282
 4021W        W19830   6.958   3.657  11.571  0.0090 -0.0152 -0.0476
 4022W        W19831  11.265   7.503   4.869 -0.2050 -0.1907 -0.1155
 4023W        W19832  18.958  16.813   5.373 -0.0124 -0.5679 -0.1339
 4024W        W19833   8.870  13.781  14.363  0.1211  0.0157  0.2727
 4025W        W19834   8.206   5.728   1.266  0.3189 -0.0936 -0.0800
 4026W        W19835   1.324   5.311  11.262  0.0420  0.0078 -0.1109
 4027W        W19836  19.081  17.882   3.769 -0.0325  0.0784 -0.0334
 4028W        W19837   9.280   5.096   0.545 -0.0572 -0.2960 -0.2059
 4029W        W19838   0.665   1.507   4.553  0.0691 -0.1256  0.3730
 4030W        W19839   9.407   1.626  10.432 -0.0047  0.0287  0.0950
 4031W        W19840  16.766  10.889  11.072  0.0406 -0.2344 -0.1391
 4032W        W19841  10.884   0.597   5.424 -0.0102  0.1713  0.3088
 4033W        W19842  17.005   4.245   0.164 -0.2147  0.0345 -0.0095
 4034W        W19843   4.494  11.226   4.821 -0.0423 -0.0110  0.0430
 4035W        W19844  13.305  13.568  12.740 -0.4172 -0.0437 -0.0830
 4036W        W19845  11.515   0.642   2.507 -0.3116  0.3068  0.2279
 4037W        W19846  10.636   0.506  12.817  0.2307  0.2961 -0.0696
 4038W        W19847  16.370  14.936  12.267 -0.0266  0.2414  0.1861
 4039W        W19848  12.933  12.497   4.541  0.0692  0.2730  0.2841
 4040W        W19849   6.495  14.791   0.227  0.2169 -0.0130  0.1852
 4041W        W19850  15.231  17.490  14.890 -0.1498 -0.1159 -0.1792
 4042W        W19851   7.976  11.480  14.239 -0.1214 -0.4855  0.1997
 4043W        W19852  13.508  17.732  12.590 -0.1044  0.2023  0.1413
 4044W        W19853  10.914   3.712   1.747  0.2034  0.0121  0.0302
 4045W        W19854   4.233   3.211  10.431  0.4431  0.3710 -0.0603
 4046W        W19855   4.636  12.997   1.024 -0.1519 -0.1946  0.2280
 4047W        W19856  18.808  17.521   5.963 -0.2949  0.0200  0.0751
 4048W        W19857  12.619   5.451  12.195 -0.1870 -0.1041 -0.0218
 4049W        W19858  11.092  18.477  11.324 -0.1791  0.0346 -0.1796
 4050W        W19859   8.315   6.133  14.052  0.1078  0.2473 -0.0599
 4051W        W19860  13.557  11.935   5.077  0.3251  0.1360  0.1718
 4052W        W19861   4.230  16.760  10.975  0.2063 -0.0534  0.2347
 4053W        W19862  10.187   3.329   2.051  0.0070 -0.0931 -0.0093
 4054W        W19863   0.176  16.411   4.873  0.1775  0.0779  0.1186
 4055W        W19864   8.185   9.454  14.171 -0.1111 -0.2549 -0.1840
 4056W        W19865  16.019   6.931   4.126  0.0198 -0.0122  0.0728
 4057W        W19866  16.407   6.522   1.832  0.2093  0.4521  0.0542
 4058W        W19867   6.214  19.112   4.437 -0.2991 -0.0402  0.1792
 4059W        W19868   5.050  13.436   4.937 -0.1037 -0.3890 -0.1892
 4060W        W19869  18.524  13.329  13.669  0.0223  0.0718  0.1108
 4061W        W19870  13.432   8.038  13.974  0.4228  0.1258 -0.0202
 4062W        W19871  11.842   0.989  12.426 -0.0843 -0.3437 -0.0996
 4063W        W19872   2.509   4.241   2.589  0.0068 -0.1474 -0.0953
 4064W        W19873  10.663  14.322   5.040  0.2620  0.5173 -0.2009
 4065W        W19874   0.350   2.843  14.631  0.0380  0.1931  0.1108
 4066W        W19875  18.038  18.027   4.668  0.2185  0.1121  0.3851
 4067W        W19876  14.082  14.884  10.102 -0.0631  0.1563  0.0359
 4068W        W19877   9.907  17.057   3.984 -0.0362  0.0706 -0.2228
 4069W        W19878   5.325   3.700  14.922 -0.0247 -0.2484  0.0482
 4070W        W19879  10.282   0.540   4.702 -0.0359 -0.1818 -0.0038
 4071W        W19880   2.582  17.817   4.635  0.0816 -0.1901 -0.2483
 4072W        W19881   9.108   8.267   0.178  0.0430  0.1800 -0.0251
 4073W        W19882   7.715  16.904   1.640  0.0951 -0.3009 -0.3818
 4074W        W19883  17.404  11.922   4.284  0.1871  0.3973  0.0420
 4075W        W19884   1.817   4.006   4.959 -0.0251  0.2636 -0.1914
 4076W        W19885   9.964   8.873   2.182 -0.1210 -0.1658  0.2283
 4077W        W19886   3.232  12.529   1.135 -0.3996  0.0421  0.0773
 4078W        W19887  12.299   3.045  11.349  0.2889 -0.1240 -0.0524
 4079W        W19888  12.648  14.087   2.093 -0.1469 -0.0334  0.1701
 4080W        W19889  14.500  14.300   4.373  0.2319 -0.0670  0.2222
 4081W        W19890  13.238  13.626  11.045 -0.0291 -0.2723  0.0065
 4082W        W19891  17.584  15.063   4.820  0.2739  0.1167  0.0019
 4083W        W19892  15.876  12.159   0.432 -0.0720  0.0759 -0.0591
 4084W        W19893   8.936  13.365  12.666 -0.0758  0.1165 -0.0220
 4085W        W19894   3.393  11.747   0.956  0.0682 -0.1414  0.2239
 4086W        W19895  10.873  11.116  11.610 -0.0151  0.0198  0.0762
 4087W        W19896  10.717   9.270  13.511  0.0213 -0.2321 -0.2864
 4088W        W19897  11.582   2.013  14.445  0.1541 -0.1178  0.1799
 4089W        W19898   5.854  13.189  13.819 -0.4620 -0.1812  0.1395
 4090W        W19899  10.593   7.161  14.928 -0.1262 -0.0943  0.3098
 4091W        W19900   8.598  12.336  12.770  0.2994  0.4751  0.0472
 4092W        W19901  16.273  13.482   1.082 -0.1074 -0.0431  0.0389
 4093W        W19902  12.291  14.942  13.182  0.0604  0.2381 -0.2667
 4094W        W19903  10.833  11.681   2.495 -0.0709 -0.5126  0.1586
 4095W        W19904   8.078  14.195   3.707  0.0316 -0.2000  0.1964
 4096W        W19905  15.335  10.075  13.627 -0.2160  0.0166  0.0084
 4097W        W19906   8.860   6.130   3.406  0.1882 -0.1496 -0.2333
 4098W        W19907   4.273   9.790   0.991  0.2075 -0.1398  0.0726
 4099W        W19908  19.091   3.043   3.234  0.2528  0.1560  0.0202
 4100W        W19909   6.220  11.512  15.028  0.2445 -0.0193 -0.3086
 4101W        W19910  13.681  13.056  14.117  0.0071 -0.0675 -0.2718
 4102W        W19911  10.675   4.718   3.696 -0.0257 -0.1315  0.0215
 4103W        W19912   6.567  11.363   4.911 -0.0312  0.2663 -0.0564
 4104W        W19913  10.546  17.476   4.498  0.0686 -0.0483  0.2388
 4105W        W19914  15.215  17.892   4.036  0.2074  0.1708  0.0364
 4106W        W19915  14.306  11.191  13.543  0.2144 -0.0660 -0.1675
 4107W        W19916   0.222   5.967  11.442  0.0880 -0.0715 -0.2795
 4108W        W19917  16.252  12.181   3.155  0.1330 -0.2057 -0.0443
 4109W        W19918   0.886  16.729  15.258 -0.3217  0.0817 -0.1108
 4110W        W19919   1.581  18.221   5.589 -0.0543  0.0516  0.0618
 4111W        W19920  14.172   8.748  10.278 -0.2377  0.2633  0.1321
 4112W        W19921  17.257  10.711  12.700 -0.1590 -0.3033 -0.3970
 4113W        W19922   7.616   6.967   2.261  0.1054  0.2455  0.5664
 4114W        W19923   7.127  18.078  14.312  0.1465  0.1090  0.2387
 4115W        W19924   1.675  10.111   0.488 -0.1031  0.1309 -0.1029
 4116W        W19925   3.140   9.790  12.748  0.0783 -0.0118  0.0886
 4117W        W19926   6.563  13.043  14.481  0.3349  0.1492  0.1500
 4118W        W19927  16.655   1.901   0.088 -0.1504  0.4758 -0.0577
 4119W        W19928   2.939   1.231   4.613 -0.3060 -0.1845  0.0279
 4120W        W19929   0.533   8.508  12.459 -0.2050 -0.1934 -0.0261
 4121W        W19930  12.895  13.848  15.171  0.5829  0.1779 -0.1782
 4122W        W19931   5.369   7.329  15.173  0.2142  0.3067 -0.2645
 4123W        W19932   8.066   9.805   4.834 -0.3193  0.1372 -0.0303
 4124W        W19933   8.189   7.041   2.701 -0.1040 -0.1081  0.4441
 4125W        W19934   7.670   5.137  14.915 -0.1696 -0.2239 -0.0956
 4126W        W19935  10.127   7.832  10.823  0.0252  0.2061 -0.1142
 4127W        W19936  11.445   5.120   0.381 -0.0238  0.0714 -0.3124
 4128W        W19937  11.637  16.045  12.068 -0.5583  0.3557 -0.0630
 4129W        W19938   5.061   1.458  11.615  0.2206  0.2705  0.1078
 4130W        W19939  17.958  14.306  14.394  0.1264 -0.2241 -0.3538
 4131W        W19940   9.163  18.250  13.230  0.3323 -0.2699  0.3149
 4132W        W19941  17.767   6.616  10.826  0.0561  0.1075 -0.0978
 4133W        W19942   1.124   6.301   1.396  0.2890  0.0696 -0.4790
 4134W        W19943   4.264   0.100   3.397 -0.1263 -0.1503  0.2198
 4135W        W19944   3.457  19.019   0.972 -0.0390  0.1948  0.1094
 4136W        W19945   3.783  10.510   0.401 -0.1418  0.0592 -0.1624
 4137W        W19946  10.878   8.087   4.373  0.3607 -0.1148  0.2337
 4138W        W19947  14.617   7.310  12.414  0.0511 -0.0009 -0.1805
 4139W        W19948   6.026   6.965  12.792 -0.0969  0.2742 -0.2589
 4140W        W19949  11.592  10.261  11.429 -0.0714  0.1522  0.0111
 4141W        W19950  12.003  15.109   2.113  0.1103 -0.1722  0.3337
 4142W        W19951  13.794   9.823  14.281  0.0346 -0.1076  0.0869
 4143W        W19952   9.363   3.419   0.941  0.2659 -0.1093  0.4066
 4144W        W19953   6.067  15.305   1.655 -0.1360 -0.0526 -0.1797
 4145W        W19954  16.760   2.385  15.119 -0.1185  0.0736  0.3805
 4146W        W19955  10.657   3.868  12.217 -0.0623 -0.1261  0.1943
 4147W        W19956  18.508   1.574  10.833  0.0907 -0.1721 -0.0698
 4148W        W19957   9.926   6.099  14.206 -0.0196  0.4426  0.0541
 4149W        W19958  14.107  16.928  12.084 -0.0706  0.3222 -0.3151
 4150W        W19959  10.364   4.889  14.936 -0.0167  0.3476 -0.1585
 4151W        W19960   2.566  10.364   1.420 -0.1119  0.2508 -0.0624
 4152W        W19961  14.983  18.960   2.445  0.1907  0.3581  0.1080
 4153W        W19962   2.229   6.315  11.335 -0.0683  0.0479  0.0234
 4154W        W19963  12.647   1.619   3.267  0.3067  0.1258 -0.1454
 4155W        W19964  11.084  12.458   4.981 -0.1049 -0.0824 -0.2153
 4156W        W19965  17.093   3.664  12.893  0.1652  0.2851  0.0525
 4157W        W19966  12.957   4.762   1.164 -0.1562 -0.2489  0.0761
 4158W        W19967  15.717   8.689  14.193  0.0261  0.1880 -0.0976
 4159W        W19968   9.122   9.226   5.171 -0.1042 -0.0518 -0.2867
 4160W        W19969   7.305   2.095  12.843 -0.1533 -0.4233  0.2117
 4161W        W19970   6.416   9.333  10.032 -0.1412 -0.0827 -0.2290
 4162W        W19971   1.409   4.176   4.696  0.0247  0.1599  0.1350
 4163W        W19972  17.924  12.073   4.426 -0.0989  0.1799  0.0648
 4164W        W19973   6.485  17.794   3.298 -0.2547  0.2193 -0.0618
 4165W        W19974  18.468  14.270   1.435 -0.2506 -0.1988 -0.1615
 4166W        W19975  12.422   7.461  11.179 -0.1261  0.0822  0.0047
 4167W        W19976  14.438   4.740   3.164  0.1896 -0.0905  0.1862
 4168W        W19977   2.972  10.496   2.835 -0.0604 -0.1340  0.1194
 4169W        W19978  14.107   2.744  10.747  0.0026 -0.0528 -0.0138
 4170W        W19979   3.627  11.218  12.152 -0.5709 -0.1871 -0.3883
 4171W        W19980   0.632   4.315  12.052 -0.3434  0.3234  0.0419
 4172W        W19981  13.449   2.318  13.679  0.0707  0.3418 -0.1287
 4173W        W19982   0.569  13.658  14.550  0.0029 -0.2332 -0.0417
 4174W        W19983   9.977   7.996  12.850 -0.2566  0.1002 -0.0485
 4175W        W19984   3.839   8.512   3.441 -0.2378  0.1366 -0.0374
 4176W        W19985   1.990   8.216   1.951 -0.1141  0.3384 -0.1572
 4177W        W19986  15.462  17.646  10.959  0.1343 -0.2325  0.1047
 4178W        W19987   0.933   7.344  13.790 -0.2776  0.4731  0.1229
 4179W        W19988  14.133   8.559  13.437 -0.4764  0.0179  0.2227
 4180W        W19989   6.918  11.477   4.470  0.0982 -0.2051 -0.1909
 4181W        W19990   8.599   9.423   3.633 -0.2214  0.4715 -0.0282
 4182W        W19991  10.264   0.623   5.206 -0.0940  0.1540 -0.4434
 4183W        W19992   9.526  12.634  13.125  0.0930 -0.1822 -0.1037
 4184W        W19993  10.077  11.834  14.215 -0.1732 -0.2502  0.1164
 4185W        W19994   1.798  11.151  11.649 -0.0173  0.0937 -0.0320
 4186W        W19995   8.910  18.562   5.597  0.2529 -0.0819 -0.2637
 4187W        W19996   3.794  18.254  10.734 -0.2851 -0.0589 -0.1030
 4188W        W19997   8.313  12.902   1.761 -0.2010  0.0789  0.2317
 4189W        W19998  17.471  15.727   2.553  0.1343  0.0170 -0.3872
 4190W        W19999  17.413  14.805   2.375  0.1937  0.0774  0.0878
 4191W        W20000  17.969   9.015   2.504 -0.1670 -0.1448 -0.1375
 4192W        W20001   6.075  18.448  15.069 -0.4301 -0.2014 -0.1565
 4193W        W20002   3.653  16.074  11.126  0.1850  0.0226  0.0168
 4194W        W20003  15.250  10.822  11.145 -0.1113  0.3219  0.0984
 4195W        W20004  11.309   6.405   4.548 -0.0123 -0.2363 -0.2904
 4196W        W20005   8.362  18.393   0.775 -0.0482 -0.0146 -0.3131
 4197W        W20006  18.043   3.293  13.264 -0.1190  0.1329 -0.2900
 4198W        W20007   8.253  17.861  13.276  0.0270 -0.2779  0.2245
 4199W        W20008   3.303  16.091   1.031  0.0822 -0.2024  0.0928
 4200W        W20009   8.297  14.949   4.045 -0.2739 -0.2805  0.1767
 4201W        W20010   1.562   0.851  14.225  0.0513  0.0025 -0.0336
 4202W        W20011  10.276   5.615   2.556 -0.0578  0.1868  0.5549
 4203W        W20012   9.557  10.397   3.340  0.1799  0.1192 -0.0163
 4204W        W20013   1.314  17.535  10.567  0.1081  0.0361 -0.0356
 4205W        W20014  14.615  18.196  12.861 -0.3408  0.2089  0.1385
 4206W        W20015  10.940   7.756  14.354 -0.1832  0.0581 -0.3080
 4207W        W20016  11.638   8.781   0.193  0.1279  0.0858 -0.0929
 4208W        W20017   6.588  10.284  13.538 -0.3428  0.1919  0.0226
 4209W        W20018   1.124   0.405  12.588 -0.3958  0.4156 -0.1089
 4210W        W20019   2.046   1.526   0.368  0.0602 -0.4417  0.3069
 4211W        W20020  12.024  16.129   5.132 -0.2548  0.1017 -0.1074
 4212W        W20021   0.493   0.933  14.088 -0.0336 -0.2065  0.4040
 4213W        W20022  19.025   5.896  14.495  0.1397 -0.1163 -0.4027
 4214W        W20023   0.339  16.669  13.798  0.0238  0.1351 -0.0213
 4215W        W20024  16.926  16.308  15.162 -0.0247  0.4581  0.2377
 4216W        W20025  12.668   4.241  11.356  0.0631 -0.0162  0.0104
 4217W        W20026   6.070   4.735  11.520 -0.1925 -0.0306  0.1862
 4218W        W20027  16.044  17.267   1.290  0.0406  0.1760 -0.0761
 4219W        W20028   2.325   4.741  12.139  0.1240  0.0381  0.0138
 4220W        W20029   3.275  14.089   4.693 -0.0002 -0.1396  0.0551
 4221W        W20030  11.988  19.074   4.387  0.2212 -0.0581  0.0849
 4222W        W20031   1.787  14.221  12.725  0.1954  0.0305  0.0957
 4223W        W20032  13.581   1.952   2.848  0.0029 -0.0325  0.0820
 4224W        W20033   2.043   2.217  11.818  0.2135  0.3674  0.1289
 4225W        W20034   1.052  15.157   3.633 -0.2906 -0.1956  0.0186
 4226W        W20035   6.424   6.671   0.946 -0.1557  0.2876  0.0697
 4227W        W20036   1.202   5.258   1.051 -0.1452 -0.3046 -0.0129
 4228W        W20037   9.241  12.299  13.536 -0.0669  0.0366  0.0533
 4229W        W20038   4.657   0.884  12.099  0.2321 -0.0186 -0.1269
 4230W        W20039  16.720   5.386   3.301  0.0107  0.0337 -0.1434
 4231W        W20040   1.990   6.335   1.522 -0.1694  0.0126  0.3281
 4232W        W20041   8.769  11.456   1.596 -0.0892  0.3325  0.3027
 4233W        W20042  16.965  15.670   2.324  0.1841 -0.3514 -0.0497
 4234W        W20043  17.108   9.338  12.974 -0.0805  0.4463  0.3558
 4235W        W20044  18.656   8.735  13.139 -0.1859 -0.0776  0.3214
 4236W        W20045  16.770   0.551   1.535  0.2685 -0.1139  0.2786
 4237W        W20046  11.975   4.578  13.247  0.0613 -0.1148 -0.1204
 4238W        W20047   1.886   8.701  15.253 -0.1729 -0.0679 -0.1268
 4239W        W20048  12.470  14.404  14.543  0.0102 -0.0424 -0.0691
 4240W        W20049  17.457  14.061  12.099  0.0085 -0.2761  0.0718
 4241W        W20050  14.824   7.216  12.005 -0.2075 -0.2354 -0.0485
 4242W        W20051  10.153  11.890   1.055 -0.1201  0.3532 -0.2397
 4243W        W20052   6.231   8.561  14.228  0.2417 -0.1377 -0.0861
 4244W        W20053  15.884   3.585   0.551 -0.1046 -0.2983  0.2980
 4245W        W20054  10.780   5.276   1.853  0.4505  0.0540  0.1885
 4246W        W20055   1.198   7.584  14.135 -0.0600 -0.1020  0.0162
 4247W        W20056  18.897   8.863   3.720 -0.1102 -0.1148 -0.3337
 4248W        W20057  17.436   2.522  13.646  0.2202 -0.0895  0.1144
 4249W        W20058  15.877   5.517  12.804  0.0381 -0.3426 -0.0726
 4250W        W20059   2.438  11.413   2.721  0.3268 -0.0055  0.1606
 4251W        W20060   6.163   0.246   0.966  0.3958  0.0249 -0.0016
 4252W        W20061   6.932  18.227   2.094  0.1155  0.2421  0.2371
 4253W        W20062  15.887  10.533   0.730 -0.3405  0.0578 -0.0256
 4254W        W20063  12.728   3.693   0.849 -0.2386  0.3387 -0.2566
 4255W        W20064   3.886   8.345   0.542  0.1786  0.0783 -0.3095
 4256W        W20065   1.749  10.746   2.189 -0.0339 -0.0241 -0.2786
 4257W        W20066  18.565  15.487   1.877  0.3660 -0.2531  0.0579
 4258W        W20067  13.424  12.600   3.294  0.0180  0.2825  0.1018
 4259W        W20068  14.349   7.959   4.141  0.1702  0.1820 -0.1826
 4260W        W20069   2.358   2.420  13.329  0.0746 -0.0444 -0.3130
 4261W        W20070   4.543  11.349  13.890 -0.1101 -0.0679 -0.1636
 4262W        W20071  15.363   9.888   0.185  0.0603  0.0328 -0.1201
 4263W        W20072   8.877  10.963  13.759  0.2802 -0.1285  0.2089
 4264W        W20073   4.426  11.679  14.618 -0.0272 -0.5691 -0.2297
 4265W        W20074   5.609   7.163   4.891 -0.0828  0.0108 -0.0207
 4266W        W20075  11.476   4.229   1.639 -0.0406  0.3994 -0.1093
 4267W        W20076  16.225  18.326  12.944  0.4074 -0.5840  0.0562
 4268W        W20077  16.204   5.156  11.909 -0.1606  0.0297 -0.1411
 4269W        W20078  17.769   8.688  14.411 -0.1494  0.3103 -0.1524
 4270W        W20079  13.651  13.638   0.100 -0.2400 -0.1012  0.2617
 4271W        W20080   0.070   7.978   3.934 -0.2641  0.1813  0.0153
 4272W        W20081   9.541  16.976  10.749  0.3127 -0.2694  0.0262
 4273W        W20082   0.350   5.984  14.119  0.0100  0.3624 -0.4207
 4274W        W20083  18.549   3.240   0.652 -0.1279  0.0379 -0.0519
 4275W        W20084  11.582  15.988   3.956 -0.1250 -0.0263  0.1549
 4276W        W20085   1.007   4.097  15.198 -0.2001 -0.2427  0.3969
 4277W        W20086   9.008   6.633   3.701  0.0344 -0.2089 -0.4210
 4278W        W20087   8.272   2.532   1.918  0.1121  0.2008 -0.2033
 4279W        W20088  13.386   7.230  13.641  0.0590  0.0740  0.0769
 4280W        W20089   9.385   0.695  12.979 -0.1401 -0.2020 -0.3426
 4281W        W20090  13.714  13.583  10.672  0.0660 -0.3323  0.2275
 4282W        W20091  10.956  12.571   2.057  0.1397 -0.0421 -0.1146
 4283W        W20092  15.870  15.438  13.645  0.3962  0.0378 -0.1462
 4284W        W20093  17.633   4.819   0.531 -0.2415  0.0476  0.1267
 4285W        W20094  11.303   8.335   1.506  0.0868 -0.1065 -0.2585
 4286W        W20095  11.487  16.699   2.448 -0.1461 -0.1049  0.0714
 4287W        W20096  15.170   7.343   3.017 -0.1190 -0.0497 -0.0635
 4288W        W20097  15.207   5.492  15.098  0.1249  0.1899  0.1656
 4289W        W20098  18.964   4.050  14.500 -0.2936 -0.1203  0.0938
 4290W        W20099   7.946   7.495   3.686 -0.0122  0.3362  0.2396
 4291W        W20100  13.627   8.014   2.031  0.1601  0.0118 -0.1249
 4292W        W20101   5.402  18.334  13.761 -0.1794 -0.2497 -0.3703
 4293W        W20102   0.063  18.126  12.411 -0.0146 -0.1292 -0.0424
 4294W        W20103  12.411  13.334  12.365  0.0737  0.0175  0.0957
 4295W        W20104  18.187   8.904  14.537 -0.2385  0.1810 -0.0451
 4296W        W20105  17.709   1.497   0.382  0.4977 -0.3091  0.2308
 4297W        W20106   4.315   8.632   4.004 -0.1250  0.3848  0.0331
 4298W        W20107   2.685  13.859  11.923  0.1050  0.0437  0.0437
 4299W        W20108   6.567  10.015  14.108 -0.0733  0.0602 -0.2184
 4300W        W20109   4.455   5.769   0.490  0.1433  0.0039 -0.1242
 4301W        W20110  13.482  11.666  14.782 -0.1340 -0.3551  0.0241
 4302W        W20111   0.264  16.434  11.101  0.1960  0.2331 -0.2275
 4303W        W20112   7.262   6.560   2.732  0.1756  0.1343  0.0115
 4304W        W20113  11.056  15.411   3.462 -0.0257  0.1074 -0.1351
 4305W        W20114   9.617  11.030  13.879 -0.3916  0.0731  0.2364
 4306W        W20115  10.749  16.029   4.036  0.0592 -0.0015  0.0102
 4307W        W20116   8.287   0.283   9.853  0.0405 -0.2638 -0.2492
 4308W        W20117   2.082  13.851  14.411 -0.2198 -0.1275  0.0818
 4309W        W20118  11.203  13.344   4.705 -0.2467  0.2221  0.1197
 4310W        W20119   9.102  19.103   2.129 -0.2085  0.1323  0.0972
 4311W        W20120   8.915   9.127  10.394  0.1765 -0.2440  0.2810
 4312W        W20121   6.132   6.340  11.963  0.1334  0.2428 -0.0317
 4313W        W20122   0.663   1.606  11.757 -0.0149  0.4419 -0.2383
 4314W        W20123   1.314   1.468   3.400 -0.2224  0.0866  0.2200
 4315W        W20124  18.002   5.157   0.707 -0.0640  0.1558  0.0029
 4316W        W20125   8.493  14.501  11.167 -0.0474 -0.0589  0.1805
 4317W        W20126   8.471  17.954  10.722  0.1923  0.2350 -0.0071
 4318W        W20127  13.680   9.127  14.673  0.1847  0.1986 -0.0483
 4319W        W20128  14.727  18.587   3.190 -0.0667 -0.0285 -0.0498
 4320W        W20129  17.999  12.620   5.240 -0.2217 -0.1112 -0.0685
 4321W        W20130  13.963   3.250  13.748  0.0534  0.0629  0.3986
 4322W        W20131  14.375   3.930  13.362  0.1616  0.3523 -0.1092
 4323W        W20132  13.545  16.632   4.199 -0.0026  0.1175  0.2276
 4324W        W20133   2.699  12.219   3.814 -0.0121 -0.1148  0.0133
 4325W        W20134   4.435   2.281   1.135 -0.0438  0.1908 -0.1574
 4326W        W20135  10.203  11.834  12.545 -0.2361  0.0805  0.2152
 4327W        W20136  19.126   9.325  11.536 -0.1236  0.2300 -0.1539
 4328W        W20137  17.611   5.486   2.785  0.2397  0.3480  0.4038
 4329W        W20138   5.798   3.663   1.807  0.2129 -0.0232  0.3601
 4330W        W20139   7.482  18.771  11.051 -0.1344  0.0402 -0.0683
 4331W        W20140   9.704   5.067   4.741 -0.3490 -0.2151  0.1458
 4332W        W20141   6.586  17.519   1.384 -0.0755 -0.0465 -0.2179
 4333W        W20142  15.136   8.370  11.425 -0.1907  0.0410 -0.2143
 4334W        W20143   5.392  15.930   4.972  0.3194  0.0350  0.0019
 4335W        W20144   0.836   4.175  14.358 -0.1153 -0.2477 -0.0120
 4336W        W20145   4.728  11.543   0.244  0.3635  0.0207  0.2465
 4337W        W20146  13.407  15.803   0.641 -0.3485  0.0542  0.2296
 4338W        W20147  12.087  18.546   4.580  0.2845 -0.0318  0.1360
 4339W        W20148   5.284   2.086  10.572 -0.0521  0.0507 -0.1711
 4340W        W20149   9.413  14.552  11.460  0.0448  0.0168  0.0587
 4341W        W20150   6.228  14.703  13.711 -0.2872 -0.0104 -0.0735
 4342W        W20151  11.420   7.856   1.259 -0.1206  0.3076  0.0183
 4343W        W20152  15.444  11.764   4.793 -0.1443  0.1762 -0.0236
 4344W        W20153  16.164  15.622   0.804  0.1239 -0.1634  0.4700
 4345W        W20154  13.678   6.233   0.346 -0.3648  0.0572 -0.1888
 4346W        W20155   5.021   3.017  10.870  0.3085  0.1520 -0.2675
 4347W        W20156   7.122  11.351   3.970  0.2053 -0.2454 -0.2607
 4348W        W20157  17.746   5.085  14.588 -0.0980  0.1292  0.1242
 4349W        W20158   9.462  15.622  12.571  0.3183 -0.3623 -0.0842
 4350W        W20159   1.971   3.332   0.955  0.3550  0.2159 -0.3018
 4351W        W20160   5.985  15.765  12.122 -0.0094  0.0007 -0.0215
 4352W        W20161   3.292  11.464   3.367  0.2105 -0.3352 -0.1714
 4353W        W20162   4.447  17.570   5.432 -0.0289  0.2848  0.0436
 4354W        W20163   5.835  16.164   1.566 -0.0714 -0.3166  0.0941
 4355W        W20164   2.281  17.791   0.545  0.1659  0.3098  0.2819
 4356W        W20165   2.338  15.137  12.141 -0.1637 -0.0113 -0.4193
 4357W        W20166   7.717  17.847  14.573  0.1948 -0.0135  0.1831
 4358W        W20167   9.911  17.978  10.558  0.0535 -0.0737 -0.1239
 4359W        W20168  16.935   9.781  13.341 -0.3785 -0.0371 -0.5040
 4360W        W20169  11.400  17.294   0.416 -0.1261  0.0273  0.1974
 4361W        W20170   0.132   6.058  10.396 -0.0300 -0.0711 -0.2054
 4362W        W20171   0.330   7.284   5.284  0.0404 -0.3931 -0.3325
 4363W        W20172   1.461  16.960   3.255 -0.0829  0.1115 -0.0286
 4364W        W20173  15.335  12.708   3.934  0.0659  0.0379 -0.0681
 4365W        W20174  17.642   0.543   4.986 -0.2209 -0.1136  0.0976
 4366W        W20175  15.393   7.279   1.298  0.2414  0.0243  0.0820
 4367W        W20176  10.872  17.214   3.058 -0.0227  0.4008  0.1233
 4368W        W20177   6.424  13.620  11.069 -0.0296 -0.1493 -0.1775
 4369W        W20178  11.005  10.635   1.432  0.0203 -0.0827 -0.0344
 4370W        W20179  12.582  12.974  14.785 -0.0729  0.0671  0.0856
 4371W        W20180  12.649  14.522  13.119 -0.4166 -0.5678  0.1028
 4372W        W20181  17.604  14.838  11.125 -0.2066 -0.0118 -0.1570
 4373W        W20182  13.294   8.315   1.702 -0.2001  0.1745  0.0087
 4374W        W20183  15.796   2.273  14.398  0.2390  0.0695 -0.1077
 4375W        W20184  11.994   8.045  14.451  0.2798  0.0341  0.0949
 4376W        W20185  18.911   3.844   4.325 -0.3157  0.4055  0.3961
 4377W        W20186   4.996  18.956   5.271 -0.0242 -0.0527 -0.1554
 4378W        W20187   6.982   5.129   3.654 -0.2080 -0.0074 -0.2597
 4379W        W20188   9.198   4.878   1.837  0.0009  0.2189  0.0625
 4380W        W20189   7.635   8.630   1.718 -0.2745 -0.0715  0.1643
 4381W        W20190   5.376   7.637  13.215 -0.1426 -0.2519  0.3387
 4382W        W20191  11.590   7.141  10.206  0.1187  0.1355 -0.0970
 4383W        W20192   7.290  14.680   2.519  0.1335 -0.1251  0.3086
 4384W        W20193  13.885  15.733  14.486 -0.1532 -0.4574 -0.1053
 4385W        W20194   1.511  13.694   3.980 -0.0880 -0.1056  0.0031
 4386W        W20195  16.043   9.016  12.518  0.3322 -0.0861  0.0312
 4387W        W20196  17.876   1.872  11.599  0.0324  0.4363  0.1670
 4388W        W20197  12.966   5.550   5.578 -0.2341  0.0654  0.0798
 4389W        W20198  13.805   8.955   1.574 -0.0199 -0.2815  0.1332
 4390W        W20199  15.248  11.262  13.128  0.3287 -0.2191 -0.3114
 4391W        W20200   7.868   7.571   9.741  0.4153  0.0228  0.0338
 4392W        W20201  10.659   6.818  11.729  0.1752  0.2598  0.4797
 4393W        W20202  13.840   7.414  13.411 -0.2542 -0.0162 -0.3444
 4394W        W20203  17.205  11.392   1.627 -0.1998  0.3685 -0.0603
 4395W        W20204  11.684  13.339   2.692  0.1439  0.1060  0.2767
 4396W        W20205   5.933  18.298  10.961  0.0018  0.0976 -0.0291
 4397W        W20206   2.519  11.968   1.225 -0.0295  0.2554 -0.2339
 4398W        W20207  14.971  12.929   2.184 -0.0843  0.1478  0.0848
 4399W        W20208   0.139  17.782   6.210 -0.0681  0.3334 -0.2856
 4400W        W20209   9.043  19.126  13.264 -0.0266 -0.1884  0.1440
 4401W        W20210   9.376   8.138   3.561 -0.2643  0.0949 -0.0269
 4402W        W20211   3.981   2.996   2.608  0.1593  0.0836 -0.1472
 4403W        W20212  11.850  14.687   1.839  0.2636 -0.1122 -0.1383
 4404W        W20213   0.526  14.994  11.327  0.5121 -0.1288  0.0164
 4405W        W20214  14.923  16.434   1.085  0.0068  0.2825  0.0764
 4406W        W20215  10.378  13.802   4.612  0.3085  0.3160 -0.3359
 4407W        W20216   0.177  17.032   2.969 -0.0696 -0.0565 -0.1045
 4408W        W20217  10.408   8.331   4.404  0.0032  0.2232 -0.2143
 4409W        W20218   6.803   8.019   4.954 -0.0140  0.1558 -0.2435
 4410W        W20219   1.453  10.515  10.546  0.3920  0.1545  0.0658
 4411W        W20220   8.950  17.124  13.667 -0.0196  0.0435 -0.1559
 4412W        W20221  15.916  14.748   5.582 -0.1735 -0.3166 -0.0414
 4413W        W20222  13.757  18.569  11.178 -0.5493 -0.2841  0.1163
 4414W        W20223  15.376   2.691   0.554  0.0848  0.2286 -0.2922
 4415W        W20224  10.065   4.779   3.490  0.0537 -0.0083  0.1725
 4416W        W20225  17.489   7.003  14.911  0.0971  0.0427  0.0444
 4417W        W20226   4.968   5.800  14.858  0.2807  0.1834 -0.0155
 4418W        W20227   9.193  18.889   0.139  0.2165 -0.1503 -0.1146
 4419W        W20228   1.931  11.883  11.977 -0.1893  0.2645 -0.2333
 4420W        W20229   7.015  11.213  12.360  0.5177 -0.0200  0.1159
 4421W        W20230   9.120  11.084   5.292  0.0348  0.0477  0.0678
 4422W        W20231  10.831   0.150   9.753  0.1933  0.1982  0.3299
 4423W        W20232   7.156   1.955   2.665  0.0221  0.3208 -0.2411
 4424W        W20233  14.942   4.351  10.718  0.1387 -0.0736  0.0325
 4425W        W20234   4.445   1.482   9.135  0.0962  0.3077  0.1622
 4426W        W20235   6.569   7.136   3.875  0.2393  0.0594  0.1149
 4427W        W20236   0.981   9.627   2.528 -0.0524 -0.2934  0.2125
 4428W        W20237   7.149  11.615   0.587 -0.1354  0.3771 -0.0686
 4429W        W20238   1.760   1.191  13.929  0.3838 -0.0513  0.0294
 4430W        W20239   9.821   5.946   4.986 -0.0431  0.0977 -0.1239
 4431W        W20240   0.199  14.010   2.956  0.3115  0.1103 -0.1239
 4432W        W20241  13.646  13.705   2.662  0.0562 -0.0976 -0.4940
 4433W        W20242   2.508  14.601  14.049 -0.0694 -0.1130 -0.1380
 4434W        W20243   7.329   2.611   2.244  0.0031 -0.0575 -0.1555
 4435W        W20244  16.663  16.549   0.370 -0.0068  0.0445 -0.0239
 4436W        W20245  10.642  13.749   0.658 -0.2273 -0.3021 -0.0952
 4437W        W20246   8.159  11.621   4.467  0.0572  0.1218  0.0001
 4438W        W20247  11.634   1.765   3.580  0.0599 -0.1557  0.2127
 4439W        W20248  17.674   5.657  12.382  0.2346  0.0699 -0.2817
 4440W        W20249  19.032   8.074   0.566 -0.0323 -0.1323  0.3401
 4441W        W20250  10.246  13.913   5.681 -0.1945 -0.2258 -0.1735
 4442W        W20251   2.880  16.863  14.317 -0.2359  0.1696  0.0664
 4443W        W20252  18.531   8.927   1.000 -0.0905 -0.0441  0.2175
 4444W        W20253  18.273  13.434   1.008 -0.1687 -0.1457 -0.0850
 4445W        W20254   7.206  12.018   2.824 -0.1086 -0.4563  0.1921
 4446W        W20255  16.002   8.171  10.334 -0.0791 -0.1305  0.2028
 4447W        W20256   7.505   8.832  10.779  0.0668 -0.3622 -0.1643
 4448W        W20257   7.885   8.145  11.811 -0.0940  0.0492 -0.1033
 4449W        W20258   2.748   4.308   4.605  0.1468 -0.1083 -0.3156
 4450W        W20259   1.534  13.631  15.244 -0.2628 -0.2297  0.2034
 4451W        W20260   1.806   5.727   0.737 -0.0808 -0.1712  0.4454
 4452W        W20261   3.804   7.582  10.175  0.2128  0.0664  0.1115
 4453W        W20262   4.190   1.473  10.400 -0.0054 -0.0895 -0.0269
 4454W        W20263   7.164   3.023  13.913  0.0217  0.0212 -0.1186
 4455W        W20264   7.001   6.287  10.798 -0.1162 -0.0048 -0.1908
 4456W        W20265  18.073  10.312   4.676  0.2868 -0.0367 -0.1783
 4457W        W20266  17.738   3.893   3.257  0.0810 -0.2501  0.1649
 4458W        W20267   8.287   3.222  10.122  0.0610 -0.0587 -0.2825
 4459W        W20268  11.142  14.251   5.196  0.0773  0.0044  0.0522
 4460W        W20269  18.047  17.750  14.256 -0.0916  0.1355 -0.2940
 4461W        W20270   5.981   0.803  13.780  0.0449 -0.2475  0.0031
 4462W        W20271   1.739   7.822  10.738  0.1752 -0.2770 -0.2369
 4463W        W20272   8.299  18.098  13.751 -0.1464 -0.1831 -0.2896
 4464W        W20273   3.297   6.792   3.490  0.2971 -0.0105 -0.3374
 4465W        W20274  10.244   3.794  11.182  0.0976 -0.3168 -0.1797
 4466W        W20275  13.761  10.448   3.724  0.1725  0.0653 -0.2796
 4467W        W20276   8.680   2.031   2.552  0.0551  0.0014  0.5080
 4468W        W20277  12.228   6.141   1.128 -0.0168 -0.0445  0.2451
 4469W        W20278  15.281   7.263  14.101 -0.1132  0.0359 -0.0888
 4470W        W20279  17.004  15.009   2.578 -0.1705 -0.1510  0.0618
 4471W        W20280  10.168  16.804   1.012 -0.0211  0.2395 -0.2458
 4472W        W20281  11.190   0.468  12.864  0.1701  0.0484  0.4321
 4473W        W20282  18.678   8.336   4.782 -0.0392  0.1849  0.0396
 4474W        W20283  13.549  11.076   1.556  0.2539 -0.1233  0.0392
 4475W        W20284  17.143   3.494  15.266  0.0241  0.5591  0.1817
 4476W        W20285   6.810  13.471   2.210  0.1059  0.0903  0.0709
 4477W        W20286   5.887  12.698  12.071  0.4598 -0.1473 -0.0239
 4478W        W20287   6.084   2.734   3.386  0.1860 -0.2189  0.1317
 4479W        W20288  17.405  13.525  14.083 -0.0190 -0.0582 -0.2107
 4480W        W20289  12.671  10.501  14.544 -0.1342 -0.0396  0.2930
 4481W        W20290   9.782  14.382   3.438 -0.0293  0.0808  0.1547
 4482W        W20291  12.061   3.237   2.731 -0.0107  0.0921  0.2124
 4483W        W20292   4.895  14.143  10.492 -0.1705  0.3558  0.0513
 4484W        W20293   6.666  17.223   3.652  0.0366  0.1945  0.0551
 4485W        W20294   0.710  14.658  10.438  0.3473 -0.1049  0.1425
 4486W        W20295   5.904   1.747   3.699 -0.0122  0.2419 -0.0205
 4487W        W20296   3.356   8.810  11.461 -0.2166 -0.2351  0.1172
 4488W        W20297   9.625  13.511   1.879 -0.1610  0.1421 -0.2121
 4489W        W20298   9.706  17.697  10.243 -0.2184 -0.0068 -0.2255
 4490W        W20299   8.151   4.704   3.313 -0.1395 -0.4319 -0.0163
 4491W        W20300  12.592  13.982  14.756  0.0009 -0.3832 -0.0769
 4492W        W20301   7.738  10.912  10.398  0.0184 -0.0903  0.0754
 4493W        W20302   7.212   5.779  10.968  0.0197 -0.1454  0.0374
 4494W        W20303   4.964  10.272  10.214  0.0159  0.0052  0.2123
 4495W        W20304   6.030   0.712  10.481  0.0293 -0.3314  0.0089
 4496W        W20305   1.386  16.763  13.119 -0.0649  0.0440  0.1069
 4497W        W20306   5.165  15.598  13.696 -0.0747 -0.0050  0.0264
 4498W        W20307  14.535   0.486   2.834 -0.0421 -0.1578 -0.4003
 4499W        W20308  12.487   5.206   0.243 -0.3295  0.0981 -0.0099
 4500W        W20309   2.656  13.613   2.089  0.4539 -0.2974  0.0592
 4501W        W20310   5.628   5.354   2.322  0.3851 -0.0604  0.1970
 4502W        W20311  17.353  18.257  14.790 -0.1670  0.0885  0.2753
 4503W        W20312  12.942   3.763  13.760  0.1608  0.2990 -0.0591
 4504W        W20313   8.896   5.104   2.710  0.0429  0.1606 -0.0075
 4505W        W20314  12.477  12.056  12.106 -0.0412 -0.4706  0.0717
 4506W        W20315   4.099   8.459   2.184  0.2183  0.1452 -0.2488
 4507W        W20316   4.909   9.996   1.648  0.1812  0.0292  0.3632
 4508W        W20317  10.354   9.752  10.544 -0.0971 -0.3768  0.1560
 4509W        W20318  14.137   7.956   0.578 -0.0594  0.0171 -0.1562
 4510W        W20319  11.152  15.807  15.170  0.1113 -0.2119 -0.2067
 4511W        W20320   5.369   1.222  11.021 -0.0143 -0.0199  0.2852
 4512W        W20321   9.228   5.474   2.640 -0.0773 -0.1632  0.3316
 4513W        W20322   7.686  10.004  14.245 -0.2288  0.2174  0.2278
 4514W        W20323  11.949  11.856  13.656  0.1547  0.1928 -0.2351
 4515W        W20324   6.242  18.403   4.943 -0.1066 -0.0675  0.1363
 4516W        W20325   8.146   5.891   3.265 -0.3850  0.1359  0.4126
 4517W        W20326   5.744  14.180   9.873 -0.0289 -0.1379 -0.0711
 4518W        W20327   8.336   2.104  10.866 -0.1101 -0.0918 -0.1118
 4519W        W20328  19.013  10.444  14.347  0.2109  0.0469 -0.1082
 4520W        W20329   0.334  17.503  11.421  0.1213  0.0666 -0.2194
 4521W        W20330   0.041  17.900  13.904 -0.0280  0.0875  0.0553
 4522W        W20331   0.013   1.471  14.780 -0.2985  0.3035 -0.0859
 4523W        W20332  18.457   7.584  14.609  0.2810 -0.1559 -0.1654
 4524W        W20333   5.114  12.133   5.432  0.0460  0.2155  0.4964
 4525W        W20334  19.025   5.449  12.962 -0.0710 -0.2396 -0.1291
 4526W        W20335   4.282   5.761   2.173 -0.1534 -0.1564  0.1661
 4527W        W20336  16.558  10.553  12.381 -0.2761  0.0162 -0.0001
 4528W        W20337  11.804   4.466  12.218 -0.0952 -0.1036 -0.1134
 4529W        W20338  11.123  18.057  12.257 -0.0543  0.1396 -0.0383
 4530W        W20339  12.400  17.596   9.906  0.4395 -0.1177  0.2667
 4531W        W20340   7.822  13.373  12.379  0.1348 -0.3485  0.1586
 4532W        W20341  12.498  13.078  13.758 -0.0805  0.0589  0.0177
 4533W        W20342  18.727  16.212  15.060 -0.0777  0.1523 -0.0746
 4534W        W20343   4.279   1.688  12.221 -0.0155  0.3864  0.0155
 4535W        W20344  14.964   9.698   3.915  0.0025 -0.2739  0.1649
 4536W        W20345  15.068  18.372  15.190 -0.0666  0.2160  0.1574
 4537W        W20346   0.238   2.894   4.554 -0.1807  0.0678 -0.0233
 4538W        W20347   3.403  14.487   3.195  0.1151 -0.0612  0.1163
 4539W        W20348   2.017  11.106   1.829 -0.2608  0.1966 -0.2854
 4540W        W20349   2.920   8.802   0.093  0.0763  0.0527 -0.1837
 4541W        W20350   1.940  18.837  15.005  0.0338 -0.2720  0.1763
 4542W        W20351   8.838   2.568   1.997 -0.0493 -0.0497 -0.1039
 4543W        W20352  16.187  10.908  12.121  0.3259 -0.1115  0.2119
 4544W        W20353  13.511   9.156  13.843 -0.0095  0.4008  0.2241
 4545W        W20354  17.246   5.874  12.598 -0.0832  0.1694  0.0087
 4546W        W20355  12.375   0.920  12.205 -0.0011  0.1007  0.1386
 4547W        W20356   6.845  13.221  10.523 -0.2919  0.0145 -0.0301
 4548W        W20357  16.164  15.769   2.760  0.0861 -0.4105  0.1668
 4549W        W20358  18.828   5.877  10.711 -0.2225  0.0126  0.4429
 4550W        W20359   4.994   9.610  11.635 -0.1720 -0.0594 -0.1691
 4551W        W20360   1.996  16.596  14.251 -0.0925  0.2448  0.2219
 4552W        W20361   6.335   8.480   0.282 -0.0058 -0.0847  0.1671
 4553W        W20362   5.786  12.517   1.134  0.0005 -0.0852  0.2324
 4554W        W20363   8.796  15.851  12.050 -0.0070 -0.4263  0.3632
 4555W        W20364  18.110   8.007   5.462 -0.0801 -0.0111  0.0648
 4556W        W20365  14.054  15.745   3.657  0.2316 -0.0146  0.0821
 4557W        W20366  12.422   3.176  13.382  0.2819  0.0983 -0.2162
 4558W        W20367   5.682  15.196   3.038 -0.0907 -0.1113 -0.1391
 4559W        W20368  10.300  13.122  13.327 -0.1795 -0.1236  0.4022
 4560W        W20369   4.140   0.173   2.219  0.0469  0.2327  0.0463
 4561W        W20370  17.548  18.434   1.369 -0.0030 -0.1123 -0.0560
 4562W        W20371   9.196  15.073  10.559 -0.2869 -0.0465 -0.0137
 4563W        W20372  14.751   3.932   3.597  0.2290  0.1372 -0.1006
 4564W        W20373   8.175   9.072   2.898 -0.0497  0.1733  0.1515
 4565W        W20374  16.084   7.790  13.780  0.1034 -0.0891  0.0034
 4566W        W20375  10.084   1.103   0.252  0.1117 -0.0605  0.3384
 4567W        W20376  12.070  12.432  14.904 -0.2351 -0.0281  0.0339
 4568W        W20377  12.976   9.239   3.846 -0.1340  0.1403  0.1767
 4569W        W20378   7.534   9.848   1.903  0.4826  0.4122  0.3079
 4570W        W20379  15.261  11.177  14.460 -0.2240 -0.1941 -0.2870
 4571W        W20380   5.328  14.202  10.227 -0.0815  0.3047  0.1536
 4572W        W20381   8.649  14.287   0.028  0.0531 -0.1331  0.2260
 4573W        W20382   4.179  17.010   1.239  0.0915 -0.2512 -0.1847
 4574W        W20383  10.594  15.971   0.533 -0.0180  0.2962 -0.0107
 4575W        W20384   7.076   0.525  10.373  0.1373  0.3350 -0.0530
 4576W        W20385   2.463  17.568  13.109  0.2143 -0.0399 -0.4523
 4577W        W20386   4.263  17.465   2.587 -0.2094 -0.0581  0.1493
 4578W        W20387   3.648   4.840  10.709 -0.1170 -0.1331 -0.0662
 4579W        W20388   8.590   4.440  13.080 -0.0263 -0.0326  0.1968
 4580W        W20389   8.846   6.422  15.021  0.5534 -0.4912 -0.2674
 4581W        W20390   8.673  16.172   1.271 -0.1880 -0.0481 -0.0502
 4582W        W20391  16.528  10.598   3.233  0.0758  0.0546  0.1028
 4583W        W20392   1.010  13.212  13.748 -0.2764 -0.0244  0.1247
 4584W        W20393   5.338  16.408  14.868  0.0290  0.0423 -0.0058
 4585W        W20394  19.034  16.432   3.757 -0.0883  0.1758 -0.0177
 4586W        W20395   9.248  10.482   1.575 -0.6003 -0.1106  0.4947
 4587W        W20396   6.699   3.639   5.213 -0.2570  0.2021  0.0344
 4588W        W20397   5.318  18.365   1.141 -0.0107  0.3644  0.1082
 4589W        W20398  15.922  10.626  13.271 -0.0113  0.0991  0.0025
 4590W        W20399   2.879   5.437  12.234 -0.0150  0.1328 -0.0985
 4591W        W20400  16.478   1.913  14.863  0.1564  0.1956 -0.0384
 4592W        W20401   3.325   6.037   2.350  0.1520 -0.0183  0.0040
 4593W        W20402  15.347  18.113  13.007 -0.2737 -0.2872  0.0490
 4594W        W20403  19.008   6.157   4.675  0.0697  0.2053 -0.2635
 4595W        W20404   6.327   3.386   1.866 -0.1156  0.2049 -0.2418
 4596W        W20405   1.745  13.413  14.381 -0.0096 -0.0111 -0.1025
 4597W        W20406   4.065   3.121   4.086 -0.0521 -0.1668 -0.0495
 4598W        W20407   6.954   1.737   3.744 -0.0080  0.1546 -0.1018
 4599W        W20408  12.786   1.860  11.800  0.3722 -0.0487  0.2091
 4600W        W20409  14.043  12.872  11.624 -0.3701 -0.1206  0.2489
 4601W        W20410   6.406  14.696   4.295  0.0976  0.1779  0.2608
 4602W        W20411  18.334  13.878  10.862  0.0695 -0.2031  0.0706
 4603W        W20412   4.662  16.905  12.856  0.1556 -0.2718 -0.0301
 4604W        W20413   6.637  18.792  13.958  0.0219  0.1170  0.0950
 4605W        W20414  13.805  12.423   5.768  0.0748  0.0952 -0.3960
 4606W        W20415   3.539  14.281  10.968  0.1631  0.4085 -0.2918
 4607W        W20416   3.079  16.101  12.957 -0.1384 -0.0721 -0.0110
 4608W        W20417   1.052   8.792   2.421 -0.0469  0.1774 -0.1556
 4609W        W20418   2.919   3.385  14.582 -0.1774  0.3353 -0.0461
 4610W        W20419  10.987   1.626  13.945 -0.1667 -0.1446  0.0288
 4611W        W20420   6.790  14.496  10.656  0.1148 -0.0928  0.0994
 4612W        W20421   3.864   3.527  15.186 -0.0579 -0.0793 -0.1564
 4613W        W20422   3.134   9.854   3.293 -0.0299 -0.2108  0.1611
 4614W        W20423   1.098  11.598   1.668 -0.0121 -0.3076  0.0855
 4615W        W20424   1.781  10.300  14.311  0.2997  0.1826 -0.0386
 4616W        W20425  11.196  18.089   2.696  0.2989  0.1862 -0.0264
 4617W        W20426  12.016   9.256  14.244  0.1918 -0.2794  0.3554
 4618W        W20427   9.654   1.310   0.933 -0.0485 -0.2414  0.0719
 4619W        W20428   9.588  14.981   1.581 -0.3184 -0.4433 -0.1198
 4620W        W20429   4.949   6.685   0.600  0.0329  0.1051  0.1218
 4621W        W20430   9.663   0.340   1.975 -0.1119  0.0856 -0.2575
 4622W        W20431  11.029   4.237  14.760  0.0293  0.1483 -0.4850
 4623W        W20432  11.910  19.027   5.520  0.1348  0.0935  0.2049
 4624W        W20433  17.328  10.152   3.301 -0.1750  0.1654  0.1722
 4625W        W20434  13.601   3.735  13.915  0.1979 -0.3884  0.0901
 4626W        W20435  16.555   9.503  14.530  0.0343 -0.0866  0.1639
 4627W        W20436  16.244  10.694   1.846 -0.1298 -0.2539 -0.1576
 4628W        W20437  16.934  17.218  12.486 -0.0804  0.2941  0.0937
 4629W        W20438   7.502   1.814   3.098 -0.1952  0.0570 -0.0778
 4630W        W20439  10.865   1.169   4.117 -0.0472 -0.0822  0.2458
 4631W        W20440   1.645  11.839  13.926 -0.2236  0.3707 -0.1228
 4632W        W20441   1.301   4.867  10.330  0.1930 -0.1008  0.0975
 4633W        W20442  11.145  16.411  14.306 -0.0643  0.0715 -0.3217
 4634W        W20443  14.575  14.913  12.036 -0.2489  0.5253 -0.0047
 4635W        W20444   0.033  10.876  12.439 -0.1671  0.0246  0.1831
 4636W        W20445   5.448   8.101   1.021  0.1419 -0.3480  0.2363
 4637W        W20446  17.285  15.522   3.378  0.0203 -0.2651 -0.3638
 4638W        W20447  15.762  12.878   0.585  0.2942  0.1186 -0.3207
 4639W        W20448  13.870   5.987  10.758  0.0858 -0.0556  0.2286
 4640W        W20449   3.344  11.240   0.897  0.3001 -0.3227  0.2782
 4641W        W20450  11.321  10.730  11.619  0.1878 -0.0456 -0.3009
 4642W        W20451  10.750  15.601  14.846 -0.0826  0.3330  0.1504
 4643W        W20452   7.952  18.175   1.279  0.1696  0.2496  0.0160
 4644W        W20453   6.049  17.476  12.095 -0.1476  0.3974 -0.1506
 4645W        W20454   7.727  17.866   3.273 -0.0083 -0.4043  0.0273
 4646W        W20455  13.648   9.277   0.726 -0.0172 -0.0927 -0.1565
 4647W        W20456   6.740   0.085  14.165 -0.0760 -0.0642  0.0483
 4648W        W20457   4.951   7.582   1.595 -0.0905 -0.3476  0.1115
 4649W        W20458  13.355   5.324  11.776  0.0279  0.1854 -0.1639
 4650W        W20459   7.691   7.212   1.841 -0.1475  0.0830  0.0211
 4651W        W20460   6.222  17.608   9.920  0.1084  0.2826 -0.0294
 4652W        W20461  11.683   1.614  13.318  0.0091  0.1280  0.0157
 4653W        W20462   7.860  12.320   5.268 -0.3303 -0.2667  0.3483
 4654W        W20463   0.725   0.372  12.229  0.0388 -0.1116  0.3078
 4655W        W20464  12.755   8.846  10.451 -0.2439 -0.0355  0.0222
 4656W        W20465   9.432  17.789   5.461  0.1749 -0.3764  0.3970
 4657W        W20466  14.677  14.965   3.787  0.2235 -0.1110 -0.1722
 4658W        W20467   0.366   0.121  14.638 -0.1699 -0.3407  0.0941
 4659W        W20468  14.933  12.007   1.807  0.0483  0.0617  0.2681
 4660W        W20469  10.632  10.110   3.787  0.1167  0.3513 -0.3640
 4661W        W20470  15.374   2.226   2.689 -0.2534  0.3183 -0.1080
 4662W        W20471  19.024   8.451  15.094  0.1136 -0.3903  0.1487
 4663W        W20472   5.518  14.012  14.249 -0.2592  0.3984 -0.2628
 4664W        W20473   3.968   9.935  11.902 -0.0170  0.0813  0.0254
 4665W        W20474   6.396   8.470   4.053 -0.0800 -0.1554  0.2273
 4666W        W20475   3.180  17.529   2.505  0.0475  0.0777  0.0539
 4667W        W20476   8.336  13.150   5.155 -0.0145 -0.1255  0.0618
 4668W        W20477  11.689  15.824  14.369 -0.0434 -0.0558 -0.0666
 4669W        W20478  15.254  12.962   2.588 -0.3496 -0.0282 -0.1769
 4670W        W20479   2.771  15.214  10.551  0.0864 -0.0336  0.2207
 4671W        W20480   3.661  19.127   2.397  0.1053  0.2795 -0.1306
 4672W        W20481  14.119  14.542   0.657  0.2267 -0.2078  0.0378
 4673W        W20482  16.859   7.122  11.086  0.1086  0.3745  0.0087
 4674W        W20483  10.565  11.339   3.211  0.0774 -0.2913 -0.2415
 4675W        W20484   1.414  17.837   5.269  0.0917 -0.0356  0.0762
 4676W        W20485   1.522   4.610  14.833 -0.0861 -0.2973 -0.1908
 4677W        W20486   9.623   7.300  14.983  0.1004 -0.0993 -0.3147
 4678W        W20487   7.731  17.627  13.476  0.0485  0.1915 -0.1162
 4679W        W20488   5.148   6.411   3.293 -0.1276 -0.4156  0.1522
 4680W        W20489   4.356  18.965   1.015  0.4823  0.2105 -0.2687
 4681W        W20490   7.617  17.751   2.073  0.1234 -0.0817  0.2083
 4682W        W20491   9.893  15.317   2.495  0.2620 -0.0482 -0.0653
 4683W        W20492  18.190  16.360   4.881  0.1952  0.2370  0.1187
 4684W        W20493   5.792  17.312  13.688 -0.0382  0.0354  0.0262
 4685W        W20494   7.644  10.606   8.968  0.0411 -0.0026 -0.1547
 4686W        W20495   7.023  11.574   0.094  0.0327  0.0674 -0.0485
 4687W        W20496   1.334  12.423  11.185  0.0859  0.0679  0.1322
 4688W        W20497  10.242   1.555  10.679 -0.0485 -0.3184  0.3502
 4689W        W20498   1.484   4.408  10.464 -0.2553 -0.3849  0.0726
 4690W        W20499  11.120  12.163   0.192  0.2393 -0.2227 -0.0896
 4691W        W20500   3.679   7.947   4.365  0.0013  0.3358 -0.2557
 4692W        W20501   8.898   4.596  11.901 -0.2673 -0.1009  0.4195
 4693W        W20502  10.231  12.478  12.652 -0.0083 -0.0693  0.0570
 4694W        W20503  13.048   7.426  13.275  0.2266  0.1532 -0.0813
 4695W        W20504   8.275   7.268  11.644 -0.1397 -0.1304 -0.0937
 4696W        W20505  13.060  11.754  14.229  0.1008  0.2176 -0.3681
 4697W        W20506  16.445   3.542   5.193  0.0769 -0.1563  0.0806
 4698W        W20507   3.304  14.086  10.543  0.0508 -0.1885 -0.1349
 4699W        W20508  11.488  10.003   5.516 -0.2326  0.0663  0.0217
 4700W        W20509   9.510   8.519  13.833  0.1547 -0.0622  0.0498
 4701W        W20510   7.099   8.438   4.003  0.2392  0.0508  0.2510
 4702W        W20511   0.302   2.707   3.235  0.1704 -0.0274  0.0507
 4703W        W20512  10.538   1.140   0.028  0.0970  0.0622  0.3014
 4704W        W20513  10.925   3.229   0.521  0.0776  0.0017  0.2459
 4705W        W20514  10.405   0.100   2.784 -0.1739  0.3162  0.0393
 4706W        W20515   7.967   8.643  14.953 -0.2994 -0.1226 -0.1785
 4707W        W20516   7.217   3.551   5.413  0.2042  0.0358 -0.3360
 4708W        W20517   1.242   8.859   0.949 -0.3214 -0.0974 -0.0843
 4709W        W20518   5.508   4.499   0.609 -0.0926  0.1984  0.0442
 4710W        W20519   3.513   5.834   5.415 -0.2196 -0.0780  0.0102
 4711W        W20520  17.523  17.682   3.998 -0.2024  0.0917 -0.3970
 4712W        W20521   2.451   7.290  11.337 -0.2880 -0.2739 -0.0419
 4713W        W20522   0.440  13.252  12.462  0.2018  0.0470 -0.0441
 4714W        W20523   5.325   9.868   1.168  0.0258 -0.1962 -0.1485
 4715W        W20524  17.628  18.695   3.492  0.1913 -0.1510 -0.2138
 4716W        W20525   5.235   3.366   0.561 -0.1673  0.3116 -0.0372
 4717W        W20526  10.146  16.142   2.713 -0.0671  0.2047  0.2399
 4718W        W20527  17.941  10.264   1.931  0.2556 -0.1088 -0.0095
 4719W        W20528   1.244  15.381  11.937  0.1828  0.0493  0.2394
 4720W        W20529  13.349  15.322  13.212 -0.0495 -0.2892 -0.1002
 4721W        W20530  10.843  18.070   3.840  0.0897 -0.1521  0.0901
 4722W        W20531  10.522  12.733  12.265  0.0780  0.0164  0.0968
 4723W        W20532   3.841  16.697  14.571 -0.0955 -0.0671  0.0249
 4724W        W20533   2.810  18.894   2.154 -0.0430  0.4646 -0.1025
 4725W        W20534   7.596   6.925   0.966 -0.2223  0.1780 -0.3746
 4726W        W20535  13.665   0.388   4.603 -0.0329  0.1267  0.0163
 4727W        W20536   2.543  15.772   3.527  0.1567 -0.0835 -0.1413
 4728W        W20537   4.269  10.892  12.233  0.2367 -0.1584  0.0020
 4729W        W20538  15.671   8.836  12.125  0.1081  0.1420  0.2129
 4730W        W20539   7.118  13.639   3.089 -0.0122  0.1485 -0.0098
 4731W        W20540   7.291  12.496  13.486 -0.1182  0.2797  0.2580
 4732W        W20541   6.567  10.419  14.447  0.2288 -0.2801  0.0810
 4733W        W20542  17.811  12.171  13.903 -0.1235 -0.3208  0.0002
 4734W        W20543  18.527  10.410  13.492  0.0993 -0.0043  0.1497
 4735W        W20544  15.973   0.060  10.408 -0.2192  0.2178 -0.0074
 4736W        W20545  18.028   5.985  11.392  0.2052  0.3517  0.2122
 4737W        W20546   6.868  18.729   1.495  0.1856 -0.2089  0.3021
 4738W        W20547   3.916  18.977  11.585 -0.3496 -0.0230 -0.1339
 4739W        W20548  15.759   2.676  13.647 -0.0714 -0.0614  0.0349
 4740W        W20549  13.814   1.617   1.711 -0.0984  0.2666  0.1716
 4741W        W20550   6.785  10.948  14.616  0.4630  0.2219 -0.1748
 4742W        W20551  11.870   0.251   1.633 -0.3466 -0.0821  0.0155
 4743W        W20552   4.534  14.209   5.483 -0.1822  0.0949 -0.2904
 4744W        W20553  12.095   4.718  14.861 -0.1053  0.1237 -0.0182
 4745W        W20554   2.032   2.237   0.932 -0.1335 -0.1581 -0.2836
 4746W        W20555   4.132  14.451  14.541 -0.3355 -0.0693  0.1771
 4747W        W20556   5.759   6.047  11.162 -0.1046 -0.1942 -0.0137
 4748W        W20557   3.318  10.101  14.970 -0.0570  0.0236 -0.2389
 4749W        W20558   5.305   0.267  12.986  0.0052  0.0914  0.0453
 4750W        W20559   3.067  10.504  10.901 -0.0499  0.0081  0.0322
 4751W        W20560  13.186   0.359   1.366  0.2965 -0.0282 -0.0361
 4752W        W20561  14.549  12.820   4.751  0.0403  0.2352 -0.2867
 4753W        W20562  12.780  13.128  10.490 -0.2182 -0.0994 -0.1049
 4754W        W20563  10.818   1.499  14.986 -0.0216  0.1182  0.0045
 4755W        W20564   8.734  16.902   2.623 -0.1157  0.1200 -0.0027
 4756W        W20565  18.558  15.739  15.138  0.2136  0.0362 -0.0362
 4757W        W20566  10.306   5.961   9.974 -0.1911 -0.1522  0.1717
 4758W        W20567   4.231  13.059  11.552  0.1381 -0.0060  0.1348
 4759W        W20568  13.983  18.908   3.585  0.2269 -0.0319  0.0579
 4760W        W20569  13.738   5.528   1.188 -0.2253 -0.0418  0.0361
 4761W        W20570  17.435   4.292   2.978  0.2488  0.2429  0.1052
 4762W        W20571   0.567   6.990  14.572 -0.0609  0.0498 -0.1336
 4763W        W20572   9.178   6.379   0.264  0.5228  0.1859  0.0268
 4764W        W20573   6.259  11.288  11.762  0.1092 -0.0030  0.1559
 4765W        W20574  11.891   4.670  10.717 -0.3670 -0.1580  0.1258
 4766W        W20575  14.347  18.050   0.587 -0.3415  0.1135  0.2465
 4767W        W20576   4.463  11.563  12.482  0.4062  0.0549 -0.1073
 4768W        W20577  12.584   9.088   0.691  0.2537  0.1607 -0.0542
 4769W        W20578   3.976   2.938  14.761  0.1354 -0.0013  0.1336
 4770W        W20579  10.502   6.503  13.245  0.2258  0.1963 -0.0203
 4771W        W20580   9.514  13.411  10.594  0.2854  0.0849 -0.2433
 4772W        W20581   8.970  17.460   2.847  0.0463 -0.4811 -0.1444
 4773W        W20582  17.030   1.034   1.397  0.1130  0.2490 -0.3221
 4774W        W20583  11.594  12.984   4.783  0.0297  0.0877  0.1934
 4775W        W20584   2.781   5.861  13.541  0.1660  0.1846 -0.1498
 4776W        W20585  14.902  10.675  13.750 -0.0607  0.1037 -0.0122
 4777W        W20586   2.207  13.217   2.401  0.0521 -0.1872 -0.0161
 4778W        W20587  16.777  15.189   4.136  0.0793 -0.0057 -0.0136
 4779W        W20588   7.193   9.279  15.229  0.2482  0.0591  0.0309
 4780W        W20589  10.795   2.315  14.637 -0.0244  0.4092 -0.2173
 4781W        W20590  15.544   1.912   1.182 -0.0342  0.1638  0.0172
 4782W        W20591   6.191  12.382   2.692  0.2006  0.3402  0.0397
 4783W        W20592   1.872  19.115  10.303  0.0068 -0.3086  0.1456
 4784W        W20593   3.034   4.991  11.971  0.0036  0.1055 -0.2063
 4785W        W20594   3.476  17.315   3.987 -0.0170  0.1703 -0.0688
 4786W        W20595  16.548   7.025   4.057  0.0523  0.1147  0.2814
 4787W        W20596  13.070  12.244   1.161  0.1725  0.2139  0.2036
 4788W        W20597   2.340   7.496   4.739 -0.1027  0.1405 -0.1224
 4789W        W20598   5.670   2.642   1.570  0.4087 -0.2403 -0.0796
 4790W        W20599   3.797   3.338  12.909  0.0551  0.0494  0.0489
 4791W        W20600   7.737   0.548   3.824  0.2602  0.1273  0.0410
 4792W        W20601   7.542   0.230  12.228  0.1365  0.3278  0.1521
 4793W        W20602   0.497  13.587  12.795 -0.2914  0.1446 -0.0734
 4794W        W20603  17.890   4.054   4.240  0.1904 -0.0213 -0.1103
 4795W        W20604  14.233   9.071   2.395  0.0118 -0.1293  0.1157
 4796W        W20605   8.622   7.615   1.592 -0.1462 -0.0816 -0.0691
 4797W        W20606  13.857  16.383   5.977  0.3188 -0.1178  0.2425
 4798W        W20607  18.578  12.359   5.863  0.1773 -0.0441 -0.4708
 4799W        W20608  15.504   9.844   3.844  0.0755 -0.0711  0.0348
 4800W        W20609  17.784  10.891   3.958 -0.1254 -0.1552 -0.1383
 4801W        W20610   9.086   2.600   0.046 -0.1646  0.2733  0.0335
 4802W        W20611   9.077   8.171  14.956 -0.0452 -0.1390 -0.2590
 4803W        W20612  18.125  16.799   3.934 -0.0424 -0.1721 -0.2524
 4804W        W20613   6.938  13.177  11.043  0.5219 -0.1896 -0.2469
 4805W        W20614  16.736  14.525  13.302 -0.2454  0.0505 -0.0852
 4806W        W20615   5.526   0.241   9.886 -0.1085 -0.0757 -0.3251
 4807W        W20616   8.331   4.413   2.180 -0.1367 -0.1441  0.4188
 4808W        W20617  10.814   0.763  10.830  0.2967  0.0646  0.0114
 4809W        W20618   9.540   0.089  13.567 -0.1243  0.0492  0.2023
 4810W        W20619   8.412  10.310  14.543  0.3491  0.0226  0.1653
 4811W        W20620   1.016  12.375   4.030 -0.0617 -0.0242 -0.1070
 4812W        W20621   1.750   2.063  12.806  0.1711  0.3772 -0.1303
 4813W        W20622   3.935  15.530   2.074  0.2111 -0.0319  0.1208
 4814W        W20623   9.561   5.084   4.190  0.2349  0.3193  0.0200
 4815W        W20624  13.385  14.730  14.464 -0.0782 -0.2946 -0.3067
 4816W        W20625  10.061  14.491  14.199  0.1341 -0.0688  0.0603
 4817W        W20626  11.921  17.721  10.931  0.1970  0.1292  0.1564
 4818W        W20627   6.759  17.001   0.963  0.0757 -0.1753  0.0106
 4819W        W20628   9.194   1.243   4.342 -0.0350  0.0897 -0.2885
 4820W        W20629   5.299   0.569   1.589  0.0952  0.0963 -0.1063
 4821W        W20630  11.118   6.056  12.725  0.1215  0.0440  0.1809
 4822W        W20631   8.065   8.245  12.291  0.1491  0.0447  0.1843
 4823W        W20632  16.651  11.780   3.433 -0.0493 -0.3286  0.0581
 4824W        W20633  14.318   0.834   3.808  0.0431 -0.0826 -0.0192
 4825W        W20634   7.548  15.410   3.004 -0.1502 -0.0622 -0.1722
 4826W        W20635  11.534   4.792  15.155 -0.3005 -0.1277 -0.2089
 4827W        W20636  10.083   5.473  11.911 -0.3259 -0.0357 -0.4243
 4828W        W20637  18.017   0.571  13.712 -0.0946  0.0694 -0.1271
 4829W        W20638   5.736  13.592   4.082  0.1163  0.1937 -0.0648
 4830W        W20639   3.636   1.284   2.363 -0.0542 -0.0253  0.0875
 4831W        W20640   8.606  11.904  10.483  0.1105  0.0525  0.4510
 4832W        W20641  13.425   6.764   2.345 -0.1950  0.2266  0.4303
 4833W        W20642  14.715  17.860   2.443  0.1384  0.0626 -0.4547
 4834W        W20643   1.720  17.894  12.115  0.0630 -0.4959 -0.2163
 4835W        W20644  17.922   8.816  11.436 -0.2697  0.2083  0.0926
 4836W        W20645  13.948  15.447  12.526 -0.0758 -0.0164  0.1366
 4837W        W20646  15.330  18.520  13.323  0.1804  0.0987  0.1759
 4838W        W20647   7.416  12.456  10.958  0.1411  0.0117  0.0297
 4839W        W20648  10.102   7.386  11.671  0.0505 -0.2446 -0.0535
 4840W        W20649  10.244  16.730  11.817 -0.1476 -0.1550  0.2029
 4841W        W20650  16.605  10.011   0.386  0.3430 -0.3379  0.0218
 4842W        W20651   9.194  14.981  13.928  0.0986  0.1986 -0.0081
 4843W        W20652   3.093   9.725  10.435  0.1350  0.2429 -0.1896
 4844W        W20653  16.145   9.826   0.654  0.4982 -0.2652 -0.1363
 4845W        W20654  10.794   6.372  13.727 -0.0952  0.2703 -0.1500
 4846W        W20655   8.376   8.202  14.780  0.1395  0.2355  0.1053
 4847W        W20656   3.269   9.491   2.992 -0.1178 -0.2309 -0.1482
 4848W        W20657  14.867  18.274   4.107  0.0441 -0.1645 -0.1096
 4849W        W20658   7.085  16.159   3.822  0.2987  0.0587 -0.0034
 4850W        W20659  17.346  18.564  10.510  0.0954  0.1421  0.2355
 4851W        W20660   3.845   1.430  13.062  0.2190  0.0387  0.1650
 4852W        W20661  17.290   2.235   5.422 -0.1050  0.1244  0.2907
 4853W        W20662  10.086  17.205   0.210 -0.1770  0.1947  0.0198
 4854W        W20663  18.516  10.236   0.343  0.0531 -0.1666  0.1233
 4855W        W20664  15.168   2.945   4.441 -0.0630 -0.0272  0.1400
 4856W        W20665   8.916   7.118  10.734 -0.0965 -0.0832 -0.0547
 4857W        W20666  15.363  14.301  10.377  0.4072 -0.2275 -0.3426
 4858W        W20667  13.053   4.913   4.999  0.1834  0.3018  0.3029
 4859W        W20668   6.416  10.324   1.299 -0.2309 -0.2008  0.0212
 4860W        W20669   2.797   8.509  14.420 -0.1254  0.2865  0.1394
 4861W        W20670  17.812  11.701   2.167  0.2163 -0.0831  0.0569
 4862W        W20671   5.883  14.232  12.961 -0.0722 -0.1185 -0.1453
 4863W        W20672   7.222  12.698   2.092  0.1144 -0.2684 -0.1065
 4864W        W20673   3.176   7.672   4.533 -0.0226 -0.1239  0.0669
 4865W        W20674  14.854   2.309   1.154  0.2070 -0.3010  0.0716
 4866W        W20675   3.974  17.502   1.341  0.4079  0.0034 -0.0826
 4867W        W20676   7.281   1.893  11.899 -0.1870 -0.0049  0.2792
 4868W        W20677   9.801   8.910   3.737 -0.2253  0.2859 -0.0734
 4869W        W20678  19.107   7.122  14.572  0.3966  0.1401  0.0272
 4870W        W20679  15.457   7.792   2.113 -0.0313  0.0330 -0.1577
 4871W        W20680  18.684   4.194  12.623 -0.0546 -0.2223 -0.3867
 4872W        W20681  10.183   0.605   4.130 -0.1320 -0.0652  0.0512
 4873W        W20682   8.188   2.681   2.726  0.1848  0.1378 -0.1654
 4874W        W20683  12.324  16.780  11.478 -0.3738 -0.2270 -0.0359
 4875W        W20684  17.718   8.099  14.708 -0.0049  0.0136  0.0071
 4876W        W20685   7.107  15.043  12.618 -0.2064 -0.0831  0.0841
 4877W        W20686  18.352   6.795   1.793  0.1099  0.3127 -0.0445
 4878W        W20687  12.629   4.435   4.340 -0.2156  0.2160 -0.0030
 4879W        W20688  16.327  10.957   3.959  0.2530  0.1120  0.4855
 4880W        W20689   6.975  14.572  14.522 -0.3548 -0.0847 -0.0200
 4881W        W20690  15.639  15.644   1.893  0.3799  0.0502  0.1117
 4882W        W20691   2.000  15.204  12.579  0.2227  0.3727  0.1752
 4883W        W20692   2.825  12.647  11.309  0.0923  0.3210 -0.2233
 4884W        W20693   0.494   9.552  13.562  0.0301 -0.2725 -0.3519
 4885W        W20694   4.381   2.824   2.439 -0.2349 -0.1582 -0.1035
 4886W        W20695   7.435   0.258   4.080 -0.1490  0.0569 -0.1392
 4887W        W20696   1.505  16.117   5.006 -0.0549 -0.3257 -0.1475
 4888W        W20697  15.648  11.362  10.931  0.2042  0.1569 -0.2166
 4889W        W20698   3.075   4.237   4.282 -0.1499  0.0170 -0.1859
 4890W        W20699   8.131  10.374   3.729 -0.0018 -0.0858  0.3846
 4891W        W20700  17.118   8.953   2.024  0.0478 -0.2443 -0.2258
 4892W        W20701   3.533   3.971   4.060 -0.0168 -0.0996 -0.2271
 4893W        W20702  18.837  14.841   3.941  0.2292  0.0770  0.0815
 4894W        W20703   1.382  19.079  13.401 -0.0861 -0.0083  0.1877
 4895W        W20704   7.492   6.750  11.324  0.1188  0.2309  0.5582
 4896W        W20705   8.972  11.672   2.060  0.1488 -0.2901  0.1253
 4897W        W20706  10.552   8.993   1.037  0.1238 -0.1058 -0.3593
 4898W        W20707  15.266  13.883  13.844  0.0499  0.3170  0.0226
 4899W        W20708  14.394  18.464  14.414 -0.1822  0.0689  0.1497
 4900W        W20709  17.399   3.286  11.524  0.1319 -0.3364 -0.1115
 4901W        W20710   5.837   7.397   3.485 -0.1111 -0.0159 -0.0901
 4902W        W20711  12.897  15.791  14.829  0.0044  0.1992  0.0218
 4903W        W20712  10.612   4.412  10.600  0.1560 -0.1260  0.0804
 4904W        W20713   6.590  16.212  14.050 -0.0967  0.0454 -0.1608
 4905W        W20714  14.978   0.419  13.220  0.1938 -0.0402 -0.0003
 4906W        W20715  15.421   3.595  11.214 -0.1242  0.0432 -0.1260
 4907W        W20716   3.894   1.426  14.217  0.0669  0.0886 -0.2560
 4908W        W20717   1.615   3.232  11.086 -0.1719 -0.0079 -0.1718
 4909W        W20718  16.991  12.963   1.393 -0.0575  0.2102 -0.1493
 4910W        W20719   0.203   4.570  10.540  0.0094 -0.0056  0.1992
 4911W        W20720   1.451   2.390  14.628  0.2144  0.0518  0.1935
 4912W        W20721  10.570   7.981  10.445 -0.1678  0.3155  0.3528
 4913W        W20722  13.604  14.347   4.061 -0.1232 -0.2045  0.4029
 4914W        W20723   7.331  17.780   3.011 -0.3530 -0.0609  0.3036
 4915W        W20724   1.813   3.715   2.182  0.0975  0.2117  0.2474
 4916W        W20725   4.906   0.457  13.774 -0.0294 -0.1355  0.2281
 4917W        W20726   7.288   2.630  12.721  0.1746 -0.3638 -0.0448
 4918W        W20727   8.612   9.710   3.225 -0.3074 -0.1425 -0.1340
 4919W        W20728  13.942  12.375  12.780  0.3992  0.0260  0.3182
 4920W        W20729   0.353  15.659  14.827 -0.0716  0.1814  0.0711
 4921W        W20730   0.202   5.625   0.426  0.0966 -0.1047  0.1374
 4922W        W20731  14.792  14.106   2.664  0.1770 -0.1935 -0.0258
 4923W        W20732  14.854   5.385   2.283 -0.1608 -0.3583  0.0749
 4924W        W20733  11.777  10.349   3.315  0.1070  0.1189 -0.2269
 4925W        W20734   0.672  10.899   1.945 -0.1874  0.0840 -0.0045
 4926W        W20735   6.495   2.723  12.197 -0.1471  0.0245  0.0807
 4927W        W20736  15.890  14.704  15.152  0.1001 -0.1958  0.3053
 4928W        W20737  17.330  12.040  11.019 -0.1794 -0.1937 -0.0167
 4929W        W20738  13.663  14.671   0.419  0.2568  0.0029 -0.4563
 4930W        W20739  13.323  11.732  12.522  0.0237 -0.1913  0.1847
 4931W        W20740   5.274   8.454   0.665 -0.0178 -0.2073  0.1071
 4932W        W20741   0.321   1.477  10.590  0.1723  0.0731 -0.1487
 4933W        W20742  10.913  15.940   4.623  0.0729  0.1788  0.2972
 4934W        W20743   0.881  12.330   0.337 -0.3750  0.1941 -0.0728
 4935W        W20744  15.359   3.964  12.391 -0.0052  0.0292  0.0699
 4936W        W20745  14.775   5.675   0.041  0.0241 -0.0266  0.0990
 4937W        W20746   1.752   6.035  13.440 -0.2167  0.0092 -0.2200
 4938W        W20747   4.052   5.097  10.510 -0.1799 -0.3019 -0.0822
 4939W        W20748   9.129   3.691  14.858  0.1708  0.0731  0.0705
 4940W        W20749  15.256   3.682   2.775 -0.1464 -0.2057 -0.0720
 4941W        W20750   5.772   3.341   3.914 -0.0095  0.2622  0.1412
 4942W        W20751  16.358   5.583  11.119 -0.3211 -0.2575  0.1313
 4943W        W20752  17.160   3.080  13.542 -0.0669  0.1218 -0.0674
 4944W        W20753  18.159   1.918   1.798 -0.1743 -0.0279 -0.2827
 4945W        W20754  12.293  11.643  13.380 -0.0039 -0.0849  0.2873
 4946W        W20755   2.284  12.903   4.425 -0.0565 -0.0710 -0.1258
 4947W        W20756  13.736  15.595   5.343 -0.2351  0.3262  0.2123
 4948W        W20757  12.284  16.437   4.737 -0.0859 -0.2080 -0.2763
 4949W        W20758  16.029   1.159   4.517 -0.1331  0.0541  0.1311
 4950W        W20759  13.565   3.333  12.881 -0.0034  0.0057  0.1044
 4951W        W20760   5.754   6.383   3.321 -0.1586 -0.0367  0.0149
 4952W        W20761   9.048  18.685  14.032  0.1077  0.2323 -0.1072
 4953W        W20762  12.993  11.733   1.026  0.0723  0.3193  0.0073
 4954W        W20763   0.502  14.578   3.386 -0.0596 -0.2386  0.0278
 4955W        W20764   2.560   4.024  12.727  0.0093  0.0734  0.0795
 4956W        W20765  11.501  11.896  14.490 -0.1815  0.0065  0.1704
 4957W        W20766   8.987   4.661  13.275 -0.1074 -0.1424 -0.2883
 4958W        W20767  13.021   9.179  13.759 -0.2804  0.0035  0.2238
 4959W        W20768  14.061  15.169   3.289 -0.1094 -0.2480  0.0626
 4960W        W20769   6.906  10.773   2.012 -0.0062  0.0659  0.0144
 4961W        W20770   0.915   1.811  11.076 -0.0635 -0.1124 -0.0845
 4962W        W20771   3.808  11.956  10.898 -0.0756  0.1064 -0.0233
 4963W        W20772   3.131   2.845   4.560 -0.3857 -0.0389  0.0516
 4964W        W20773   0.952   9.051  13.180 -0.1189 -0.1272  0.1222
 4965W        W20774  14.752   6.450  10.748  0.0305  0.3491 -0.2341
 4966W        W20775   6.696   5.087  12.571 -0.1034  0.0490 -0.1020
 4967W        W20776   9.802   6.397  14.533 -0.0531 -0.3892  0.1198
 4968W        W20777   0.277  14.197  13.557 -0.0558 -0.1334 -0.0230
 4969W        W20778   3.565  12.120  13.266 -0.1423 -0.3176 -0.0575
 4970W        W20779  11.095  17.765   0.427 -0.1164  0.0779 -0.0124
 4971W        W20780   5.237   0.179  13.524  0.3156  0.0597 -0.1389
 4972W        W20781  10.435  15.829   0.032  0.1432 -0.0687  0.1928
 4973W        W20782  18.382   5.665  11.801 -0.1201 -0.0406  0.2033
 4974W        W20783  17.333  11.666  10.156  0.0254  0.0296 -0.2865
 4975W        W20784  17.737  10.395  13.890  0.0594 -0.1569 -0.1424
 4976W        W20785   1.940   8.569  13.049 -0.3786 -0.2857 -0.0252
 4977W        W20786   6.199  18.330  12.765 -0.1280 -0.0495 -0.1332
 4978W        W20787   7.777  13.030   0.023 -0.1424  0.1195 -0.0992
 4979W        W20788  13.327  12.660   4.168 -0.1780  0.0945 -0.1099
 4980W        W20789  12.457  15.487  12.679  0.1611  0.0749  0.2328
 4981W        W20790  12.867   2.360  15.079 -0.0447 -0.1382  0.0399
 4982W        W20791   5.900  10.069  10.569  0.1970 -0.1582  0.0297
 4983W        W20792   5.897  14.888   4.044 -0.0407  0.0849  0.1812
 4984W        W20793   6.378  18.393   0.812  0.0305  0.0728 -0.0663
 4985W        W20794   5.335   9.055   4.820 -0.0522  0.1357  0.1509
 4986W        W20795   0.911   4.077  13.235 -0.2953 -0.0514 -0.0774
 4987W        W20796  10.209  14.379   0.252 -0.3718  0.0062 -0.1991
 4988W        W20797  17.319  13.147  14.382 -0.0104 -0.5401 -0.0847
 4989W        W20798  12.299   4.761  14.357  0.0276 -0.0943 -0.0456
 4990W        W20799   0.462   4.585   4.072 -0.3684 -0.2758 -0.0648
 4991W        W20800   0.993   4.634  15.020  0.0262 -0.0447 -0.0612
 4992W        W20801  10.443  15.898   3.592  0.0046  0.1722 -0.0080
 4993W        W20802   6.648  18.881   4.431 -0.0407 -0.2964  0.0023
 4994W        W20803   9.275   8.370   4.416  0.2977  0.0799  0.1372
 4995W        W20804  15.219   3.233   3.155  0.0532 -0.0383  0.2359
 4996W        W20805  12.133  14.300  13.268 -0.0151 -0.1289 -0.3077
 4997W        W20806  16.138  11.644   1.391  0.0969  0.1329 -0.1086
 4998W        W20807   3.844   6.636   2.725  0.0645 -0.1125  0.0939
 4999W        W20808   4.351  18.429   5.089 -0.2927 -0.2510  0.2457
 5000W        W20809   4.973   7.388  10.462  0.2282 -0.0522  0.3066
 5001W        W20810  13.231   7.328   2.471 -0.0458  0.1753 -0.2128
 5002W        W20811  14.444  18.084   5.515 -0.1402  0.2475 -0.2294
 5003W        W20812   6.871  11.699   5.611  0.1688 -0.0590 -0.0459
 5004W        W20813  11.635  14.820   2.240  0.1573  0.1254  0.0158
 5005W        W20814   2.921  13.967   1.785 -0.2182  0.1070 -0.0170
 5006W        W20815   0.742   4.762  13.595  0.1370 -0.2138 -0.1670
 5007W        W20816  16.965   4.347   3.261  0.0471  0.1299  0.0542
 5008W        W20817  16.596   1.043  11.299 -0.1151  0.4263  0.0649
 5009W        W20818   5.244   6.539   5.505 -0.1527  0.2838  0.0222
 5010W        W20819  12.211   4.493  11.621 -0.2824  0.0170  0.1985
 5011W        W20820   6.436  10.494  11.277  0.3000 -0.1495  0.0697
 5012W        W20821   2.516  16.441   4.738 -0.1436  0.1836  0.2328
 5013W        W20822  18.118   4.556   4.108 -0.0347 -0.1597 -0.2750
 5014W        W20823  16.912   8.976   5.491 -0.0921  0.2515  0.0325
 5015W        W20824  12.084   1.536  12.112  0.2208 -0.4898  0.3164
 5016W        W20825   5.211  14.440   4.948 -0.0155  0.0564  0.1583
 5017W        W20826  16.800  10.808  12.874  0.0702 -0.2308  0.0762
 5018W        W20827  17.279  13.263   1.646 -0.0073  0.1252 -0.5979
 5019W        W20828  13.278   5.306   0.115 -0.0104 -0.0500  0.2140
 5020W        W20829   0.470   4.627   5.507 -0.0051 -0.4213 -0.2355
 5021W        W20830   4.411  12.112  13.332  0.0869 -0.1658  0.0493
 5022W        W20831   2.348   8.068   2.873 -0.0885  0.0091  0.2971
 5023W        W20832   1.590   6.878  12.399  0.0299 -0.0860  0.1139
 5024W        W20833   5.378   0.578  15.100  0.1042  0.0216 -0.0305
 5025W        W20834   9.560  12.648   1.056 -0.2622  0.0979 -0.1014
 5026W        W20835  15.123  12.698  14.310  0.0394 -0.0663  0.1473
 5027W        W20836  17.388   0.022   0.476 -0.0591 -0.1050  0.2164
 5028W        W20837   5.701  17.971   0.396 -0.2859  0.1930 -0.0033
 5029W        W20838  11.921   5.212  13.444 -0.2007 -0.0508 -0.0499
 5030W        W20839  15.195  14.773  13.694 -0.3153  0.1245 -0.3304
 5031W        W20840   3.770  16.929   5.382 -0.0071 -0.0228  0.0801
 5032W        W20841   7.385  12.918  14.950  0.0181  0.1077  0.2778
 5033W        W20842  17.018   3.387  11.910 -0.0904  0.1058  0.2618
 5034W        W20843   4.735   2.803  13.228 -0.1402  0.0847  0.0226
 5035W        W20844  12.250  13.953  14.222 -0.2467  0.2837  0.2099
 5036W        W20845  19.109  10.945   0.720  0.2555  0.0161 -0.0315
 5037W        W20846   5.979   6.186   4.537  0.3315 -0.0819  0.0938
 5038W        W20847   3.766  10.189   3.963 -0.1094 -0.1034 -0.3036
 5039W        W20848  13.157  13.791   2.409 -0.1804 -0.1964 -0.1100
 5040W        W20849   9.900  14.584  11.778  0.1271 -0.6830 -0.1829
 5041W        W20850   3.584  16.234  12.892  0.0372 -0.2381 -0.1662
 5042W        W20851   1.938  13.803  12.591 -0.2424  0.0132  0.4050
 5043W        W20852  17.037   2.991  10.131  0.1461 -0.3168  0.0019
 5044W        W20853  17.532  14.335   0.139 -0.2341  0.2146  0.0039
 5045W        W20854   0.917  16.060   2.777  0.0844  0.3155 -0.1242
 5046W        W20855  11.079  14.929  10.559 -0.1076  0.4126  0.0650
 5047W        W20856  17.688  14.530   1.983 -0.1151  0.1378 -0.1871
 5048W        W20857  14.602   2.423   2.301  0.0537  0.0108  0.1040
 5049W        W20858   6.688  19.049   2.233  0.3863  0.1231  0.3081
 5050W        W20859   2.316   2.871   3.236 -0.0323  0.1456 -0.0411
 5051W        W20860   6.722   9.329   5.722 -0.1016  0.0151 -0.1102
 5052W        W20861  17.150   7.860   2.417  0.4175  0.3606 -0.0966
 5053W        W20862   8.769   1.737  12.217  0.1821 -0.0893  0.1534
 5054W        W20863   5.969  18.900   0.704  0.0783 -0.1882 -0.3193
 5055W        W20864  18.433   5.118   0.322 -0.3166  0.2672 -0.2637
 5056W        W20865   6.160   7.499   3.907  0.0856  0.1738 -0.1265
 5057W        W20866   7.114   6.810   3.932  0.1093 -0.2183 -0.2009
 5058W        W20867   6.166   8.723  13.645 -0.1313  0.1929 -0.2095
 5059W        W20868   4.525  16.142   0.915 -0.0220 -0.4016 -0.1682
 5060W        W20869   6.171   2.057  10.359 -0.1339  0.3984  0.0876
 5061W        W20870   5.125  19.036   9.947  0.2555  0.1018  0.0384
 5062W        W20871  13.616   6.404   2.060  0.1622  0.0411  0.0285
 5063W        W20872   0.620   9.918  13.251  0.1612 -0.2267  0.2408
 5064W        W20873   3.133  17.234   1.802  0.2623  0.1228  0.1422
 5065W        W20874  12.728  10.120  13.657 -0.4588  0.2107 -0.0869
 5066W        W20875  13.393  11.297   3.701  0.0679  0.1805  0.2525
 5067W        W20876  16.069   2.797   0.920 -0.0124  0.2026 -0.0685
 5068W        W20877  16.049   2.423  12.646 -0.1354 -0.1097  0.2382
 5069W        W20878   8.605   0.306  14.569 -0.2169  0.0474 -0.0603
 5070W        W20879   3.856  13.702   1.212  0.1358  0.0056 -0.2789
 5071W        W20880  15.359  12.295   3.365  0.0233 -0.0990  0.3603
 5072W        W20881  18.492  13.067   3.302 -0.6353 -0.2114  0.0783
 5073W        W20882  17.826   4.212  13.042 -0.3049  0.1747 -0.0125
 5074W        W20883   6.202   8.943  11.061  0.0891  0.1017 -0.1523
 5075W        W20884  13.820   2.281  15.138  0.0472 -0.2942  0.0726
 5076W        W20885  18.661  17.140   3.792 -0.3195  0.3742  0.1271
 5077W        W20886   5.121   6.366  10.544 -0.2353  0.0279 -0.2578
 5078W        W20887  17.223  10.149  13.530  0.0141 -0.1992 -0.1458
 5079W        W20888  11.879  17.509  12.900 -0.0375 -0.4017 -0.4130
 5080W        W20889   8.282   7.415   4.116  0.1242  0.2058 -0.0178
 5081W        W20890  10.322  17.441  15.112 -0.1394  0.0050  0.0051
 5082W        W20891   8.149  15.131   2.849 -0.0990  0.2618  0.0114
 5083W        W20892   6.261   0.140  12.694 -0.0428 -0.1782 -0.0409
 5084W        W20893   8.791  13.226   1.249  0.0085 -0.0562  0.3464
 5085W        W20894  17.733   8.706  12.225  0.2951  0.5228  0.1101
 5086W        W20895  13.800   2.052  11.626 -0.2539  0.0527 -0.1894
 5087W        W20896  13.394  11.032  14.030 -0.0545  0.0820  0.2057
 5088W        W20897  17.531  10.529   2.252  0.0310 -0.0066  0.0584
 5089W        W20898  14.281  11.764   1.725 -0.0545 -0.2398 -0.0792
 5090W        W20899   5.807   6.705   1.119  0.2142 -0.2540 -0.1352
 5091W        W20900   3.320   8.664   5.541  0.2037 -0.1188 -0.1115
 5092W        W20901  13.439   4.717  12.020 -0.0082  0.2158 -0.1034
 5093W        W20902  11.375   3.813   2.646  0.1546 -0.3033 -0.0582
 5094W        W20903  15.722   2.594  10.036  0.0733 -0.2886 -0.0459
 5095W        W20904   4.277   5.268   9.557 -0.2729  0.0969 -0.2678
 5096W        W20905   0.621   8.503  11.957 -0.0675 -0.1219  0.3652
 5097W        W20906   6.578   9.538  13.266 -0.1973  0.1633 -0.1342
 5098W        W20907   1.516  12.005   6.180  0.0140 -0.1113  0.3225
 5099W        W20908   1.133  17.735   9.483 -0.1436  0.0311  0.2961
 5100W        W20909  17.309  13.871   2.728  0.2302 -0.3377  0.1209
 5101W        W20910  13.990  14.801   1.090  0.0503 -0.0318 -0.3502
 5102W        W20911  16.066   3.675  11.065  0.2029 -0.1383  0.0988
 5103W        W20912   3.558  16.674   5.023  0.0932  0.0104 -0.0876
 5104W        W20913   6.390   5.689   0.677 -0.1839 -0.0854  0.0199
 5105W        W20914  12.741  17.898   0.792 -0.2566 -0.2431  0.0285
 5106W        W20915   9.289   9.373  11.151  0.2688 -0.1261 -0.0853
 5107W        W20916   9.558  14.797  14.725 -0.0104 -0.1403 -0.0476
 5108W        W20917  17.786  10.711  14.845  0.0203  0.2066  0.3972
 5109W        W20918  10.624  17.922  12.242 -0.4328  0.0925 -0.0026
 5110W        W20919   9.561   0.064  11.624 -0.0380  0.0199  0.0092
 5111W        W20920  10.098  14.194   2.356 -0.4783  0.0114  0.0003
 5112W        W20921  10.265  12.140   1.481 -0.1082  0.3051 -0.0184
 5113W        W20922   0.048  16.491   4.407  0.2820 -0.2579 -0.5510
 5114W        W20923   3.087   9.699  13.336  0.0732  0.1643  0.1260
 5115W        W20924   8.520   9.728  10.849  0.1494  0.0304 -0.0599
 5116W        W20925   6.117   6.199  11.449 -0.2469  0.0866  0.1499
 5117W        W20926   3.020  18.196   3.835  0.1399 -0.4289 -0.0240
 5118W        W20927   5.100  18.849   3.709 -0.0978  0.0506 -0.0121
 5119W        W20928  13.425   7.131  14.194  0.0519 -0.4417  0.0812
 5120W        W20929  17.162   2.602   3.050 -0.1814  0.0726  0.2009
 5121W        W20930  13.477   6.593   1.274  0.1948 -0.2019  0.0412
 5122W        W20931  11.816   3.772  10.547 -0.1814 -0.0551  0.1185
 5123W        W20932  17.102  14.850   1.767 -0.2489  0.1837 -0.2438
 5124W        W20933   1.266  14.211   4.361 -0.2105  0.1691 -0.2410
 5125W        W20934   8.453   4.703   0.057  0.3721  0.1197 -0.0323
 5126W        W20935   7.187   9.008  11.118  0.1718 -0.1023 -0.1865
 5127W        W20936  16.075   4.461  10.438 -0.1235  0.1935  0.0490
 5128W        W20937  10.779  18.472  13.611 -0.3750  0.0752  0.0950
 5129W        W20938   9.414  12.364   2.279  0.0354 -0.1415 -0.0920
 5130W        W20939   5.096   3.682   0.200 -0.1274 -0.0673  0.1535
 5131W        W20940  11.107  13.215  14.630 -0.0734 -0.0241 -0.2804
 5132W        W20941  16.050   4.440  12.072 -0.0423 -0.2666 -0.0227
 5133W        W20942  14.216  18.895  11.390  0.0495 -0.0611 -0.0057
 5134W        W20943   6.155  12.036   0.632  0.0051 -0.1854 -0.1545
 5135W        W20944  12.571   6.170  10.737  0.1769  0.1250 -0.5076
 5136W        W20945  10.470   1.648   0.092 -0.1276 -0.1456 -0.0707
 5137W        W20946  16.117   6.122   1.954  0.1029 -0.0673  0.0859
 5138W        W20947  11.559   8.833  11.659 -0.0171 -0.2677  0.0815
 5139W        W20948  16.905  16.267   1.176 -0.1713  0.0881 -0.0831
 5140W        W20949  16.138   8.751  15.136  0.1332 -0.0805  0.1433
 5141W        W20950  15.872   2.895   3.558 -0.2586 -0.2174 -0.0696
 5142W        W20951  15.857  16.714   2.226  0.1258  0.3286 -0.0833
 5143W        W20952   6.615   5.908   2.412 -0.5522 -0.0066 -0.1643
 5144W        W20953   1.149   8.285   1.992 -0.3954  0.1428  0.2286
 5145W        W20954  17.928   8.456   2.867 -0.0064  0.0501  0.0715
 5146W        W20955   4.864  17.835  13.944 -0.1579  0.3240 -0.0537
 5147W        W20956   9.727  13.730   5.816  0.1496 -0.0132  0.1031
 5148W        W20957  12.565   8.290  13.972 -0.0793 -0.6120 -0.2705
 5149W        W20958  11.113   2.129   1.117 -0.2534  0.2256 -0.0995
 5150W        W20959   3.440   2.609  14.138  0.1846  0.1239  0.0017
 5151W        W20960  15.745   2.492   3.185 -0.1295 -0.2535  0.0733
 5152W        W20961  10.809   0.936   9.478 -0.0318  0.1136 -0.1555
 5153W        W20962   4.400  13.945  10.548 -0.2081  0.2710  0.0131
 5154W        W20963  18.792  13.380  11.218 -0.2934  0.2049  0.0474
 5155W        W20964  15.933  11.903  11.972  0.1528  0.1393 -0.1029
 5156W        W20965  17.136   7.057   2.795  0.3907 -0.0466 -0.1171
 5157W        W20966   9.716   1.977   0.565  0.1792 -0.1158 -0.3105
 5158W        W20967  14.613  14.456  15.257 -0.4108 -0.1330  0.1236
 5159W        W20968   1.253   7.158  11.992  0.0474  0.0595 -0.0120
 5160W        W20969  15.437   4.175   3.013  0.2157 -0.0061 -0.0542
 5161W        W20970   7.031  15.090  11.705 -0.1630  0.1949  0.0397
 5162W        W20971   6.991   2.581   3.832  0.2390  0.3425  0.0066
 5163W        W20972   8.941  14.605  10.149 -0.1196  0.0308  0.1389
 5164W        W20973   7.677   7.622  11.039 -0.1094  0.4498 -0.1924
 5165W        W20974   9.656  14.384   0.422 -0.0075  0.2493  0.1900
 5166W        W20975   5.848   4.992   1.708  0.1492 -0.0674  0.0273
 5167W        W20976   5.452  14.790  12.065 -0.0893 -0.5482  0.0177
 5168W        W20977   2.446   6.855   4.481 -0.1854 -0.0601 -0.0528
 5169W        W20978   7.577   0.724   1.272  0.0249 -0.0227  0.0084
 5170W        W20979  12.201   0.817  12.697  0.0680 -0.0573  0.0729
 5171W        W20980  18.992  13.241   3.367  0.0682 -0.0733 -0.0188
 5172W        W20981   2.224  18.765   1.536 -0.2750 -0.2757 -0.1347
 5173W        W20982  18.790  11.168  10.921 -0.0190 -0.0390 -0.1748
 5174W        W20983  13.779  14.500   3.623 -0.1590 -0.1392 -0.1313
 5175W        W20984  12.322   6.298   0.631  0.1114 -0.1653 -0.2434
 5176W        W20985  15.175   3.604  13.749  0.0863  0.0019 -0.2693
 5177W        W20986   5.385  10.354  12.692  0.0134 -0.1918  0.0851
 5178W        W20987  11.675  11.511   4.760  0.2610 -0.2339  0.0245
 5179W        W20988  18.858  17.246  12.433 -0.5716  0.1697 -0.0754
 5180W        W20989   9.881   5.935  12.078  0.1032 -0.2927  0.1195
 5181W        W20990  10.250  15.805  10.293 -0.1973  0.0395  0.2612
 5182W        W20991   2.472  16.010  11.592 -0.2851 -0.0861 -0.1818
 5183W        W20992  17.321  16.439  10.456  0.0474 -0.0885 -0.1417
 5184W        W20993   8.846   8.047   2.317  0.0068 -0.3950 -0.2457
 5185W        W20994   7.889   5.486   2.613 -0.0926  0.0397  0.2228
 5186W        W20995   9.337  16.894  12.135  0.1386  0.1997 -0.3046
 5187W        W20996  14.883  16.841  13.283  0.2398 -0.1303 -0.0315
 5188W        W20997   5.414   4.813  13.500 -0.0328  0.0581  0.1706
 5189W        W20998   4.661   7.993   0.856  0.3454 -0.1007  0.0868
 5190W        W20999  11.690  16.121  11.627  0.0551 -0.5373  0.1185
 5191W        W21000  13.204  10.359   3.958  0.3260 -0.0969 -0.0244
 5192W        W21001   2.233  10.662   0.246 -0.0484  0.1509  0.1593
 5193W        W21002   3.016   3.619  11.672 -0.3017  0.0830 -0.1444
 5194W        W21003  15.786  16.375  11.358  0.0063  0.1117 -0.0764
 5195W        W21004   2.127  18.563   0.113  0.2462 -0.1614  0.0706
 5196W        W21005   0.523   3.534  11.654 -0.2309 -0.1048 -0.0824
 5197W        W21006  16.907   3.134   0.874  0.0976 -0.1548 -0.1419
 5198W        W21007   5.306   7.556   4.843  0.1320 -0.2444 -0.0365
 5199W        W21008   1.956  12.264   0.026  0.0712 -0.1997  0.1560
 5200W        W21009  17.838   6.096   0.712  0.0561 -0.4698  0.0051
 5201W        W21010  17.280  10.096  14.459 -0.0118 -0.1615 -0.3907
 5202W        W21011  16.205   6.868  10.685 -0.0833 -0.1040 -0.2834
 5203W        W21012  13.840  17.408   3.858  0.1382  0.0726 -0.2733
 5204W        W21013   9.106   7.011  13.201 -0.0318  0.2430  0.0533
 5205W        W21014   3.432  13.413   5.756 -0.0356 -0.3555  0.0557
 5206W        W21015  12.709  16.569   0.387  0.0105  0.1187  0.0246
 5207W        W21016   0.893   7.386   0.956  0.0647  0.2250 -0.0597
 5208W        W21017   5.545   9.438  13.576  0.0770  0.0953 -0.2197
 5209W        W21018   1.388   5.466   0.616  0.2799  0.0373 -0.0413
 5210W        W21019   2.819   4.536  13.333  0.2202  0.1129  0.2639
 5211W        W21020   5.776   3.877  15.047  0.2491  0.0388 -0.0906
 5212W        W21021   2.489  10.421   0.902  0.0612 -0.0072  0.0144
 5213W        W21022   3.137   6.021   3.755  0.1892 -0.1951 -0.1104
 5214W        W21023  18.542  14.306  10.728  0.1012  0.2120 -0.1523
 5215W        W21024  14.880   6.054   4.036  0.1932 -0.1757 -0.0082
 5216W        W21025   0.608   9.003   0.335  0.0650  0.4838  0.3248
 5217W        W21026   9.793   3.419  10.207 -0.2000  0.0680 -0.2873
 5218W        W21027   6.985   3.706  13.461  0.0007  0.0378  0.1640
 5219W        W21028  13.625  11.538   5.821 -0.1064  0.2481 -0.0925
 5220W        W21029   3.690   0.455  12.173  0.1141  0.0003  0.0119
 5221W        W21030   1.789   7.340  10.683 -0.3018 -0.0595 -0.4299
 5222W        W21031   4.771   7.571   2.097 -0.1802  0.1012 -0.0555
 5223W        W21032   9.808  13.222  11.852 -0.0132  0.0677  0.0379
 5224W        W21033  16.339  17.420   0.087  0.1869  0.2659 -0.2039
 5225W        W21034  16.876   4.578  12.757  0.4416  0.1247 -0.2556
 5226W        W21035  10.133   6.431   1.241  0.2848  0.1227 -0.0710
 5227W        W21036   7.573   3.350   4.518  0.1543 -0.1379 -0.0253
 5228W        W21037   9.386   2.658  14.906 -0.0150 -0.0863 -0.1380
 5229W        W21038   5.197   0.989   4.095  0.0628  0.2850  0.0267
 5230W        W21039   5.295  18.778  15.095  0.2374 -0.1371  0.3961
 5231W        W21040   9.893   6.279   3.514  0.1045 -0.1095 -0.0883
 5232W        W21041  14.542   3.345   5.172  0.1404 -0.1206 -0.3371
 5233W        W21042  16.848   3.680  13.894  0.2703 -0.0060  0.3201
 5234W        W21043  10.141  18.754  12.828 -0.0388 -0.3675  0.0951
 5235W        W21044  17.688   5.106  11.679  0.0524  0.1724  0.1461
 5236W        W21045  10.709  15.576   3.899 -0.3362 -0.0210 -0.0344
 5237W        W21046   1.120  14.209   1.945 -0.2218 -0.2370  0.1467
 5238W        W21047  18.969  15.350   3.761 -0.2528  0.1001 -0.3783
 5239W        W21048  14.343   3.701   1.657 -0.2143 -0.3043 -0.0659
 5240W        W21049  16.129  13.148   2.840 -0.0218 -0.0986 -0.1170
 5241W        W21050  18.020   8.728  13.874 -0.6173 -0.3149 -0.3153
 5242W        W21051  18.937  15.051   0.515 -0.0113  0.0260 -0.1514
 5243W        W21052   4.524  14.809  12.766  0.1418  0.2769  0.2708
 5244W        W21053  14.429   7.818   3.126  0.1284 -0.1787  0.1144
 5245W        W21054  18.183  18.302  12.939 -0.3074 -0.0210 -0.0360
 5246W        W21055   9.318   6.783  10.758 -0.2722  0.0972 -0.2513
 5247W        W21056  18.160  18.038  14.772 -0.0725 -0.0179  0.1737
 5248W        W21057   5.784  18.135  12.550  0.0448 -0.0493 -0.0222
 5249W        W21058   3.538  17.920   3.978 -0.0672 -0.1532 -0.1103
 5250W        W21059   1.265   4.695   4.470 -0.1406 -0.0984 -0.2764
 5251W        W21060   5.621  10.934  14.637  0.0075  0.1201  0.3513
 5252W        W21061  18.682   2.988   2.533 -0.5621  0.2522  0.3239
 5253W        W21062  10.938   1.891  10.270 -0.2378  0.2030 -0.1383
 5254W        W21063   3.334   6.747   4.072 -0.2239 -0.1208  0.2985
 5255W        W21064   7.642  18.554  12.935 -0.1086  0.0319 -0.1303
 5256W        W21065  16.967  13.423   3.021 -0.0131 -0.2247  0.2156
 5257W        W21066  18.334  14.290   0.569  0.0381 -0.3097  0.4575
 5258W        W21067  13.850  17.940   0.716 -0.2522  0.1903 -0.2436
 5259W        W21068   5.059  15.778   5.328  0.0128 -0.1132 -0.0419
 5260W        W21069  18.311   9.220   2.165  0.1608 -0.2715 -0.0683
 5261W        W21070  17.368   7.291  11.108  0.3472  0.0283  0.4470
 5262W        W21071   3.383  19.043   4.844  0.0803  0.3039 -0.2782
 5263W        W21072  16.555   8.346  13.941  0.1464 -0.0301 -0.1723
 5264W        W21073   0.875   9.903  15.176 -0.1101 -0.2062 -0.3558
 5265W        W21074  14.598  12.712  15.078 -0.2807 -0.1325  0.2168
 5266W        W21075  16.891   2.544   4.617 -0.0551 -0.0847  0.0581
 5267W        W21076   4.232   2.753   1.240 -0.0959 -0.1031 -0.1467
 5268W        W21077   1.785  14.415   2.653 -0.0351  0.1012  0.4649
 5269W        W21078  12.491  18.390   6.270 -0.5662  0.2654 -0.1043
 5270W        W21079  17.094   9.262  13.452 -0.0600  0.1638 -0.1820
 5271W        W21080  10.239   2.260  14.671  0.3096  0.0882 -0.0631
 5272W        W21081   4.939   2.410  11.837 -0.4184 -0.0313  0.1698
 5273W        W21082  10.978   0.270   2.648  0.2548  0.1230 -0.1438
 5274W        W21083   5.842  15.998  11.012 -0.0198 -0.0867 -0.0967
 5275W        W21084  17.932   3.111   2.460 -0.0334  0.0921  0.1770
 5276W        W21085  17.346  13.407   4.205 -0.1290 -0.1506  0.2360
 5277W        W21086  10.037  14.764  13.796  0.1977 -0.0050  0.2640
 5278W        W21087  17.615  11.248   5.459  0.3661  0.1549 -0.1957
 5279W        W21088  18.993  16.769  13.807  0.2310 -0.2441 -0.3312
 5280W        W21089   9.556   5.837  14.421  0.1049  0.2528  0.1195
 5281W        W21090   0.686   8.803  14.227 -0.1317  0.2133 -0.0154
 5282W        W21091   3.468   3.938   2.119 -0.2653  0.1719  0.1611
 5283W        W21092   5.873  17.561   1.407 -0.1096  0.0975 -0.0069
 5284W        W21093  13.444   4.031   5.242  0.0025  0.0516 -0.5236
 5285W        W21094  10.587   5.611  10.962  0.2488 -0.0828  0.0332
 5286W        W21095  17.509   3.438  12.066 -0.1404  0.1956 -0.0154
 5287W        W21096   8.222   4.751   1.506 -0.2172  0.1215  0.0007
 5288W        W21097   2.078  12.422  11.979  0.1241 -0.0932 -0.3057
 5289W        W21098   1.656  13.070  10.440  0.1444  0.0611 -0.3188
 5290W        W21099  16.445  13.458  11.732 -0.0556 -0.1785 -0.0552
 5291W        W21100   3.332   3.725  12.380  0.1474  0.0731 -0.1107
 5292W        W21101   8.036  15.192  10.819 -0.1887 -0.2706  0.1372
 5293W        W21102   6.657   5.224   4.695  0.0918 -0.3437  0.2078
 5294W        W21103   1.552  16.871   0.780 -0.1189 -0.1672 -0.0451
 5295W        W21104   3.973   7.698  13.440  0.2048  0.0304  0.3669
 5296W        W21105   8.498  15.836   1.612  0.0507  0.2614  0.2960
 5297W        W21106   2.239   3.976  14.953  0.2750  0.1140  0.0952
 5298W        W21107   5.599  13.038  13.352 -0.1551 -0.1289 -0.4541
 5299W        W21108  10.224   0.320  14.281  0.0008 -0.1242  0.0679
 5300W        W21109  17.912   1.310  14.763  0.0535  0.1438 -0.0250
 5301W        W21110  10.540  11.569  11.379 -0.0006  0.1496 -0.0798
 5302W        W21111  11.230  12.271   4.118 -0.0805  0.2336 -0.3038
 5303W        W21112   2.684   2.092   3.090 -0.2298 -0.3793 -0.0521
 5304W        W21113   8.129  18.630   3.446 -0.3062 -0.1208 -0.2185
 5305W        W21114  12.315   1.875  14.489  0.3196 -0.2741  0.0602
 5306W        W21115   1.849   5.245  11.317  0.2572  0.3272 -0.0082
 5307W        W21116  13.116   0.721  15.165 -0.1661 -0.2012  0.1914
 5308W        W21117  12.202   1.754  10.693  0.2838  0.0329 -0.3323
 5309W        W21118   1.685   0.528   3.821 -0.0433 -0.3254  0.0151
 5310W        W21119  18.516   6.010   1.101  0.3295  0.2420  0.0891
 5311W        W21120   3.513   3.417   0.324  0.2875  0.2279  0.1607
 5312W        W21121   6.679  15.570   2.262 -0.0682 -0.1629 -0.1859
 5313W        W21122   6.131  10.130  13.988  0.2038  0.0230  0.1893
 5314W        W21123   8.900  12.949  10.039  0.0833 -0.3291  0.0869
 5315W        W21124   7.721   7.228   4.364  0.2843  0.5433  0.1312
 5316W        W21125   7.128  15.592  11.655 -0.1858 -0.1140  0.2819
 5317W        W21126  14.218   9.839  11.255 -0.1992 -0.0588  0.0205
 5318W        W21127  10.344  12.118   0.516  0.0993 -0.3598 -0.1436
 5319W        W21128   4.035   2.460  14.489 -0.2987 -0.2079 -0.3887
 5320W        W21129   1.631  13.505   2.326  0.3588  0.2317  0.2646
 5321W        W21130  12.378  15.243  10.817 -0.0543  0.1109 -0.0260
 5322W        W21131   6.716  12.002   6.064  0.1523  0.0433  0.2850
 5323W        W21132  10.548  12.763  15.128 -0.0034  0.0480 -0.0531
 5324W        W21133   2.159  11.372   0.584 -0.0526 -0.3060 -0.1666
 5325W        W21134   3.732   3.834  10.984 -0.0989 -0.0907 -0.0253
 5326W        W21135  15.560   6.938  11.688  0.2247 -0.1220  0.0264
 5327W        W21136   4.974   9.851   2.121 -0.0136  0.0509  0.1465
 5328W        W21137  10.616   2.256  11.221 -0.1502 -0.1675  0.1601
 5329W        W21138  16.773   7.705  10.531 -0.1194 -0.1051  0.1429
 5330W        W21139  14.446  17.794  13.475 -0.0846  0.0462 -0.1674
 5331W        W21140  12.169   0.064  15.129 -0.0813  0.2423  0.0565
 5332W        W21141   0.871  14.977  13.168  0.1759 -0.1076  0.1045
 5333W        W21142  16.580  11.945  11.423 -0.2741  0.2387 -0.1164
 5334W        W21143  17.834  16.016   4.651  0.0519 -0.3416 -0.1271
 5335W        W21144  10.008  16.944  12.897  0.0118  0.1183  0.0357
 5336W        W21145   1.362  17.309  14.247 -0.3818  0.0018  0.2224
 5337W        W21146   0.452  12.286   2.559 -0.1748 -0.0423 -0.1099
 5338W        W21147   1.740  11.820   4.225 -0.0307 -0.0936 -0.0086
 5339W        W21148  10.518  17.842  12.729  0.5475  0.0080  0.0642
 5340W        W21149  10.984   7.860  11.593 -0.0027  0.1201  0.2421
 5341W        W21150  15.929   5.360  10.763 -0.0261 -0.0929 -0.1695
 5342W        W21151  18.313  12.326   9.916 -0.0245 -0.2191  0.0920
 5343W        W21152  16.319  11.675  11.756  0.2945 -0.0952  0.0370
 5344W        W21153  19.097   7.914  14.189  0.0856  0.2940 -0.0418
 5345W        W21154   3.094   4.814  10.383 -0.1996 -0.4787 -0.0192
 5346W        W21155   6.590  15.176   1.160 -0.0472  0.0312  0.3635
 5347W        W21156   3.760  10.570   3.598 -0.1307  0.2007 -0.0014
 5348W        W21157   3.247  11.798   3.040  0.3969 -0.2370 -0.1296
 5349W        W21158  13.255  16.397  11.337  0.0351  0.2750 -0.2616
 5350W        W21159  13.390   4.970   3.369 -0.2695 -0.0825  0.1128
 5351W        W21160  18.007   3.857  11.455 -0.1225  0.0753 -0.2200
 5352W        W21161   7.173   6.677  14.255  0.1790 -0.1254 -0.0663
 5353W        W21162   4.458  14.576  13.214  0.4431 -0.1943 -0.2929
 5354W        W21163  13.855   6.517   2.848  0.3375  0.1339  0.1581
 5355W        W21164  14.223   2.715   2.493  0.0042 -0.1336 -0.0374
 5356W        W21165   7.926  11.524  15.094 -0.0828 -0.0623  0.2995
 5357W        W21166   1.675  10.015  11.033 -0.2044  0.1378 -0.2361
 5358W        W21167  14.922   5.603  14.726 -0.2117  0.1786 -0.1419
 5359W        W21168   4.962  16.110  11.905  0.4375 -0.0109 -0.4711
 5360W        W21169   7.997   5.860   5.661  0.0962 -0.1250  0.0698
 5361W        W21170   8.192  18.055  12.092 -0.2451  0.0250 -0.1844
 5362W        W21171   5.236  17.130  12.844 -0.1605  0.0174  0.2106
 5363W        W21172   6.229   2.128   4.666 -0.3764 -0.1689  0.0495
 5364W        W21173   2.741   0.862   0.369 -0.1927 -0.1308  0.2552
 5365W        W21174   9.251  10.194  14.103 -0.1031  0.0202 -0.0305
 5366W        W21175  16.550   8.104  14.546  0.0822 -0.1955  0.3063
 5367W        W21176   3.919  15.036  14.468 -0.0936 -0.0628 -0.0265
 5368W        W21177   5.957   6.148  12.372  0.1049  0.3207 -0.2866
 5369W        W21178   8.731   2.672  13.789 -0.3437 -0.0323  0.0089
 5370W        W21179  18.940   6.231   4.167  0.0400  0.1153 -0.3723
 5371W        W21180  17.635   4.725   2.825  0.1511 -0.2036  0.1767
 5372W        W21181  13.569  13.220  10.284 -0.0985 -0.0524  0.0637
 5373W        W21182  12.230   2.818  14.648  0.0619 -0.0867 -0.1733
 5374W        W21183   3.442   7.033  13.033 -0.0906  0.1174  0.1149
 5375W        W21184  11.138  12.158   1.833 -0.0811 -0.0515 -0.3228
 5376W        W21185  15.978  11.435   4.694  0.1931 -0.3153 -0.1090
 5377W        W21186   8.841   2.895  11.861  0.0665 -0.4085  0.1240
 5378W        W21187   0.898   4.225   0.976  0.4763  0.2201 -0.1141
 5379W        W21188  19.108   1.208  14.114 -0.0949 -0.1323  0.0043
 5380W        W21189   5.234  17.779  13.094 -0.0916  0.1355 -0.0248
 5381W        W21190   9.484   0.703  10.120 -0.2124 -0.0125 -0.0238
 5382W        W21191   2.396   8.780   0.179 -0.0518  0.0874 -0.0848
 5383W        W21192  10.185   4.451  12.932  0.0102 -0.2329 -0.2029
 5384W        W21193   6.464   4.369  11.744  0.0258  0.0242  0.0798
 5385W        W21194   0.390   5.917  10.925 -0.0980  0.1987  0.2276
 5386W        W21195  15.133  17.037  15.170  0.0757 -0.0292 -0.0768
 5387W        W21196  18.778   3.005  11.531  0.1992  0.2938  0.3044
 5388W        W21197   3.244   4.819  11.073 -0.0800 -0.1193  0.1480
 5389W        W21198  12.424   3.501   4.127  0.1924  0.0241  0.2128
 5390W        W21199   1.205   4.693   0.964 -0.1094  0.2769 -0.2557
 5391W        W21200   7.228  16.519  10.946  0.3018  0.5105 -0.0295
 5392W        W21201  10.665  11.024  13.997  0.0864  0.2308  0.0257
 5393W        W21202  15.126  15.496   0.758 -0.2445 -0.2125  0.1519
 5394W        W21203  11.394  10.041   2.362  0.0461  0.4024  0.0200
 5395W        W21204  18.242  14.765  13.011  0.1588 -0.2983 -0.1555
 5396W        W21205   0.475   7.039   4.056  0.0002 -0.1820 -0.0023
 5397W        W21206   0.250  10.882  13.372 -0.1481  0.0250 -0.0403
 5398W        W21207  13.312   6.215   4.532 -0.2539  0.1232  0.1272
 5399W        W21208   7.873  11.851  13.469  0.0279 -0.0534  0.1330
 5400W        W21209  10.806   7.923  12.093  0.4062 -0.4040 -0.3107
 5401W        W21210   6.244   0.539   1.458  0.0908  0.2713 -0.0193
 5402W        W21211   2.091  11.702   1.013 -0.2469 -0.0398  0.0287
 5403W        W21212   8.446   5.002   2.883  0.1796  0.2812 -0.0682
 5404W        W21213  14.421   1.209   5.327 -0.0565 -0.1643  0.2015
 5405W        W21214   0.892   9.174   0.725 -0.0639  0.1728 -0.1123
 5406W        W21215   4.228   0.046   1.579 -0.0803 -0.2695 -0.1255
 5407W        W21216   3.234   5.345   0.686 -0.2029  0.2048  0.0136
 5408W        W21217  14.490   9.840  13.373 -0.1573 -0.2432  0.0204
 5409W        W21218   5.601  10.740   0.863  0.7406  0.2184  0.1148
 5410W        W21219   4.529   7.532   2.975  0.1299 -0.1200  0.0046
 5411W        W21220   5.040   6.381   5.067  0.0466 -0.1861  0.1614
 5412W        W21221   8.406   3.345   0.119  0.0053 -0.0389  0.5369
 5413W        W21222   0.254  17.772   3.212 -0.0747 -0.1676 -0.0136
 5414W        W21223   4.473   0.937   9.616 -0.1532  0.1526  0.1707
 5415W        W21224   0.931  17.573   1.798  0.1226  0.1370  0.1401
 5416W        W21225   8.213  18.976  13.908 -0.0383  0.2151 -0.1999
 5417W        W21226   2.635   8.155  10.035  0.2202 -0.0224 -0.1427
 5418W        W21227   5.727  16.351  13.875 -0.0667  0.2113  0.0214
 5419W        W21228  14.334  15.717  11.351  0.2173  0.1662  0.0080
 5420W        W21229   8.388   8.047   2.735 -0.3525  0.2925  0.2910
 5421W        W21230  12.700   4.443  10.756  0.0869  0.3188  0.0484
 5422W        W21231   1.474   5.170   2.710 -0.1899 -0.0362 -0.0993
 5423W        W21232  16.840  10.691   4.112  0.2079  0.0648  0.1308
 5424W        W21233   8.633   6.750   3.286  0.0379 -0.1348 -0.2613
 5425W        W21234   2.577  18.080  13.244 -0.0122  0.4811  0.2421
 5426W        W21235  12.252   1.466   4.079  0.2154  0.0491 -0.2552
 5427W        W21236   2.269  17.745   5.587 -0.0060 -0.1067  0.2429
 5428W        W21237  16.585   8.729   0.084 -0.0299  0.0523  0.0487
 5429W        W21238  10.568   8.938  14.016  0.1028  0.0724  0.2127
 5430W        W21239   7.710   8.953  14.682 -0.1570  0.1409  0.1218
 5431W        W21240  12.446   3.972   4.383  0.1265  0.1478 -0.0213
 5432W        W21241  19.076  12.512  14.349  0.0814 -0.2265 -0.0820
 5433W        W21242   5.044   4.200  14.697 -0.1638  0.0893  0.0668
 5434W        W21243  16.191   7.202  10.329  0.1143 -0.2312 -0.3020
 5435W        W21244  11.615   0.558   0.160  0.0244 -0.0936 -0.0044
 5436W        W21245   9.176  15.778  15.214 -0.2002  0.1694 -0.0029
 5437W        W21246   2.842  11.122   3.855 -0.0079 -0.1418  0.3612
 5438W        W21247  16.343  19.129   3.489  0.3225 -0.2017 -0.0200
 5439W        W21248  10.230   3.180  14.368  0.0882  0.0362  0.1137
 5440W        W21249   0.841  14.628   2.744  0.0433 -0.0727 -0.0293
 5441W        W21250  18.234  13.361   4.875 -0.0743 -0.0317  0.1583
 5442W        W21251  13.959  15.885   5.668  0.0624 -0.2107 -0.1108
 5443W        W21252   0.298   5.005  13.842  0.2301 -0.0870  0.5204
 5444W        W21253   4.782  18.770   2.708  0.1759 -0.4667 -0.0552
 5445W        W21254   8.403   0.583   4.719  0.1968 -0.0926  0.1813
 5446W        W21255   6.712  11.599  11.380 -0.1046 -0.4385 -0.4492
 5447W        W21256  18.979   7.349  15.024 -0.0862  0.0182 -0.0548
 5448W        W21257   4.729  10.438   2.683 -0.0186  0.1082  0.1172
 5449W        W21258  11.273   0.574   0.598  0.0303 -0.1720  0.1393
 5450W        W21259   5.542   9.004  12.057  0.1060  0.0758 -0.4753
 5451W        W21260   0.639  16.650   0.911 -0.2626  0.2762 -0.2477
 5452W        W21261  10.229   5.573  13.192 -0.1978  0.0246 -0.1453
 5453W        W21262  12.473   9.944  11.970 -0.2840  0.2133 -0.1563
 5454W        W21263  16.760   3.463   2.016 -0.3277 -0.2035 -0.1565
 5455W        W21264  11.279   0.967   0.247  0.0227  0.3944 -0.2638
 5456W        W21265  15.912   1.134   4.036  0.2631  0.2498 -0.1642
 5457W        W21266   4.330  10.215   2.425 -0.2043 -0.1176 -0.4344
 5458W        W21267   7.017  16.981   4.089  0.1815  0.2496  0.0913
 5459W        W21268  15.649  13.999  14.184  0.0123 -0.2444  0.1983
 5460W        W21269   6.810  18.973   9.282  0.1095  0.1056 -0.2023
 5461W        W21270   0.135  10.886  11.035 -0.2572  0.3094  0.2221
 5462W        W21271   9.238   5.963   2.434 -0.2649 -0.1888 -0.1867
 5463W        W21272   8.742   2.574  12.257 -0.0491 -0.2326  0.3524
 5464W        W21273   3.648  16.979   0.267 -0.1618 -0.1015  0.2737
 5465W        W21274   5.240   3.957   1.970  0.4852  0.1025  0.2961
 5466W        W21275  12.822   2.436  10.248  0.2424  0.2814  0.0090
 5467W        W21276   8.909   0.605  11.055 -0.1135 -0.1193  0.1018
 5468W        W21277   1.054  16.995   5.816  0.0037 -0.2347 -0.1686
 5469W        W21278   8.244   5.560   3.834  0.0999 -0.0345  0.1283
 5470W        W21279   8.694   9.437   1.115 -0.0229  0.0080 -0.2103
 5471W        W21280  12.251  15.016   2.974  0.2851  0.0340  0.0145
 5472W        W21281  12.021   0.633  11.860 -0.0378 -0.0999  0.0833
 5473W        W21282  13.191   9.333  14.680  0.0505 -0.1031 -0.1903
 5474W        W21283  16.220  15.794  13.057  0.2918 -0.2662  0.0671
 5475W        W21284   0.437   3.910  10.288  0.3020  0.1172  0.0999
 5476W        W21285   9.288  13.154  14.401  0.2573  0.2217 -0.3842
 5477W        W21286  16.898   6.381  13.283  0.1554  0.5266  0.1805
 5478W        W21287   4.728   7.443   4.687  0.0826  0.0851 -0.2533
 5479W        W21288  17.832  16.679   1.970  0.0935  0.0919 -0.4953
 5480W        W21289   3.167  11.461   1.711  0.2987  0.0316  0.0378
 5481W        W21290  16.259  11.417  12.763 -0.0464  0.1162  0.0718
 5482W        W21291  13.147  17.004   1.573  0.1285 -0.4103 -0.0928
 5483W        W21292  11.846   2.134   5.321 -0.1362  0.2721  0.0580
 5484W        W21293   9.090  15.758   1.594 -0.2943  0.1259 -0.2005
 5485W        W21294  17.709  11.030   0.930  0.2858  0.0627  0.0680
 5486W        W21295   8.763   8.396   2.941 -0.0119 -0.0935  0.0293
 5487W        W21296   6.935   9.950  11.720  0.0974 -0.2060  0.3148
 5488W        W21297  18.641  16.938   1.612  0.1575  0.2756 -0.0917
 5489W        W21298  16.163   0.055  14.967  0.0413  0.0075  0.1932
 5490W        W21299   7.410   8.538  11.199  0.1471  0.0584 -0.0658
 5491W        W21300   5.827  13.121   4.032  0.2664  0.2150  0.1246
 5492W        W21301  12.912   9.385  14.198 -0.2530  0.2867  0.3611
 5493W        W21302   7.527  17.382   1.638  0.0445  0.2184 -0.2139
 5494W        W21303   2.801  16.808   1.284 -0.1009  0.1209 -0.0724
 5495W        W21304   1.395  11.957   3.866  0.1956 -0.0304  0.1578
 5496W        W21305  14.276  14.047   0.059  0.0119  0.1151 -0.1510
 5497W        W21306   5.014  17.120  14.242 -0.0126  0.0785  0.4342
 5498W        W21307  12.045   4.871   1.363 -0.0845  0.0933 -0.2380
 5499W        W21308   8.322  12.284   4.598  0.1477  0.0181 -0.1042
 5500W        W21309   5.844  17.868  10.664  0.0664  0.0216  0.1746
 5501W        W21310   2.087  10.358   1.170  0.0040  0.0534  0.1870
 5502W        W21311   7.693   6.957  10.482  0.1106  0.0017 -0.2642
 5503W        W21312   2.490   8.583  12.982  0.1803 -0.3151 -0.2512
 5504W        W21313  17.937  14.327  13.208 -0.2512  0.2266  0.0255
 5505W        W21314   1.033   7.478   2.802  0.0698  0.1125  0.1196
 5506W        W21315   4.788  12.572   0.167 -0.1057  0.0008 -0.2471
 5507W        W21316  16.640   6.008   2.613 -0.1721 -0.1379  0.1599
 5508W        W21317   6.096   5.714   2.930  0.0148  0.0316  0.0394
 5509W        W21318   3.668  11.109   3.601 -0.1602 -0.0207 -0.0699
 5510W        W21319  12.487  12.574   3.317 -0.0125  0.0752  0.0615
 5511W        W21320   9.776  12.220   2.610  0.1463 -0.0562  0.1079
 5512W        W21321   2.959  12.046   1.002  0.2024 -0.0140 -0.0927
 5513W        W21322   9.142   6.847   4.152  0.0968  0.1273  0.0316
 5514W        W21323  14.283  17.546   1.312  0.1490 -0.1635 -0.0783
 5515W        W21324   5.286  11.974   4.381  0.0106 -0.1986  0.1542
 5516W        W21325  13.826  16.301  11.242  0.1947  0.1393  0.0367
 5517W        W21326   6.759  18.609   3.012 -0.0107 -0.0439 -0.2194
 5518W        W21327  10.002  14.096   3.950 -0.2548 -0.2183  0.3671
 5519W        W21328  16.908   5.352   1.336  0.2517 -0.1198 -0.0866
 5520W        W21329  17.156  18.990  13.484 -0.5180  0.0963  0.1631
 5521W        W21330  10.533  11.201   2.747 -0.4164 -0.0328  0.0394
 5522W        W21331  18.469   8.470   1.197 -0.2134  0.0827 -0.0931
 5523W        W21332   4.305   5.901  10.690 -0.0949  0.4855 -0.1867
 5524W        W21333   0.728   3.332  13.080 -0.0217  0.0586  0.0663
 5525W        W21334  17.012   4.946  13.082  0.1909  0.0479  0.1069
 5526W        W21335   7.998   7.463   5.572  0.1230 -0.0681  0.0395
 5527W        W21336   9.240  13.459   1.165  0.0051 -0.3907  0.1426
 5528W        W21337   7.523   3.886  13.554  0.0104  0.0190  0.2452
 5529W        W21338  11.280  11.084  11.237 -0.0001  0.0075 -0.0821
 5530W        W21339   5.220  10.907  12.367 -0.2717  0.1243  0.0338
 5531W        W21340  14.113  15.995   4.506 -0.0182 -0.1710  0.1394
 5532W        W21341  13.490   2.534   0.874  0.2130  0.1828 -0.0903
 5533W        W21342   3.950  12.711  12.722 -0.0839 -0.2276 -0.0277
 5534W        W21343   7.319  13.231  10.193  0.1335  0.2049 -0.3012
 5535W        W21344   3.351   8.173   1.790 -0.1353  0.3016 -0.2606
 5536W        W21345  10.948   8.804  13.714  0.1019 -0.4337  0.3860
 5537W        W21346  13.560  11.571   1.808 -0.5652  0.0081  0.1260
 5538W        W21347   5.435   1.807   3.484 -0.2446 -0.2678  0.0719
 5539W        W21348   7.268  12.075  13.178 -0.1945  0.2825  0.1465
 5540W        W21349   5.922   0.586   9.950 -0.1953  0.1319 -0.1487
 5541W        W21350   4.592  11.316   4.321 -0.0492 -0.0062  0.0291
 5542W        W21351  18.321   8.614   2.438  0.0260 -0.0035 -0.0593
 5543W        W21352  18.828  13.875  15.220  0.2081 -0.0889  0.1125
 5544W        W21353  14.393   2.463   1.391  0.2712 -0.0278  0.2923
 5545W        W21354   1.197   5.648   3.109 -0.0636 -0.1396  0.2611
 5546W        W21355   4.758   3.348  10.483  0.0276  0.1178  0.1633
 5547W        W21356   0.419   8.786   9.978 -0.1079  0.1552 -0.0204
 5548W        W21357  14.826   7.128   3.650 -0.0229  0.2161 -0.1715
 5549W        W21358  13.038  18.016   0.340  0.2590 -0.0244 -0.5950
 5550W        W21359   2.848  16.162   1.178  0.3331 -0.1632 -0.2345
 5551W        W21360   7.843   1.443   3.759  0.2188 -0.1099 -0.0340
 5552W        W21361   7.243   2.118   3.592 -0.1586 -0.0270 -0.0339
 5553W        W21362   4.364  14.783   1.652 -0.0992  0.3650 -0.3609
 5554W        W21363  12.444   1.914  11.212 -0.1608  0.0707  0.1944
 5555W        W21364  18.784   0.192  13.427 -0.0852  0.1304 -0.1761
 5556W        W21365  13.912   8.247  13.809  0.0217  0.1141  0.0180
 5557W        W21366  15.919   8.485   1.693  0.0470 -0.2700 -0.1600
 5558W        W21367   2.365   2.108  12.379 -0.0477 -0.2802  0.1364
 5559W        W21368   0.641  14.468   3.878 -0.1708 -0.1087 -0.1079
 5560W        W21369  13.361   9.663  12.331 -0.3046 -0.1568  0.0704
 5561W        W21370   3.384   1.441   4.161  0.1549  0.1324 -0.1131
 5562W        W21371  11.512  13.356  12.995 -0.2193 -0.0085  0.1054
 5563W        W21372   9.267   4.943  12.812 -0.4361 -0.0276 -0.1951
 5564W        W21373  12.691   4.110   5.052 -0.1215  0.0965  0.1089
 5565W        W21374   1.559  12.940   0.639 -0.1188 -0.1548 -0.1653
 5566W        W21375   9.508  14.321  12.692  0.2546 -0.2850  0.1339
 5567W        W21376   4.977   1.811   4.586 -0.1257 -0.2348  0.0547
 5568W        W21377   6.193   5.035   5.596 -0.0146  0.1712 -0.0543
 5569W        W21378  14.431  11.274   4.775 -0.1770  0.3690  0.3118
 5570W        W21379   4.967  11.528   1.255  0.0605 -0.1736  0.2863
 5571W        W21380  12.426  18.029   3.305 -0.1242  0.2155 -0.1113
 5572W        W21381  15.718  18.587  11.341  0.0127 -0.1359  0.2453
 5573W        W21382  16.412   7.364  13.770  0.0896 -0.2255 -0.1991
 5574W        W21383   5.055  10.624  13.875  0.0646  0.0445 -0.1930
 5575W        W21384   3.423   5.150   3.682  0.1704 -0.2571 -0.1442
 5576W        W21385   4.779  11.096   2.449 -0.0036 -0.0682  0.3529
 5577W        W21386   8.602   1.362  13.203  0.1313 -0.3718  0.0994
 5578W        W21387   6.617  10.615   4.317  0.1682  0.0972  0.0523
 5579W        W21388  10.156   7.113  13.950  0.2055 -0.2140  0.0747
 5580W        W21389   9.299   4.325   4.269  0.0680  0.3439 -0.0825
 5581W        W21390  18.692   9.953   4.096  0.1669  0.2416  0.2804
 5582W        W21391  10.568   6.908   4.615 -0.4332 -0.5101  0.0939
 5583W        W21392   3.081   7.756  10.727  0.0397  0.0920 -0.1095
 5584W        W21393  16.259   5.138   3.543  0.3008  0.4025  0.3075
 5585W        W21394  12.801  17.378  13.401 -0.0136  0.2212  0.5090
 5586W        W21395   4.240   4.162   0.963 -0.4693  0.2869 -0.1113
 5587W        W21396   1.573   5.503  14.316 -0.0513 -0.1374  0.1286
 5588W        W21397   7.147   9.396  12.414 -0.0218 -0.0133 -0.1906
 5589W        W21398  12.328  15.437  12.132 -0.0293  0.2012 -0.1465
 5590W        W21399  12.598  14.318   4.133  0.3978  0.3152  0.1399
 5591W        W21400   9.286  17.140   3.242 -0.2641  0.2931 -0.0681
 5592W        W21401  12.859   6.235   4.655  0.1735  0.1706 -0.1707
 5593W        W21402  10.903  14.540  15.258  0.2118  0.0792 -0.3438
 5594W        W21403  18.152   5.134  11.871 -0.1257 -0.2972 -0.1280
 5595W        W21404  13.804   9.186   4.923  0.0918 -0.0336 -0.1204
 5596W        W21405  10.768   7.300   4.190  0.0506 -0.0647 -0.0486
 5597W        W21406   3.451   3.148   1.319 -0.2384  0.1978 -0.4550
 5598W        W21407  10.654  11.730  14.024 -0.1214  0.2705  0.1305
 5599W        W21408  17.595   3.840   9.837 -0.3022 -0.0696 -0.1962
 5600W        W21409   0.665   0.978   5.068 -0.4304  0.0065 -0.2029
 5601W        W21410   5.823  15.679  13.634 -0.0819 -0.1798  0.1040
 5602W        W21411  12.980  13.210  13.784 -0.1572 -0.0371  0.1845
 5603W        W21412   3.267  15.761   3.930  0.0430 -0.1266  0.0197
 5604W        W21413   6.603   3.236  15.026  0.0815 -0.2943 -0.1479
 5605W        W21414   7.826  11.249  14.665 -0.0741 -0.0144 -0.5297
 5606W        W21415   1.893  13.944  10.784  0.3269  0.0990 -0.0464
 5607W        W21416  15.855  16.982   0.420 -0.3101 -0.0622 -0.0098
 5608W        W21417   6.649  18.853  13.429  0.2293 -0.1728 -0.4061
 5609W        W21418   1.553   2.104   2.853 -0.1302 -0.2645 -0.2859
 5610W        W21419   1.876  11.057  13.610  0.0444 -0.1639 -0.0379
 5611W        W21420  14.639   2.676   4.314 -0.0838  0.0657  0.3848
 5612W        W21421  12.703   9.174  11.746 -0.1423  0.1235  0.2904
 5613W        W21422  14.309  10.290  14.771  0.0959 -0.0768  0.1686
 5614W        W21423   0.664   4.651   3.567  0.1317  0.0542 -0.1279
 5615W        W21424  15.869   5.068   3.059 -0.0219  0.1366  0.0502
 5616W        W21425   1.253  16.845   1.431  0.0822  0.0192 -0.3056
 5617W        W21426  16.629   1.729  13.618  0.1348  0.0930 -0.1961
 5618W        W21427  12.875   2.250  14.592 -0.1090  0.1997 -0.2032
 5619W        W21428  17.796  13.514   1.241 -0.0090  0.1527  0.2639
 5620W        W21429  11.368   6.995  14.017  0.1313 -0.0804  0.2743
 5621W        W21430  15.324  17.209  11.567 -0.0087  0.2479 -0.1491
 5622W        W21431  15.361   0.675  11.739  0.2557 -0.2102  0.0584
 5623W        W21432  13.935  10.798  14.745  0.0137  0.0559  0.1214
 5624W        W21433  17.192   9.365   0.912 -0.1516 -0.2702  0.1787
 5625W        W21434   8.568   3.495  14.908  0.0001 -0.2176 -0.0661
 5626W        W21435  11.158   5.179   3.165 -0.0420 -0.1005 -0.2178
 5627W        W21436   5.200   9.559  13.878  0.0842  0.1305 -0.3925
 5628W        W21437  11.299   4.510   2.056 -0.2278  0.2304 -0.0709
 5629W        W21438   2.052  10.210   1.606 -0.2810 -0.3571 -0.0160
 5630W        W21439  11.847   9.093   2.883  0.1221  0.0263 -0.0882
 5631W        W21440   4.682  11.838  15.019 -0.0673  0.1956 -0.1910
 5632W        W21441   7.413  13.578  12.727 -0.1098  0.0030  0.1345
 5633W        W21442   8.339   2.630  11.054 -0.1292  0.0932  0.3420
 5634W        W21443  13.383   6.233  11.702  0.2942 -0.2315 -0.1298
 5635W        W21444  15.399   9.761   5.831  0.1063  0.0819 -0.1726
 5636W        W21445   5.129   7.718  10.825  0.0266 -0.0617  0.0801
 5637W        W21446   0.969  13.309  11.529  0.0869  0.1037 -0.1280
 5638W        W21447   4.569  18.260  14.049  0.1957  0.1310 -0.0069
 5639W        W21448  16.577   3.234  13.522 -0.2998  0.0420 -0.0492
 5640W        W21449   3.368   7.587  12.286  0.0786  0.0476 -0.3888
 5641W        W21450  12.836  10.440   9.603 -0.2900  0.1290  0.0951
 5642W        W21451  16.881   7.413   2.496  0.1348 -0.4060 -0.0283
 5643W        W21452   2.532   7.762  12.466 -0.0070 -0.2874  0.0657
 5644W        W21453   4.913   5.446  12.021 -0.1134 -0.3159 -0.3238
 5645W        W21454  13.212  14.824  10.605 -0.0256 -0.0025  0.2479
 5646W        W21455  17.171   4.631   0.611 -0.2908  0.1286 -0.0830
 5647W        W21456  17.318  17.016  13.861 -0.0210 -0.4001 -0.0462
 5648W        W21457   3.918   6.811   0.126  0.4155 -0.1623 -0.0330
 5649W        W21458   9.943  11.479  11.689  0.2904 -0.0627  0.0149
 5650W        W21459   8.428  10.738   1.074  0.3514 -0.1276 -0.0349
 5651W        W21460   1.765   2.190   2.415 -0.1491  0.3135  0.3258
 5652W        W21461  15.172  15.829  13.266 -0.2203  0.0127  0.4116
 5653W        W21462   8.001   0.165  10.465  0.2435 -0.0138  0.2623
 5654W        W21463  10.891  17.131   4.762 -0.0465 -0.0742 -0.2798
 5655W        W21464  10.832   4.780  11.328 -0.3106 -0.0431 -0.3375
 5656W        W21465  12.740   0.042   1.829  0.0522  0.0329  0.1182
 5657W        W21466   0.581   0.345  12.705 -0.0173 -0.0438 -0.1821
 5658W        W21467  11.989  17.364   1.252 -0.3233 -0.0684 -0.1312
 5659W        W21468   1.874   6.971  14.537  0.2030  0.1297  0.3550
 5660W        W21469  14.730  17.838   1.237  0.1403  0.2764 -0.2871
 5661W        W21470   7.972   0.657  11.398 -0.3848  0.3300  0.0041
 5662W        W21471   3.463  14.229   0.304  0.1062  0.4701  0.0513
 5663W        W21472   3.424  14.084  14.157 -0.3156  0.1108  0.1378
 5664W        W21473   0.597  11.527  13.845 -0.0146 -0.3909  0.2685
 5665W        W21474  14.468  11.126   6.206  0.1790 -0.1176  0.0167
 5666W        W21475   7.957  18.764   1.125 -0.2170  0.1499 -0.1514
 5667W        W21476  13.615  17.632   5.503 -0.0069 -0.1677  0.1893
 5668W        W21477   9.380  11.930   2.002 -0.1460  0.1127  0.2741
 5669W        W21478   9.822  10.059  14.664  0.0841 -0.0462 -0.0450
 5670W        W21479  17.669   5.047   2.432  0.1959  0.2580 -0.0222
 5671W        W21480   9.126  12.032   0.815  0.1132 -0.1540 -0.3901
 5672W        W21481   3.527  15.342   3.813  0.2064  0.3068 -0.0909
 5673W        W21482   8.774  17.444   0.725 -0.2296 -0.0351 -0.1174
 5674W        W21483   4.032   2.164  15.017 -0.1684  0.2475  0.1095
 5675W        W21484   0.870  11.939  15.182 -0.2175 -0.1713 -0.0470
 5676W        W21485  18.323   3.041  14.973 -0.0661  0.3070  0.0804
 5677W        W21486  11.277   1.250   3.521 -0.3012  0.1527 -0.2186
 5678W        W21487  15.903  11.872   2.359 -0.2181  0.0574 -0.0633
 5679W        W21488   8.548  13.349   3.568  0.2154 -0.2333 -0.1281
 5680W        W21489   9.141  18.010   3.682  0.0538 -0.2605  0.1046
 5681W        W21490  15.691  15.639  11.308  0.0489 -0.1480 -0.0169
 5682W        W21491  13.862  17.184  14.861 -0.0528 -0.1760  0.0224
 5683W        W21492   3.464   3.783   3.535  0.1166 -0.0017 -0.0163
 5684W        W21493   0.838  16.207   0.008 -0.1260 -0.2448 -0.1611
 5685W        W21494  10.832  13.822  13.520 -0.1076  0.0631 -0.1381
 5686W        W21495  18.919  12.382   1.339  0.2434 -0.0287  0.2542
 5687W        W21496   5.303  16.188  13.036 -0.1676  0.2177  0.0124
 5688W        W21497  12.628   3.187   0.727 -0.1503 -0.0745  0.2459
 5689W        W21498   7.287  13.357  10.668 -0.0394  0.5416 -0.2332
 5690W        W21499   2.001   2.860  12.203  0.1079 -0.4449 -0.1365
 5691W        W21500   6.690   1.785   1.872  0.3652  0.3554 -0.2594
 5692W        W21501  10.194   5.646   4.151  0.2201 -0.0165 -0.1092
 5693W        W21502  17.133  13.977  14.058  0.0244  0.1891  0.4851
 5694W        W21503  17.528  18.503   2.412  0.2888  0.2036  0.3166
 5695W        W21504  15.022  10.011   4.803 -0.2431 -0.0990  0.0215
 5696W        W21505   0.649  10.061   3.711  0.4098 -0.0123 -0.2722
 5697W        W21506   5.739  16.449  10.167  0.0105 -0.1858  0.3018
 5698W        W21507   7.724   6.424   3.202 -0.1387  0.4057 -0.0320
 5699W        W21508  17.024  15.403   1.838  0.4353 -0.2495 -0.1748
 5700W        W21509  15.134   3.485   4.292 -0.0273 -0.0450 -0.1708
 5701W        W21510  15.133   6.959  10.061 -0.1971 -0.1663 -0.2011
 5702W        W21511  17.644   9.264   1.122 -0.0825  0.1496 -0.0171
 5703W        W21512   3.911  18.917   3.680 -0.1491  0.1910  0.1611
 5704W        W21513   7.396   3.995   1.403 -0.2253  0.1809  0.1537
 5705W        W21514   3.355   7.504   9.923 -0.2216  0.1095 -0.1969
 5706W        W21515  17.045   1.428  10.477 -0.1904  0.0090  0.1125
 5707W        W21516   0.956   2.379  14.190  0.0031  0.2153 -0.0434
 5708W        W21517  11.101   4.138   4.208 -0.3459  0.1792 -0.1260
 5709W        W21518  16.330  17.333  13.380 -0.1355 -0.0913 -0.1263
 5710W        W21519   3.416  13.568  11.658  0.1560 -0.1001  0.0535
 5711W        W21520   1.842  16.553   0.997 -0.2968 -0.5640 -0.1717
 5712W        W21521   7.612   2.686   0.200  0.0433  0.1914  0.0402
 5713W        W21522   0.313  12.261  12.502  0.2421  0.0358 -0.1761
 5714W        W21523  14.155  15.591  10.907 -0.0105 -0.4251 -0.0936
 5715W        W21524   3.212   1.490   2.496  0.0982 -0.0992  0.0147
 5716W        W21525   2.287  16.942   3.469 -0.3630 -0.2108 -0.0065
 5717W        W21526   6.905  10.714  10.256 -0.2221  0.1825 -0.0140
 5718W        W21527  14.107   8.142  11.936 -0.2970 -0.3569 -0.0587
 5719W        W21528  15.984  12.679   2.966  0.2953 -0.2726 -0.2475
 5720W        W21529  17.368   2.370   3.406 -0.2305 -0.0632 -0.0112
 5721W        W21530   1.754  19.040  10.788 -0.1402  0.1356  0.2838
 5722W        W21531  15.075  13.665   4.296  0.3001 -0.2563  0.2271
 5723W        W21532   1.772   5.536   5.388  0.1453 -0.0853 -0.2037
 5724W        W21533   0.403   0.871   3.072  0.4057 -0.0558  0.1445
 5725W        W21534   7.471  12.141   5.548 -0.1944  0.0454 -0.1942
 5726W        W21535  17.310  16.156  11.620 -0.0284 -0.1736 -0.2364
 5727W        W21536   1.121   4.920  13.061  0.0084 -0.2323  0.1253
 5728W        W21537  17.732   1.350  12.410  0.1862  0.2600 -0.2713
 5729W        W21538  14.543  13.258   3.844  0.1535 -0.0532  0.1713
 5730W        W21539   4.652   4.290   2.830  0.0305 -0.1979  0.1744
 5731W        W21540   7.443   1.256  13.994 -0.3895  0.2269  0.2423
 5732W        W21541  10.119  15.067  10.750 -0.0447 -0.0175 -0.3925
 5733W        W21542   0.911   8.531  14.638 -0.0395 -0.0696  0.0055
 5734W        W21543   1.229  18.193  12.003 -0.1466 -0.2583  0.2564
 5735W        W21544   3.796   2.245   0.565  0.1430 -0.3968  0.2037
 5736W        W21545   2.202   3.737   3.565  0.2160  0.4950 -0.1400
 5737W        W21546   7.176   4.205   2.755 -0.0569 -0.0200  0.0088
 5738W        W21547  18.332   7.696   3.287 -0.1466 -0.4960  0.1242
 5739W        W21548   9.354  11.365  11.054  0.0158 -0.1453  0.1859
 5740W        W21549  10.477   2.780  10.326  0.1337 -0.1426  0.0332
 5741W        W21550   6.054  15.122  10.912  0.0867  0.1580 -0.2141
 5742W        W21551   2.175   6.673   4.073  0.0036  0.1093 -0.1684
 5743W        W21552  11.335   5.069   2.628 -0.1124  0.0885 -0.1657
 5744W        W21553   0.033  16.112   0.130  0.0518 -0.0253  0.1122
 5745W        W21554   3.648  12.666  13.119 -0.4031 -0.5019 -0.2318
 5746W        W21555  10.412  18.600  10.732  0.1035  0.1529  0.0979
 5747W        W21556   1.982  18.780   2.410  0.1130 -0.2135  0.0538
 5748W        W21557  10.553  10.306   2.992  0.2167  0.2507 -0.0223
 5749W        W21558   6.877  15.922  13.484 -0.1578 -0.3024  0.0964
 5750W        W21559   0.342   8.246   4.844  0.0731 -0.1714 -0.0310
 5751W        W21560  13.967   0.796   1.311 -0.0995 -0.0615  0.4033
 5752W        W21561  10.285  13.264  13.808 -0.3167 -0.0130 -0.0578
 5753W        W21562  12.566   1.631   2.748 -0.0339  0.1919 -0.0211
 5754W        W21563  14.456   6.420   1.573  0.0896  0.4334 -0.0656
 5755W        W21564   5.312   8.744   2.229 -0.0222  0.2765  0.0510
 5756W        W21565   6.791   8.819  13.549 -0.0910 -0.2657 -0.1901
 5757W        W21566  15.084  14.592  10.090  0.1916 -0.1015 -0.1400
 5758W        W21567   3.467   6.797   1.410 -0.3101 -0.0615  0.0454
 5759W        W21568   3.462  14.138   4.107  0.0506  0.0316 -0.1001
 5760W        W21569   0.970  15.594   0.224  0.1873  0.2503 -0.1797
 5761W        W21570   5.664   9.925  13.411  0.2859  0.2399 -0.1403
 5762W        W21571  10.900   1.328  11.642 -0.1649  0.1853 -0.2284
 5763W        W21572  10.016  13.871  13.684  0.2342  0.1251  0.1037
 5764W        W21573   9.153  11.427  12.787  0.1503  0.0848  0.1323
 5765W        W21574  17.021  17.356  14.611  0.0221  0.2638  0.0511
 5766W        W21575  12.819   4.120  14.873  0.2252 -0.3587  0.1975
 5767W        W21576  15.595  16.897  15.213 -0.1221 -0.1636  0.1606
 5768W        W21577  15.690  18.126   3.308  0.0540 -0.1955  0.2373
 5769W        W21578   7.198   4.304   4.655  0.2185 -0.1636 -0.0388
 5770W        W21579  16.045  16.788   6.240  0.0918  0.0989 -0.0996
 5771W        W21580   6.709  15.653  11.274 -0.0619  0.0480  0.2527
 5772W        W21581   8.364   9.838   0.754  0.0290 -0.4208  0.1383
 5773W        W21582   7.612  16.881   5.214 -0.0257 -0.2298 -0.1332
 5774W        W21583  12.789  12.226  14.176  0.0863  0.1603 -0.0027
 5775W        W21584   8.587  11.082   2.586  0.1486 -0.0946 -0.1292
 5776W        W21585   2.051   4.436   1.672  0.1692 -0.0623  0.2580
 5777W        W21586  11.793  17.138   5.079 -0.5364 -0.2013  0.1170
 5778W        W21587  16.616   2.936   0.314 -0.2503  0.2242 -0.0599
 5779W        W21588  18.554  18.749   5.168  0.0954  0.0009  0.3341
 5780W        W21589  14.458   0.354   9.724 -0.2156  0.3482 -0.2152
 5781W        W21590   5.138   7.686  11.748  0.4626 -0.1623  0.2574
 5782W        W21591   4.875  13.927   5.100  0.1467 -0.3222  0.1534
 5783W        W21592  18.385   0.013   2.395  0.0408 -0.1816  0.0987
 5784W        W21593   9.960  15.798  11.652 -0.2033 -0.0837  0.5686
 5785W        W21594  15.544  13.733   1.748 -0.4212 -0.0865 -0.1489
 5786W        W21595   7.482  10.372  11.880 -0.0353  0.0129  0.0869
 5787W        W21596   4.292  10.185  10.965 -0.3084  0.0270 -0.4911
 5788W        W21597  15.109  14.057   3.545  0.0049  0.1169  0.2118
 5789W        W21598  17.672   2.373  11.497  0.1451  0.0793 -0.2067
 5790W        W21599   5.499  18.013   4.046 -0.2480  0.2174  0.1707
 5791W        W21600  10.887   4.791   2.898  0.1136 -0.0688 -0.0880
 5792W        W21601   7.178  11.783  14.600  0.2436  0.1242 -0.2193
 5793W        W21602  15.740   1.242  11.019  0.2165 -0.1198 -0.1310
 5794W        W21603  14.524  13.799  11.268  0.2887 -0.1662  0.1551
 5795W        W21604   7.388   1.329   5.303  0.0150  0.3556  0.0234
 5796W        W21605   0.938  11.451   4.529 -0.0967  0.2141 -0.0536
 5797W        W21606  11.788   4.440  11.235 -0.4248 -0.1933  0.0092
 5798W        W21607   6.417  17.572   0.383 -0.1887 -0.0409  0.1287
 5799W        W21608   7.644  15.895   3.125  0.0304  0.0082 -0.0500
 5800W        W21609  18.932   0.034  14.617 -0.0800 -0.1236  0.0102
 5801W        W21610   8.141  16.617  11.119 -0.0845 -0.2129 -0.0947
 5802W        W21611  18.556   2.199  12.820 -0.1314 -0.1581 -0.0954
 5803W        W21612  13.359   5.359   4.124  0.1627  0.0133  0.5960
 5804W        W21613  16.304   7.882  10.026  0.2341 -0.0592  0.5092
 5805W        W21614  18.913  12.820  12.065  0.1921  0.2620 -0.1830
 5806W        W21615  13.178   9.082  13.252 -0.2776  0.0090 -0.0784
 5807W        W21616   7.329  12.897   1.289 -0.2801  0.1925  0.1064
 5808W        W21617   8.237  15.317   3.291 -0.3799  0.3023 -0.1076
 5809W        W21618   6.562  11.395   0.093  0.0186  0.2002  0.0057
 5810W        W21619   8.122  17.327  13.408 -0.0541  0.1470  0.1194
 5811W        W21620   3.400  15.547  14.036 -0.0684 -0.1949 -0.0380
 5812W        W21621   4.176   0.757  11.938 -0.0482  0.0415 -0.0717
 5813W        W21622  10.477   7.935  12.520  0.2281 -0.0728 -0.0250
 5814W        W21623  14.411  16.735   4.118 -0.1558  0.2144  0.1971
 5815W        W21624   0.214   0.323   3.415 -0.2694  0.1068 -0.0325
 5816W        W21625   2.841  18.344   2.559 -0.0591  0.2705  0.1051
 5817W        W21626   7.354   8.688  13.427  0.2168 -0.1408 -0.3427
 5818W        W21627  16.031  14.455   4.911  0.4759  0.1815 -0.0124
 5819W        W21628  15.543  10.994  11.945 -0.1582  0.1985 -0.1878
 5820W        W21629  15.029   8.003  11.052  0.2432  0.0622 -0.0065
 5821W        W21630  10.452   2.533   3.088  0.0351 -0.1648 -0.2948
 5822W        W21631  13.799   7.590  12.214 -0.1317  0.0525 -0.0449
 5823W        W21632   0.703  16.088   0.906  0.0910 -0.1155  0.0762
 5824W        W21633   8.453  10.703   0.061 -0.0514 -0.0690 -0.1791
 5825W        W21634   1.914  11.604  11.502 -0.1647 -0.0561  0.3214
 5826W        W21635   0.706   1.028   2.084  0.2466 -0.0498  0.0040
 5827W        W21636   6.437   6.345  13.555 -0.2285 -0.2088 -0.2197
 5828W        W21637   9.707   6.540   4.542 -0.2393 -0.2081  0.2071
 5829W        W21638  15.847   5.756  13.383  0.0341 -0.0208  0.2767
 5830W        W21639  10.951  15.022  11.996 -0.3251  0.4192 -0.1936
 5831W        W21640   3.319  14.314   0.764 -0.3070  0.1607 -0.0994
 5832W        W21641  12.562  16.295  14.743  0.3758  0.0610 -0.3115
 5833W        W21642   4.316  15.953  11.104 -0.3322 -0.2643 -0.0228
 5834W        W21643  13.111  13.641  13.575 -0.0578 -0.1118  0.0868
 5835W        W21644   6.632  11.413  14.472 -0.1523  0.0515  0.1023
 5836W        W21645  12.264   3.810   2.236 -0.4439 -0.0449  0.0668
 5837W        W21646   4.622   5.388   2.017  0.1871 -0.0363 -0.1114
 5838W        W21647   7.728  17.910  10.707 -0.3010 -0.4552  0.0981
 5839W        W21648  10.461   4.647   2.462 -0.0094 -0.0174 -0.1294
 5840W        W21649  16.213  14.739  14.201 -0.1675 -0.0394  0.2213
 5841W        W21650   3.986   1.559   1.310 -0.0072 -0.0329  0.2271
 5842W        W21651  10.829   2.135   3.187 -0.1619 -0.1532  0.1515
 5843W        W21652   8.124  13.659   4.332  0.0354  0.1289 -0.1229
 5844W        W21653  18.845   9.343   0.211 -0.0274 -0.1929  0.1986
 5845W        W21654  13.407   2.566   4.457  0.1357 -0.0585 -0.0038
 5846W        W21655  13.763   5.085   2.533 -0.1544 -0.2056 -0.1273
 5847W        W21656   0.836  15.855   2.237  0.0733  0.0086  0.0164
 5848W        W21657   5.120   2.019   2.873  0.1820 -0.2863  0.0939
 5849W        W21658   9.686  16.818   5.824  0.3016  0.0873 -0.2410
 5850W        W21659  11.785   6.910   3.354 -0.1840  0.0138  0.1270
 5851W        W21660  12.529   7.676  12.814 -0.1371 -0.0926 -0.3804
 5852W        W21661   3.551   2.488   0.945  0.0229  0.0380 -0.0736
 5853W        W21662   9.976   1.286  11.975 -0.0881  0.1744 -0.1865
 5854W        W21663  18.575  17.462   4.149 -0.5619 -0.3498  0.0013
 5855W        W21664   6.064  16.232   0.106 -0.0982 -0.1510  0.1623
 5856W        W21665   3.834  10.059   2.503 -0.3238 -0.0703  0.1318
 5857W        W21666  18.766  10.027  12.356  0.0651 -0.0272  0.0425
 5858W        W21667  17.713  17.217   3.719 -0.0764  0.1640  0.0697
 5859W        W21668  16.564   5.505  11.692 -0.1586  0.2075 -0.0104
 5860W        W21669  12.379  16.990   1.505  0.0841  0.0937  0.0626
 5861W        W21670   9.202   9.292   9.406  0.0716 -0.0006 -0.0386
 5862W        W21671  11.205   9.173   3.619  0.3553 -0.0374  0.0764
 5863W        W21672   6.708  16.449   5.026 -0.3568 -0.0265  0.2725
 5864W        W21673   8.320   8.665  13.513  0.2841 -0.0191 -0.0236
 5865W        W21674  11.429  13.518  10.823  0.4826 -0.3037  0.0284
 5866W        W21675  11.232  18.728   1.394 -0.1106 -0.1728  0.2211
 5867W        W21676   1.802  16.268   3.671  0.1634  0.1052 -0.1769
 5868W        W21677  13.401  18.224  11.316 -0.0427 -0.0059  0.0718
 5869W        W21678   6.871   9.152   1.340 -0.0056  0.1211  0.1999
 5870W        W21679   5.836  14.583  12.401 -0.0771 -0.0360  0.1013
 5871W        W21680   7.945  11.555   2.581  0.1630  0.1253 -0.2118
 5872W        W21681  16.943   7.617   2.940 -0.2299 -0.0531 -0.4613
 5873W        W21682  11.332   6.735  14.425  0.1189  0.1871 -0.0272
 5874W        W21683   7.542   4.612   2.595  0.0353  0.3121  0.1221
 5875W        W21684   3.521   4.438   2.749 -0.4588 -0.1918 -0.0196
 5876W        W21685  11.457  16.370   2.910  0.0559  0.0797 -0.1674
 5877W        W21686   7.826   6.421   3.938  0.1755  0.0191  0.1142
 5878W        W21687  17.918   0.808  14.982  0.0115  0.5236 -0.0852
 5879W        W21688   8.609  18.381  10.510 -0.4641 -0.3368  0.2159
 5880W        W21689  13.253   2.016   0.996  0.2047 -0.4043 -0.0204
 5881W        W21690  17.727  14.972   4.333  0.1431  0.0299 -0.0468
 5882W        W21691  12.776  17.876  14.060 -0.0367  0.0094 -0.0920
 5883W        W21692   6.107  15.174  13.602 -0.1403  0.1667  0.1107
 5884W        W21693   1.844   0.142  12.382 -0.0037  0.0431  0.1478
 5885W        W21694  16.257  16.420   2.444 -0.0157 -0.2539  0.1558
 5886W        W21695  15.846  15.717   5.052  0.1971 -0.2898  0.0661
 5887W        W21696  12.441  13.688  11.658 -0.1562 -0.3558 -0.2553
 5888W        W21697   3.503  15.888   4.676 -0.2601 -0.1899  0.4125
 5889W        W21698   6.265   5.269  10.556 -0.3008 -0.0650 -0.2871
 5890W        W21699   6.811  11.162   2.812  0.0311 -0.0219 -0.1810
 5891W        W21700   9.977   9.571  13.887 -0.0163  0.0916  0.0993
 5892W        W21701   4.909   5.824   2.052 -0.4841  0.3708  0.0058
 5893W        W21702  14.274   3.297   4.035  0.2060 -0.5524 -0.0430
 5894W        W21703   6.545   8.624  15.097 -0.1928  0.2159 -0.2318
 5895W        W21704  18.308  11.952   2.012  0.0287  0.3079  0.3244
 5896W        W21705  10.579  16.943  10.727  0.3493  0.1157 -0.4113
 5897W        W21706   6.724   6.575   4.904  0.0508 -0.1289 -0.1398
 5898W        W21707  11.787  16.208  13.981  0.1724  0.0217 -0.0160
 5899W        W21708  10.850   4.848  10.460  0.1504  0.0130  0.3512
 5900W        W21709  14.997   9.738  11.648 -0.1309 -0.2555 -0.0819
 5901W        W21710   5.205  11.511  15.144 -0.1373  0.0232 -0.0512
 5902W        W21711  13.110   8.095   3.189 -0.0539  0.3261 -0.1795
 5903W        W21712   2.964   6.140   1.984  0.1471 -0.1049 -0.0338
 5904W        W21713   0.790  13.983  12.990 -0.3937 -0.0157 -0.3227
 5905W        W21714   0.544   7.793  10.791  0.4082  0.1721  0.0277
 5906W        W21715  15.841   8.862   5.500 -0.1414 -0.3781 -0.1995
 5907W        W21716  18.332  16.050   5.922 -0.1120 -0.2023 -0.0347
 5908W        W21717   5.362   2.307   2.581 -0.0013  0.1843 -0.2255
 5909W        W21718  15.730   7.620  14.161  0.1421  0.1985 -0.0778
 5910W        W21719  16.010  15.458   1.596  0.0917 -0.2189 -0.3067
 5911W        W21720  13.055  17.643   4.765  0.1375  0.0549  0.0142
 5912W        W21721  10.364   5.430   2.116  0.1178 -0.2574 -0.1616
 5913W        W21722  14.909   0.697  14.420  0.0803  0.0824  0.2011
 5914W        W21723  15.103   0.120   0.664  0.1112 -0.0969 -0.2604
 5915W        W21724  17.685   3.105  14.710  0.1020 -0.2748  0.1273
 5916W        W21725  10.964   7.421  12.308 -0.0304 -0.0911  0.0435
 5917W        W21726   5.630  17.798   9.702 -0.0077 -0.0365  0.0026
 5918W        W21727  12.371   2.238  11.593  0.0446 -0.2217  0.0953
 5919W        W21728  15.865   4.817  12.318  0.0804 -0.3949  0.4210
 5920W        W21729   5.299   0.213   0.134 -0.4207  0.0465  0.0740
 5921W        W21730  18.155   8.675   4.262 -0.0992  0.2958 -0.1526
 5922W        W21731   5.054  14.518   0.540 -0.0467  0.1834  0.1707
 5923W        W21732   4.073  16.379  11.257  0.0177 -0.0804  0.0896
 5924W        W21733   9.660   0.426   0.288 -0.0749 -0.0176 -0.0508
 5925W        W21734  10.248   1.933   0.530 -0.1634  0.1219 -0.1353
 5926W        W21735  16.746   0.537   3.293  0.0583 -0.2074 -0.0641
 5927W        W21736  10.630  14.629   0.534 -0.0370 -0.0319 -0.1239
 5928W        W21737   7.620   2.287   4.034 -0.2312 -0.0866 -0.1865
 5929W        W21738  12.524   6.736   4.009 -0.1530  0.1424  0.2514
 5930W        W21739   7.699   9.851   9.617  0.1015  0.2600  0.0109
 5931W        W21740  18.638  13.944  12.901 -0.1832 -0.2121 -0.1030
 5932W        W21741   3.060  10.635  10.375 -0.1247 -0.2859  0.1502
 5933W        W21742  14.358  13.990  14.803  0.1404 -0.2711  0.0875
 5934W        W21743   6.097   5.785   1.525  0.0876  0.1007 -0.1069
 5935W        W21744  11.866  10.647  13.995  0.1237 -0.1271  0.2032
 5936W        W21745   1.887  12.684  12.435 -0.1135  0.0921 -0.0170
 5937W        W21746   8.370  16.094   3.900 -0.0251 -0.2668 -0.1316
 5938W        W21747  12.140  13.019   1.624 -0.0686 -0.0243  0.2494
 5939W        W21748   3.831   3.677   0.543  0.1409 -0.0339  0.0190
 5940W        W21749   3.690  17.885   1.662 -0.1493  0.0490  0.1284
 5941W        W21750   2.392   1.187   2.289 -0.1829  0.3389  0.3537
 5942W        W21751   5.976  15.477   0.464  0.1802  0.0188 -0.1105
 5943W        W21752   3.885  17.909   0.484  0.0271  0.1118 -0.2712
 5944W        W21753   5.028   8.314  11.644  0.1952  0.0367 -0.3435
 5945W        W21754  14.035   8.769  14.616 -0.2996  0.2638 -0.0076
 5946W        W21755  17.050  16.539   0.797  0.0550  0.5442 -0.1964
 5947W        W21756  10.268   9.791   3.907 -0.0346  0.0057  0.1001
 5948W        W21757   1.704  13.190  15.002  0.1091  0.0739  0.1023
 5949W        W21758  17.852   0.186   2.519  0.0184 -0.2652 -0.1142
 5950W        W21759  13.902  10.009   2.998 -0.0382  0.3714 -0.0734
 5951W        W21760  17.604   0.680  10.759  0.1984 -0.2021  0.2201
 5952W        W21761  13.738   3.832  14.393  0.0244  0.0991  0.2009
 5953W        W21762   4.938  17.740   4.172  0.1587 -0.2519  0.1794
 5954W        W21763   0.880   3.863   2.503 -0.0349 -0.0199 -0.1077
 5955W        W21764   7.509   0.237   1.298  0.3658 -0.1386 -0.1625
 5956W        W21765  18.219   7.670   0.825 -0.0690  0.1241 -0.0961
 5957W        W21766   3.389   9.312  11.570  0.0058 -0.2648  0.1240
 5958W        W21767  14.431   1.503   0.864  0.2770  0.3411  0.2396
 5959W        W21768   3.804  16.032   2.200 -0.0823  0.0145 -0.0441
 5960W        W21769  16.688  10.039  13.732  0.0654  0.1366  0.2773
 5961W        W21770   5.181   6.322   0.332  0.2009  0.0492 -0.4508
 5962W        W21771   6.186  14.386   0.407 -0.2119  0.1335  0.2046
 5963W        W21772  17.259   8.715  10.704 -0.0147 -0.1409 -0.0949
 5964W        W21773  13.240   1.601   1.611 -0.1214  0.0008 -0.0380
 5965W        W21774   3.128   0.291  14.924 -0.4072 -0.2025 -0.3161
 5966W        W21775   0.375   4.961   0.802 -0.3492 -0.1366  0.3199
 5967W        W21776  19.018   4.949   4.532 -0.0651 -0.0378 -0.2912
 5968W        W21777   2.361   3.534  13.455  0.2113 -0.0815 -0.1837
 5969W        W21778  15.911  18.275   4.030 -0.1515  0.1630  0.1772
 5970W        W21779   8.109  19.099  13.015  0.1127 -0.1747  0.0285
 5971W        W21780   7.785  17.142   2.762 -0.0637 -0.2303 -0.1680
 5972W        W21781  11.797  16.053   3.470 -0.1169  0.0053  0.1924
 5973W        W21782  11.422  10.826   0.249 -0.0320 -0.0840  0.1545
 5974W        W21783   7.256  17.725  10.841  0.2389 -0.2131  0.2584
 5975W        W21784  15.457   3.060   0.205  0.0575 -0.2855 -0.1433
 5976W        W21785  12.417   6.168   4.936  0.0333  0.0259  0.3144
 5977W        W21786   0.818  16.356   2.208  0.1332 -0.2139 -0.0290
 5978W        W21787   8.555   7.179  14.013  0.0533 -0.0671 -0.5755
 5979W        W21788  13.442  15.919  11.523 -0.2932 -0.0826 -0.0442
 5980W        W21789  10.419  14.093   1.577  0.2050  0.0188 -0.1660
 5981W        W21790   6.192   3.654   0.876 -0.0753 -0.3447  0.0510
 5982W        W21791   2.333  18.814   4.698 -0.0765  0.0037  0.1550
 5983W        W21792  14.996   3.254  12.733  0.1481 -0.0979 -0.0413
 5984W        W21793  17.233   3.895  14.169  0.2866 -0.0334  0.2886
 5985W        W21794   8.668   0.199  11.254  0.0239 -0.2297  0.1773
 5986W        W21795   0.855   2.102  12.523  0.1414  0.1235 -0.1956
 5987W        W21796   3.705   5.268  12.512 -0.4497 -0.3008 -0.0542
 5988W        W21797  10.855   5.612   5.471 -0.2150  0.0790  0.2613
 5989W        W21798   5.514  16.102  13.542  0.1084  0.0120  0.2377
 5990W        W21799   9.776   5.025  13.862 -0.0007  0.0140  0.1090
 5991W        W21800  19.028   1.413  12.121 -0.2850 -0.2387  0.5579
 5992W        W21801  17.856  18.189  14.429 -0.2361 -0.2587 -0.0053
 5993W        W21802  16.079   5.087  15.228  0.3501 -0.0858  0.2062
 5994W        W21803  14.312  13.981  12.651  0.1335  0.0750 -0.0368
 5995W        W21804   5.565  17.613   2.139 -0.1337  0.0294  0.0299
 5996W        W21805  17.784   2.369   0.055  0.3126 -0.0527  0.1232
 5997W        W21806  15.897   5.422  11.684 -0.1774 -0.2063 -0.1540
 5998W        W21807  12.783   8.607   2.755  0.0220  0.0528  0.0307
 5999W        W21808  18.553   7.991   0.302  0.1816 -0.1563 -0.3181
 6000W        W21809   0.900  15.428   4.021  0.0505 -0.1685  0.1229
 6001W        W21810  17.602  11.610  12.917 -0.0230 -0.1262 -0.1772
 6002W        W21811   1.452   0.547  14.886 -0.2328  0.1323  0.3053
 6003W        W21812   6.771   0.812  10.644 -0.1727 -0.1146 -0.0955
 6004W        W21813  19.102  17.810  11.523  0.1380  0.1848  0.1982
 6005W        W21814   9.249   0.283  14.030 -0.2247  0.2127 -0.2280
 6006W        W21815  15.572  14.415  13.654  0.1036 -0.0038  0.1770
 6007W        W21816  13.036   0.098  11.259 -0.0386 -0.0606 -0.0209
 6008W        W21817  14.584   5.874   0.494 -0.0953  0.0345  0.0461
 6009W        W21818   4.895  15.307  11.106 -0.0261  0.0830 -0.0044
 6010W        W21819  11.999   6.150   2.434 -0.0924 -0.3925 -0.1950
 6011W        W21820  13.964   4.039  10.362  0.0433 -0.0634 -0.0183
 6012W        W21821   0.855   5.066   2.803 -0.1635  0.0123  0.1684
 6013W        W21822  16.315  11.831  11.024 -0.1076 -0.0954  0.3028
 6014W        W21823   5.262  10.944  10.629  0.4891  0.1087 -0.2874
 6015W        W21824   6.263  16.305   5.186  0.0823 -0.2180 -0.1927
 6016W        W21825  11.940   5.574  15.212  0.4733  0.0881  0.4356
 6017W        W21826  15.091  16.113   1.619 -0.2066 -0.1044  0.0131
 6018W        W21827   3.409   9.608  10.794  0.0236  0.0839 -0.2283
 6019W        W21828   6.356   1.571  11.044  0.0750  0.1330  0.4029
 6020W        W21829  12.294   9.009   3.100 -0.3137  0.0020 -0.4510
 6021W        W21830   4.815  15.256   2.831 -0.0674 -0.2271 -0.0344
 6022W        W21831  14.813   4.057  11.514 -0.6913  0.0344  0.1746
 6023W        W21832  12.554   3.188   2.835 -0.3660  0.0049  0.3364
 6024W        W21833  14.399  18.083   5.023  0.2411 -0.0569  0.1696
 6025W        W21834  17.563  12.049   4.834  0.0891  0.0853 -0.1188
 6026W        W21835  14.047  18.839  14.492 -0.0272 -0.0444 -0.3481
 6027W        W21836  18.804   7.989  11.595  0.1140 -0.1995 -0.0530
 6028W        W21837  10.354  15.414  11.536  0.1328 -0.3192  0.2104
 6029W        W21838   8.589   0.930   3.785  0.0517  0.2041  0.0168
 6030W        W21839  16.674  14.302  11.439  0.1971  0.1944  0.0513
 6031W        W21840  10.795   6.219   3.139  0.1549  0.0881 -0.1217
 6032W        W21841  10.137   6.602   1.694  0.0617 -0.1770  0.0589
 6033W        W21842  18.478  15.193  11.383  0.0204 -0.0121 -0.0276
 6034W        W21843  16.911   5.071   2.973 -0.2156  0.0341  0.1239
 6035W        W21844  13.624   7.962   4.818  0.4288  0.3387 -0.0073
 6036W        W21845  14.558   4.774   0.949  0.1229  0.0402 -0.1443
 6037W        W21846   5.648   9.908   5.620 -0.0943 -0.0026 -0.0074
 6038W        W21847   1.253   1.332  12.432  0.1856 -0.1474  0.0338
 6039W        W21848  16.420  15.178  11.750  0.0755 -0.2576  0.0839
 6040W        W21849   2.004  11.678   5.674  0.2129 -0.0733  0.0751
 6041W        W21850   1.981   0.505  12.704 -0.1109 -0.2685 -0.2787
 6042W        W21851  14.556   1.673   3.560  0.0726  0.1422  0.1276
 6043W        W21852   0.325   5.946   1.543  0.0972 -0.0971  0.1412
 6044W        W21853   9.884  11.496   4.699  0.2595  0.0438  0.5664
 6045W        W21854  11.207  16.141  11.911 -0.0904 -0.0259 -0.1855
 6046W        W21855   3.469  16.438   0.662 -0.3668 -0.2235 -0.0280
 6047W        W21856  13.328   4.949   1.760  0.0333 -0.0532 -0.4101
 6048W        W21857  18.521  17.490   0.235 -0.1664  0.3186 -0.0951
 6049W        W21858  12.411   1.340  11.160 -0.1770 -0.2510 -0.1890
 6050W        W21859  14.208  17.687  10.310  0.1968 -0.0776 -0.0849
 6051W        W21860   6.657   2.965   1.093 -0.4006  0.0452  0.0694
 6052W        W21861  14.846  13.066  11.003  0.0677 -0.2289 -0.2399
 6053W        W21862   7.567   3.144   1.019  0.1531  0.1139 -0.1278
 6054W        W21863   9.130  13.716  10.315  0.0619  0.1260 -0.2792
 6055W        W21864  17.337   8.910   3.601 -0.4482 -0.0369  0.2266
 6056W        W21865   7.308  18.004   0.713  0.0560 -0.2118  0.1762
 6057W        W21866   5.014   3.608   3.419  0.0669  0.2320  0.0350
 6058W        W21867   6.491   3.006   3.201  0.0251 -0.0549 -0.0488
 6059W        W21868  15.593  11.548  12.147 -0.1038 -0.2227 -0.0086
 6060W        W21869  18.187   9.904   2.851 -0.1248 -0.2088 -0.1325
 6061W        W21870  16.580   4.606   4.294 -0.0721  0.3396 -0.1881
 6062W        W21871   8.030  10.464  12.762  0.1004 -0.1462 -0.2080
 6063W        W21872  14.795  10.711   1.837 -0.0152  0.0277  0.0588
 6064W        W21873   1.179  10.764  13.900 -0.1642 -0.3586  0.0388
 6065W        W21874   4.821   3.660   4.436 -0.2205 -0.0145  0.1253
 6066W        W21875   6.035  13.043   2.495 -0.1753 -0.1467  0.1864
 6067W        W21876   6.615   3.405  11.967 -0.4618 -0.0013 -0.3455
 6068W        W21877  18.619  17.774  11.552  0.1860  0.0740 -0.1813
 6069W        W21878  17.463  18.950   1.501  0.0340 -0.0240  0.3824
 6070W        W21879   4.862  10.429  14.366 -0.4107 -0.0734 -0.0993
 6071W        W21880  14.082  13.941   2.502 -0.0436  0.0979  0.0413
 6072W        W21881   4.326  17.969  14.943 -0.5810 -0.0892 -0.1018
 6073W        W21882   0.095  12.891  13.540 -0.2262  0.0594  0.0079
 6074W        W21883  13.308  12.559   5.147 -0.1512 -0.1950 -0.0726
 6075W        W21884  10.242   4.214  10.836  0.0409  0.1936 -0.0407
 6076W        W21885  11.748   3.100  13.680  0.3341 -0.3086 -0.3334
 6077W        W21886   3.883  17.873   3.489 -0.0473  0.1433  0.1751
 6078W        W21887   4.171  17.081  12.763  0.0533 -0.0318 -0.2196
 6079W        W21888   7.195  12.245   2.352 -0.1592 -0.0573 -0.1812
 6080W        W21889  16.780   8.526  10.137 -0.3891 -0.1053 -0.1374
 6081W        W21890   8.293  11.983   0.169 -0.0378  0.2869  0.2583
 6082W        W21891  15.793  18.904  14.170 -0.3064 -0.1553 -0.1287
 6083W        W21892  18.314   6.786  13.915 -0.1604 -0.2905  0.4109
 6084W        W21893  19.130  10.316   2.660  0.0486 -0.4533  0.1561
 6085W        W21894   5.395  14.589   9.821  0.2957  0.2570 -0.0341
 6086W        W21895   8.285  15.556   0.282 -0.0366  0.0362 -0.0878
 6087W        W21896  12.002   0.466   0.587  0.2425 -0.0008 -0.2448
 6088W        W21897   7.036  17.815   1.291  0.2365  0.0513 -0.2070
 6089W        W21898   9.817  13.599   3.122  0.0885 -0.1804 -0.0367
 6090W        W21899   1.235  18.050  13.668  0.2617  0.5056  0.1126
 6091W        W21900  18.584   7.579   1.728 -0.1358 -0.0419 -0.1592
 6092W        W21901   6.632   6.601  14.150  0.0797 -0.0651  0.0810
 6093W        W21902  11.283   0.276   1.553  0.1469  0.0734 -0.4626
 6094W        W21903  17.029  10.427  11.704 -0.1986 -0.0190  0.0764
 6095W        W21904  18.849   2.604   1.157  0.0234 -0.1008 -0.1976
 6096W        W21905  18.884  12.363  10.759 -0.1608 -0.1139 -0.2624
 6097W        W21906   7.672  12.265   2.646  0.2246 -0.1389  0.2882
 6098W        W21907   1.144  17.100  10.203  0.1379 -0.0359  0.0833
 6099W        W21908   7.211  15.233  11.280 -0.0044 -0.4627 -0.0016
 6100W        W21909   4.986  11.745  13.235  0.2628  0.1017 -0.0699
 6101W        W21910   1.180  18.137   4.975  0.2442 -0.1405  0.0601
 6102W        W21911  15.004  12.503   2.480  0.1613 -0.1875  0.0835
 6103W        W21912   2.125   1.047  10.904  0.2134 -0.1421 -0.3345
 6104W        W21913  14.847  12.126   1.185  0.1186  0.0103  0.2159
 6105W        W21914  11.805  18.886  14.774 -0.0643 -0.2031  0.2519
 6106W        W21915   8.298  15.579   2.020 -0.0951  0.2395  0.0745
 6107W        W21916  16.122   4.563   2.771 -0.0138  0.0022 -0.2807
 6108W        W21917  15.731  14.656  11.274 -0.1650 -0.1083  0.0055
 6109W        W21918   8.929  13.397   5.151  0.4003  0.4298  0.3227
 6110W        W21919  15.875  15.679  12.668  0.0041  0.1140  0.1555
 6111W        W21920   2.347   2.527  14.547 -0.0561  0.1874  0.2353
 6112W        W21921   3.821   5.093  13.898 -0.0102 -0.2154  0.3795
 6113W        W21922  16.588   8.293  11.376  0.0650 -0.3907  0.4105
 6114W        W21923  11.555  15.020   0.537 -0.1203  0.0541  0.0782
 6115W        W21924  10.078   8.189  14.984  0.2517  0.0041 -0.2368
 6116W        W21925  14.073   2.066  12.158  0.0716  0.0265 -0.2054
 6117W        W21926  17.051  10.523  12.219 -0.0845 -0.0778  0.0291
 6118W        W21927   6.301   3.577  13.185  0.2210 -0.0348 -0.2966
 6119W        W21928  16.104   1.033   2.581 -0.2172  0.2712 -0.0801
 6120W        W21929   1.011   1.452  12.889  0.0147 -0.2819  0.0335
 6121W        W21930  15.562  12.303   3.800  0.1389 -0.0678  0.0291
 6122W        W21931  13.098   8.494  12.688  0.0961 -0.0134  0.0977
 6123W        W21932  16.404  16.964  13.739 -0.0870  0.0295  0.0060
 6124W        W21933  11.533  11.420  11.567 -0.1414 -0.1350 -0.1641
 6125W        W21934  11.433  15.909   4.533 -0.0390  0.0683  0.0404
 6126W        W21935   7.108   7.070  11.453  0.0360  0.3193  0.2564
 6127W        W21936   0.259  18.109  14.561  0.2264  0.0813 -0.0870
 6128W        W21937   6.671   0.992  14.164 -0.1398 -0.2108 -0.0637
 6129W        W21938   3.023   1.331  11.443 -0.2675  0.0043  0.0556
 6130W        W21939   3.494   1.728  14.178 -0.2916  0.1203 -0.0564
 6131W        W21940  10.552   6.769  11.250 -0.2863  0.0989  0.0728
 6132W        W21941  16.396   6.229   1.144 -0.0812 -0.0517 -0.0246
 6133W        W21942   9.297  16.093  14.385 -0.0561  0.2680  0.1080
 6134W        W21943  17.362  13.409  11.361 -0.0885 -0.2736  0.1121
 6135W        W21944  12.639  15.584   0.062 -0.2558  0.2685 -0.3256
 6136W        W21945   1.140   8.308  11.025  0.2482  0.0178 -0.1804
 6137W        W21946   9.406   0.591  10.905  0.1002 -0.0227 -0.0706
 6138W        W21947  18.640   9.783   0.485  0.1876 -0.3275 -0.1652
 6139W        W21948   7.587   7.526  12.370 -0.0747 -0.1494  0.4694
 6140W        W21949   8.497  14.010  11.958 -0.2850  0.2212  0.0777
 6141W        W21950   8.566  10.055  11.512 -0.1886 -0.0178  0.1996
 6142W        W21951  18.060   4.379   5.223  0.2033 -0.0820  0.0548
 6143W        W21952   2.176   8.571  14.364 -0.0452  0.1356  0.0548
 6144W        W21953   0.562   2.889  10.052 -0.0108 -0.0795 -0.0456
 6145W        W21954   2.352   9.676  13.913 -0.0387  0.0597 -0.3473
 6146W        W21955   5.763   8.733  11.337 -0.3291 -0.1777 -0.0764
 6147W        W21956  17.604  11.112   1.803 -0.1946  0.0427 -0.0511
 6148W        W21957  17.455   2.857   2.594 -0.2085 -0.0696  0.1057
 6149W        W21958   1.054   8.531  11.513  0.2505  0.2309 -0.0473
 6150W        W21959   5.687  14.663  11.654 -0.0277  0.4481 -0.2146
 6151W        W21960  18.276   2.112  13.828  0.2098  0.1653  0.0772
 6152W        W21961   3.572  16.599   1.223  0.3063  0.1524 -0.1406
 6153W        W21962   8.770   4.947   1.238 -0.0379 -0.2652 -0.1984
 6154W        W21963   4.948  10.423  13.038 -0.1293 -0.0643 -0.0067
 6155W        W21964  12.755  15.845  12.860  0.2219  0.1712  0.0389
 6156W        W21965  13.728  12.698   2.907  0.1094 -0.0185  0.2049
 6157W        W21966   5.047  14.038   0.781 -0.3731  0.1024  0.2865
 6158W        W21967   9.603   3.444   2.939  0.1106 -0.1237  0.1242
 6159W        W21968  18.449   2.514  11.789  0.1947 -0.0756  0.3283
 6160W        W21969   9.566  11.601   4.048 -0.1323  0.3004 -0.0829
 6161W        W21970  15.287  10.808   0.768  0.2305  0.0075 -0.2345
 6162W        W21971   4.195   0.023  13.566  0.2835 -0.0730 -0.0624
 6163W        W21972  14.176   4.670   1.348  0.1041  0.0071 -0.0723
 6164W        W21973   5.168   0.747  14.160  0.3654  0.2288  0.4314
 6165W        W21974  11.091   6.381   1.504 -0.0286 -0.3031 -0.3844
 6166W        W21975  17.542   1.222   4.399 -0.1003 -0.0607 -0.3278
 6167W        W21976  17.181   1.865   5.088 -0.0595 -0.1444 -0.0580
 6168W        W21977  13.664  13.644   4.524  0.0218 -0.1680 -0.0277
 6169W        W21978   2.906   4.593   5.096  0.2247 -0.2030  0.1704
 6170W        W21979   1.440   5.025  15.145  0.3039 -0.1677  0.2674
 6171W        W21980  10.399  18.072   0.518 -0.2663 -0.1365 -0.1070
 6172W        W21981   8.222  15.194  14.386  0.0069 -0.2599 -0.1196
 6173W        W21982  16.690   2.221  12.102  0.0260 -0.1248 -0.0623
 6174W        W21983  13.412  11.495  13.794  0.2141 -0.0390  0.3752
 6175W        W21984  12.706   4.100  12.289 -0.0417  0.2440 -0.1359
 6176W        W21985  11.532  12.776  13.804 -0.0047  0.3079  0.0580
 6177W        W21986  12.898  10.862  12.540 -0.0878 -0.2019 -0.0843
 6178W        W21987  10.774  14.637   3.745 -0.0808  0.4986 -0.0655
 6179W        W21988  16.946  10.621  14.286 -0.1398 -0.0219 -0.0801
 6180W        W21989  13.589   1.752   0.663  0.0259  0.0285 -0.0084
 6181W        W21990   8.297   3.055  14.948 -0.0016  0.3270  0.0207
 6182W        W21991  14.841  12.046   2.326 -0.2823 -0.0534 -0.0064
 6183W        W21992  18.634  13.692   1.348  0.1969 -0.2003  0.0315
 6184W        W21993  11.347   3.010  11.060  0.0924 -0.0859  0.1565
 6185W        W21994   3.729   4.601  13.775 -0.3193 -0.0517 -0.0972
 6186W        W21995   2.198   0.363   3.108  0.0531 -0.3363  0.1453
 6187W        W21996   0.961   4.601   4.067  0.1758  0.1550  0.2261
 6188W        W21997  17.902  15.799  14.836  0.0478 -0.0969  0.0139
 6189W        W21998  15.305   2.768   2.944  0.0053 -0.0098 -0.1157
 6190W        W21999   3.706  18.842  13.876 -0.2746 -0.4620  0.3123
 6191W        W22000  15.548  10.616   1.143 -0.0531  0.1037  0.1183
 6192W        W22001   3.999  18.347   4.373  0.2514 -0.0751  0.5222
 6193W        W22002   3.784  11.666   6.098  0.0279  0.2755  0.1054
 6194W        W22003   1.041  11.629   5.313  0.1523 -0.1827  0.3461
 6195W        W22004  16.070  13.039  11.861  0.2167  0.1141 -0.2580
 6196W        W22005   1.303  15.146   2.271  0.0288  0.2555 -0.0770
 6197W        W22006  10.104  13.942  12.401 -0.4231  0.0221  0.3238
 6198W        W22007  16.551   0.928   1.353  0.1703 -0.2444  0.2477
 6199W        W22008   0.836  14.013   5.486  0.3782 -0.4990 -0.5773
 6200W        W22009   2.661   8.229  12.681 -0.1797  0.1701  0.0150
 6201W        W22010  17.908   3.507  13.761  0.0998  0.0168  0.2750
 6202W        W22011  18.700   4.075   3.313  0.0221 -0.5179 -0.0272
 6203W        W22012  13.989  13.489   0.938 -0.1144 -0.0905 -0.0188
 6204W        W22013  16.634   2.761   0.758 -0.3369 -0.1958 -0.1427
 6205W        W22014   4.051   5.819  11.225 -0.2425  0.2011  0.1734
 6206W        W22015  15.825   3.345   0.121 -0.1675  0.2686 -0.0522
 6207W        W22016   3.480  13.327   2.319  0.0694 -0.2334  0.0826
 6208W        W22017   3.322   5.848   1.582 -0.0242 -0.3007 -0.0718
 6209W        W22018  17.242  10.659  13.811 -0.1224 -0.0470  0.3919
 6210W        W22019  18.070  18.713  14.634 -0.0093  0.1507 -0.0813
 6211W        W22020   6.467   9.245  13.637  0.0156  0.1653  0.2661
 6212W        W22021   2.890   1.022   2.615  0.3096  0.1278 -0.2851
 6213W        W22022  11.375  14.737  14.182  0.0538  0.4249 -0.0567
 6214W        W22023   7.517   4.463  12.442  0.4502  0.3592  0.0659
 6215W        W22024   4.714   5.567  13.964 -0.0591  0.2616  0.0096
 6216W        W22025  11.927  18.646   1.745 -0.0327  0.2627 -0.0631
 6217W        W22026   3.924  14.936   0.906  0.1813  0.0387  0.1177
 6218W        W22027   8.690   4.525   4.109 -0.4985 -0.2814 -0.2253
 6219W        W22028  18.198   0.719   3.486  0.2638 -0.2740 -0.0864
 6220W        W22029   8.628   2.368  10.594  0.4912  0.1902 -0.1896
 6221W        W22030  15.443  14.641   0.069  0.0561  0.0035  0.0101
 6222W        W22031  12.223   7.539   9.647  0.0073 -0.0936 -0.3324
 6223W        W22032   7.345   7.008   1.395  0.0655  0.1606 -0.1408
 6224W        W22033   5.770  15.449   2.540  0.2151  0.2473 -0.0305
 6225W        W22034  17.177  11.699   0.286 -0.0273  0.1427  0.0122
 6226W        W22035  12.973  11.700   4.820  0.2963  0.1377  0.1881
 6227W        W22036  13.193   1.626  12.180 -0.1071  0.2720 -0.7348
 6228W        W22037   2.951   3.177   3.965 -0.1057  0.0499  0.2299
 6229W        W22038  14.191  11.707   4.527  0.1909 -0.1154 -0.2668
 6230W        W22039  15.518  13.062   5.501 -0.0009  0.2241 -0.2194
 6231W        W22040  10.976  17.127  10.519 -0.2259  0.2903 -0.0141
 6232W        W22041  12.620  10.370  10.421 -0.3447  0.1841  0.1180
 6233W        W22042  15.459   5.788  12.995  0.0889  0.0576 -0.2878
 6234W        W22043   0.833   9.654   5.537 -0.0258 -0.0042 -0.2945
 6235W        W22044   9.896  13.956   1.240  0.0071  0.0928  0.0700
 6236W        W22045   2.893   4.955   3.235 -0.2002  0.2390  0.2198
 6237W        W22046  13.460  13.131  12.458 -0.1657  0.3090 -0.0165
 6238W        W22047   7.387   4.567  14.789 -0.0638 -0.3112 -0.3100
 6239W        W22048   2.325  11.300   4.017  0.0236  0.1578 -0.0498
 6240W        W22049  11.957  18.459  15.006  0.0796 -0.1395  0.3198
 6241W        W22050  13.198  11.863   1.483  0.1645  0.1137 -0.2623
 6242W        W22051  14.461   9.738   3.735 -0.1973 -0.0915 -0.0327
 6243W        W22052  12.876   1.255  15.152 -0.0696  0.0408  0.2221
 6244W        W22053  17.833  11.304  11.576 -0.0264 -0.0277  0.1278
 6245W        W22054  11.315  15.221  11.785 -0.1741  0.0820  0.0955
 6246W        W22055   1.876  10.847  14.136 -0.1429  0.1611  0.0385
 6247W        W22056   4.162   1.914   3.922 -0.0265  0.0110  0.0228
 6248W        W22057   8.579   4.900   2.345  0.0065  0.0758  0.3938
 6249W        W22058  11.096  17.070   2.482 -0.0873 -0.2125 -0.3569
 6250W        W22059   3.115   5.792   0.798  0.0797  0.1214  0.1368
 6251W        W22060  18.613   4.931  11.972  0.0278 -0.2053  0.3634
 6252W        W22061   6.059   8.465  10.994  0.0888  0.2461 -0.1427
 6253W        W22062  10.996   0.195   2.056  0.0824  0.0837  0.2490
 6254W        W22063   3.524   5.913  14.812 -0.1550  0.0313  0.2196
 6255W        W22064   4.304  15.800   2.264  0.1669  0.0507  0.0686
 6256W        W22065   3.181   6.746  10.942 -0.0969  0.1876 -0.1546
 6257W        W22066  12.074   0.589  13.250 -0.4922  0.2004 -0.1912
 6258W        W22067   6.805   8.250   1.147  0.2871 -0.1245  0.0089
 6259W        W22068  12.325   6.232  14.111  0.1744  0.1744  0.1547
 6260W        W22069   7.861  14.415  11.065 -0.0838 -0.0137 -0.3058
 6261W        W22070   7.297   2.095  13.398 -0.2897 -0.2317  0.1771
 6262W        W22071  18.874   3.385   9.456 -0.1746  0.4757  0.0432
 6263W        W22072  15.255  19.122  10.868 -0.0360  0.1103 -0.0534
 6264W        W22073   5.359   8.559  10.664  0.0960  0.1199 -0.2424
 6265W        W22074   9.480  13.133  12.250  0.3177  0.0139 -0.4336
 6266W        W22075   3.961   7.267   3.805 -0.1041  0.1361  0.4127
 6267W        W22076   9.720  14.469   1.468  0.0768 -0.2507 -0.0499
 6268W        W22077  16.153  13.370   5.411  0.2221  0.3795  0.3088
 6269W        W22078   7.236   7.496  13.714 -0.0386 -0.0224  0.1453
 6270W        W22079   6.990   0.057   1.685  0.0647  0.1589 -0.0259
 6271W        W22080   3.134   6.039  10.089 -0.1012 -0.0261 -0.0020
 6272W        W22081   0.185  18.046  10.326 -0.3301  0.0499 -0.2249
 6273W        W22082  12.613   2.315  12.009  0.0063  0.0242  0.0456
 6274W        W22083   6.583   0.231   1.847 -0.0724  0.0048  0.1520
 6275W        W22084   9.196  17.288   1.253 -0.1452  0.1503 -0.3679
 6276W        W22085   9.360   7.832   0.233  0.1631 -0.0765 -0.0824
 6277W        W22086  18.593  13.812   2.405 -0.3455  0.5051 -0.1014
 6278W        W22087   1.499  12.542   1.680 -0.1362 -0.0145 -0.1454
 6279W        W22088  16.043   9.043   0.853  0.1270  0.1172 -0.1765
 6280W        W22089  14.813  10.834   3.091  0.1900 -0.0254 -0.2220
 6281W        W22090   3.080   6.236   0.982 -0.1043 -0.1831 -0.3407
 6282W        W22091   2.370   5.118   0.242 -0.2218 -0.2112  0.4287
 6283W        W22092  18.397   8.124  14.857 -0.0234  0.0379  0.2075
 6284W        W22093   1.445   1.094   4.735  0.0470 -0.3047 -0.1359
 6285W        W22094   6.930   5.896  13.512 -0.5393 -0.2150 -0.1064
 6286W        W22095   4.618  13.457  13.062 -0.1877  0.2009 -0.0240
 6287W        W22096   0.410   8.079   1.814 -0.2063  0.1268 -0.2093
 6288W        W22097  10.397   0.697  10.541 -0.4504  0.3498  0.1379
 6289W        W22098  12.141  11.080   4.026  0.1531 -0.0373 -0.0293
 6290W        W22099  10.645   8.796   4.242 -0.2033 -0.0427 -0.4008
 6291W        W22100   1.758  13.846   1.308  0.0812  0.0853  0.2480
 6292W        W22101  10.770   4.458  13.735  0.2466  0.3311 -0.1635
 6293W        W22102   4.745   2.400  12.807  0.0853  0.4973 -0.2829
 6294W        W22103  15.396  15.940   4.833 -0.2058 -0.0664 -0.1143
 6295W        W22104   3.223  14.106  13.732  0.1420  0.5194  0.2802
 6296W        W22105   1.824  14.754  10.669  0.1673  0.1640 -0.1715
 6297W        W22106  18.410  13.570  13.171  0.0662 -0.0015 -0.2340
 6298W        W22107  11.768  17.645   2.099  0.1108 -0.1837 -0.0366
 6299W        W22108  18.311  15.856   4.863  0.1073  0.0539 -0.1613
 6300W        W22109  17.322   9.778   5.568 -0.1873 -0.2115 -0.1663
 6301W        W22110  17.704   3.302   1.616 -0.1017 -0.0706  0.3679
 6302W        W22111  12.931  14.214   2.533  0.0625  0.2016 -0.0925
 6303W        W22112   8.697   5.403  13.480 -0.1998 -0.2630 -0.0199
 6304W        W22113   5.899  17.545   0.309 -0.0522 -0.0833 -0.2322
 6305W        W22114  13.737  11.450   5.305  0.1488  0.2145 -0.2484
 6306W        W22115   5.691  18.213  14.265  0.0490  0.5016  0.0592
 6307W        W22116  13.021  15.935  12.356  0.0395  0.2970  0.1078
 6308W        W22117   5.190   9.567   2.568  0.0577  0.2769 -0.1227
 6309W        W22118   6.374  12.346  11.847  0.2062  0.2756  0.0032
 6310W        W22119  16.139  14.282   0.782  0.1022 -0.1124  0.2208
 6311W        W22120   9.100   1.398  13.445  0.1435  0.1132  0.2977
 6312W        W22121   0.033  11.203  12.902 -0.2198 -0.1063 -0.0371
 6313W        W22122   7.349   7.821  11.963  0.3441 -0.1493 -0.1861
 6314W        W22123   7.535  16.004   5.467 -0.0772  0.1016 -0.1454
 6315W        W22124  11.887  11.345  14.576  0.0349 -0.0997  0.1064
 6316W        W22125  10.896  14.122   0.461 -0.0251  0.1434 -0.2035
 6317W        W22126   4.664  16.275  11.530 -0.1045  0.0393 -0.1258
 6318W        W22127  10.785   6.451   9.898 -0.1632 -0.0199 -0.6523
 6319W        W22128  15.306  14.103   1.496  0.1720  0.0767  0.0261
 6320W        W22129   7.931   2.518  11.621 -0.1474 -0.1008  0.2703
 6321W        W22130  12.790   1.809  14.393 -0.1650  0.2101  0.0398
 6322W        W22131  16.328  11.289   0.543  0.0152  0.2190  0.1414
 6323W        W22132   7.628   1.800  14.791 -0.2051  0.0973 -0.1495
 6324W        W22133  13.079   6.566  14.742  0.0257 -0.2135  0.5256
 6325W        W22134  11.518  14.566   2.713 -0.0007  0.2574  0.1819
 6326W        W22135  16.070   4.832  13.747  0.0520  0.2735 -0.3030
 6327W        W22136   0.433   1.573   3.813  0.0096  0.3264  0.1287
 6328W        W22137   1.124  15.068   4.161 -0.0970 -0.0133 -0.0198
 6329W        W22138  16.775   2.257   4.261  0.0513  0.5600 -0.3151
 6330W        W22139   1.389  14.939  12.244  0.0999 -0.2573  0.0374
 6331W        W22140  16.709   7.105  14.819  0.2562  0.1486  0.0591
 6332W        W22141   1.689   0.096   3.108 -0.1930 -0.1737 -0.1664
 6333W        W22142   5.614   4.084  13.546 -0.1134  0.2287 -0.3133
 6334W        W22143   5.071  13.116   4.396  0.1668 -0.0108  0.0820
 6335W        W22144   2.485  13.406   3.096 -0.2685  0.3125  0.0742
 6336W        W22145   5.209  18.274   5.021 -0.0445 -0.0404 -0.1070
 6337W        W22146   9.499   7.316  14.067  0.0706 -0.0476 -0.0788
 6338W        W22147  12.208  13.709   4.887  0.1380 -0.0073  0.1768
 6339W        W22148   8.566  18.926  14.358  0.2481 -0.2403 -0.0405
 6340W        W22149   3.222  18.870   4.400  0.1869 -0.2177  0.1074
 6341W        W22150   6.091   6.360  10.879  0.1887 -0.1396 -0.1093
 6342W        W22151   7.835  15.161   3.947 -0.2800 -0.0311  0.0109
 6343W        W22152   7.597   8.124   4.690 -0.2014  0.2411  0.3327
 6344W        W22153   4.772  11.873   0.609 -0.2546 -0.1367 -0.2575
 6345W        W22154  16.736  16.753  12.742 -0.1657 -0.2697  0.0765
 6346W        W22155   6.831   5.011  13.936 -0.2370  0.0459 -0.1575
 6347W        W22156  17.108  14.271  13.637  0.1726  0.3274  0.3560
 6348W        W22157   7.146  16.955  11.248  0.0212 -0.3132  0.1041
 6349W        W22158   8.011  10.689   4.908 -0.0472  0.1034 -0.3010
 6350W        W22159  16.702   8.767  13.692 -0.3668  0.1432  0.0839
 6351W        W22160   4.786   0.151   3.239  0.0587 -0.1606 -0.0770
 6352W        W22161   4.782   4.974   0.857 -0.2464 -0.2922  0.3401
 6353W        W22162  18.494   9.449   0.862  0.3136  0.1696  0.0604
 6354W        W22163  10.921   6.448  14.729  0.1446  0.2311  0.0633
 6355W        W22164   4.495  11.325  11.988  0.1355 -0.0646 -0.1227
 6356W        W22165  14.747   0.772   2.179  0.2820  0.0840 -0.0647
 6357W        W22166  11.060  14.419   2.152 -0.0838  0.0646 -0.1455
 6358W        W22167  10.518  11.057   0.642 -0.0410  0.1101 -0.0236
 6359W        W22168  19.122  18.443   0.693 -0.0580  0.0980  0.1779
 6360W        W22169   0.811   4.258   4.376  0.3943  0.3252 -0.3776
 6361W        W22170  18.874  15.547  10.855 -0.3095 -0.2295  0.0287
 6362W        W22171   6.711  12.490  14.571 -0.0266  0.2631  0.2866
 6363W        W22172  18.318   7.204   4.800 -0.0371 -0.3161  0.0710
 6364W        W22173   1.632  13.516   4.889  0.1660  0.0989 -0.0277
 6365W        W22174   0.441   4.450  12.648  0.1466 -0.2066 -0.1018
 6366W        W22175  10.480   7.987   1.026  0.2396 -0.0197 -0.0939
 6367W        W22176   9.411   7.742   4.478  0.4910  0.2983 -0.0641
 6368W        W22177   8.199   4.979   1.986  0.1559 -0.1759 -0.0759
 6369W        W22178  12.848   2.880   3.642  0.3224 -0.0099  0.0815
 6370W        W22179  10.595   5.932   3.521  0.0525 -0.1310  0.1033
 6371W        W22180  15.717  11.801   4.377  0.0042 -0.1984  0.4716
 6372W        W22181  13.317   9.412   3.190  0.0441 -0.0086 -0.1084
 6373W        W22182   1.106   1.237   4.333  0.1066 -0.1381  0.0338
 6374W        W22183   5.905  10.448  11.101 -0.1418  0.2586 -0.1843
 6375W        W22184   8.666  17.896   3.588 -0.1485  0.1965 -0.0758
 6376W        W22185   0.166   3.800   4.622  0.3195 -0.0415 -0.1952
 6377W        W22186  11.068  11.974  14.104 -0.0522  0.1744  0.1453
 6378W        W22187  12.219   3.361  14.458 -0.0094  0.1601  0.0594
 6379W        W22188   9.452   7.702   0.715 -0.2277 -0.1117  0.1117
 6380W        W22189   9.805   4.279  13.342 -0.1172 -0.0649  0.1722
 6381W        W22190  10.644   4.721   4.763  0.0004 -0.0195  0.0367
 6382W        W22191  10.567  16.218   5.905  0.1334  0.2335  0.0835
 6383W        W22192  11.269  11.782   0.681 -0.0811 -0.0147 -0.1529
 6384W        W22193  14.328   6.243   4.820  0.2370  0.1776 -0.3739
 6385W        W22194   3.888  15.257   2.573 -0.2904 -0.2356 -0.0913
 6386W        W22195  13.082   4.516   4.533 -0.0481  0.0649 -0.0988
 6387W        W22196   0.102   5.385  11.740 -0.0795 -0.1630 -0.3547
 6388W        W22197   3.346  11.819  13.755  0.1408  0.1969  0.0129
 6389W        W22198  16.760   0.783  14.242 -0.3873 -0.1832  0.2330
 6390W        W22199   5.066  12.609  14.426  0.1003  0.1905  0.1843
 6391W        W22200  11.506  10.731   2.240  0.2772 -0.0375  0.2618
 6392W        W22201  10.070   6.202   0.613 -0.0498 -0.0776 -0.0408
 6393W        W22202  16.849   7.513   4.021  0.0803  0.1368  0.0780
 6394W        W22203   6.436  10.306   3.453 -0.0052  0.0695 -0.1565
 6395W        W22204   5.897   0.534  11.565  0.1845  0.0043  0.1668
 6396W        W22205   2.843   7.487   0.632  0.0963 -0.2452 -0.1147
 6397W        W22206  13.591  13.123   2.753  0.0783 -0.0192 -0.0465
 6398W        W22207  14.567   2.357   0.640 -0.3733  0.1761 -0.0571
 6399W        W22208  18.282  16.528   0.500 -0.1041  0.1548 -0.0271
 6400W        W22209  11.620   5.258   1.847 -0.0022  0.2093 -0.1302
 6401W        W22210  19.103  16.642  11.579 -0.3385 -0.4217  0.0869
 6402W        W22211   5.807  17.167  12.995 -0.0548 -0.3634 -0.2606
 6403W        W22212  10.746  12.414  11.479 -0.0224 -0.0205  0.4218
 6404W        W22213   0.764   1.286  12.441 -0.0387  0.0774  0.0057
 6405W        W22214   6.983   6.541  13.292 -0.0187  0.0488  0.0467
 6406W        W22215  17.838  18.930   0.543  0.1043  0.3936  0.3372
 6407W        W22216  15.620   0.811   4.260 -0.1946 -0.2158  0.2148
 6408W        W22217  10.061  16.870   1.502  0.2872  0.0397 -0.3430
 6409W        W22218  12.673  11.622  10.308  0.0843  0.0610  0.1018
 6410W        W22219   6.683   0.959  10.115  0.2367 -0.1406  0.2177
 6411W        W22220  16.409   4.557   1.375  0.0213 -0.4782  0.2918
 6412W        W22221   7.830  18.402   4.707  0.1502  0.0885  0.1841
 6413W        W22222   3.735   6.285   5.401 -0.0005  0.0335 -0.0002
 6414W        W22223   4.234  10.969   0.760  0.1938  0.0122  0.2220
 6415W        W22224  17.086  12.798  14.197 -0.0034  0.2657 -0.0558
 6416W        W22225  13.350   4.534  14.202 -0.0360  0.3173 -0.1820
 6417W        W22226   1.688  17.597  12.519  0.3287  0.0559  0.1874
 6418W        W22227   9.699  16.371   0.418 -0.0462 -0.2043 -0.0122
 6419W        W22228  18.783   6.350   3.108  0.1065 -0.2677  0.2394
 6420W        W22229  16.098   7.458   1.555 -0.0272 -0.1745  0.4014
 6421W        W22230  13.369  12.175  11.065 -0.0531  0.0302  0.1717
 6422W        W22231   0.944  18.077   0.549  0.2227  0.2544  0.0908
 6423W        W22232   7.434   3.374  10.290 -0.1271  0.0793 -0.0780
 6424W        W22233  12.830   8.701  12.043 -0.0733 -0.2017 -0.0905
 6425W        W22234   8.260   4.190  12.151 -0.0582  0.1171 -0.1702
 6426W        W22235  12.415  12.802   3.732  0.2018  0.3113 -0.1235
 6427W        W22236   6.086  14.917   1.248  0.0913 -0.3874 -0.3826
 6428W        W22237  13.125   5.744   4.474  0.3340  0.1743 -0.2433
 6429W        W22238   3.574  14.845   4.773 -0.1178  0.0625 -0.2979
 6430W        W22239  14.752  12.228  12.329 -0.0628  0.2556 -0.2618
 6431W        W22240  15.659   3.535  13.858 -0.2330  0.3095 -0.0587
 6432W        W22241  16.243   7.813  14.957  0.0711  0.1056  0.1141
 6433W        W22242   9.274   8.358   9.493  0.0848 -0.3074 -0.0082
 6434W        W22243   4.362  12.931   3.835  0.2132  0.0190 -0.4157
 6435W        W22244   4.088  17.488  11.247  0.1276  0.1089 -0.3631
 6436W        W22245  17.873  14.239  12.657  0.0030 -0.1241  0.1269
 6437W        W22246  15.576   0.993   2.620 -0.1304  0.2494 -0.0525
 6438W        W22247   0.701  15.756   4.927  0.0633 -0.0345  0.2330
 6439W        W22248   9.212  14.518  14.066 -0.0792 -0.1499 -0.3386
 6440W        W22249  12.971  11.788  11.218 -0.0244  0.1746  0.1216
 6441W        W22250  14.671  15.665   0.845  0.0920 -0.1638  0.0616
 6442W        W22251   1.426  19.127   0.807  0.1784  0.0722 -0.1176
 6443W        W22252  14.987   9.272  13.568 -0.3731 -0.2214  0.0697
 6444W        W22253  14.367   9.728   1.724  0.1389  0.0148 -0.3130
 6445W        W22254  10.130   6.903  13.408 -0.4120  0.0043 -0.0233
 6446W        W22255   0.642   9.572  11.473  0.1623  0.0582  0.0636
 6447W        W22256   8.644  15.072   2.707  0.1314  0.4629 -0.4544
 6448W        W22257   3.508   8.969   4.607 -0.0873  0.1688 -0.3290
 6449W        W22258  19.109  18.515   0.103 -0.0958 -0.0552 -0.1091
 6450W        W22259   4.369   1.729  11.476  0.2502  0.0825 -0.1670
 6451W        W22260   9.318  14.010  14.132 -0.2545 -0.0522 -0.1028
 6452W        W22261  13.695  15.418   4.292  0.1766 -0.2718 -0.0871
 6453W        W22262  11.405   4.746   3.519  0.1971 -0.0536  0.0568
 6454W        W22263   8.486   3.774   2.874 -0.0168  0.0016 -0.1512
 6455W        W22264   7.827   9.997  12.099 -0.3518  0.4275  0.3935
 6456W        W22265   3.127   2.235  13.025  0.1728 -0.2398 -0.3724
 6457W        W22266   3.281  18.396  14.875  0.0342 -0.1656  0.0010
 6458W        W22267   0.377   6.767  11.731 -0.3672  0.0081 -0.2238
 6459W        W22268   2.860  14.680  11.264  0.1148  0.2263  0.1426
 6460W        W22269  17.352  11.756  14.224  0.2996 -0.0476 -0.0513
 6461W        W22270  19.063  13.949   1.564  0.1539 -0.0436 -0.0155
 6462W        W22271   7.833  10.737  12.016  0.0150  0.0579 -0.2477
 6463W        W22272   8.775   4.186   0.695 -0.3492 -0.0976  0.0754
 6464W        W22273  11.227  14.398  14.907  0.1427 -0.2258  0.0318
 6465W        W22274   3.796   5.707   4.743  0.1893 -0.2068  0.1143
 6466W        W22275  11.146   0.306   5.137 -0.1939 -0.1411  0.1905
 6467W        W22276   4.915  18.052  11.506  0.0410  0.1416 -0.2476
 6468W        W22277  12.776  17.429  12.885 -0.1469 -0.1053 -0.1293
 6469W        W22278  14.308   6.697  10.784 -0.2127  0.1707  0.1410
 6470W        W22279  12.985  10.018  11.982 -0.1021 -0.2048  0.0624
 6471W        W22280   2.345   7.526   5.305  0.3108 -0.0245  0.1846
 6472W        W22281   2.288  12.569  11.393 -0.1050  0.1770 -0.3404
 6473W        W22282   1.020  14.432   5.310 -0.2804  0.2007 -0.0310
 6474W        W22283   8.317  11.065   4.975  0.2409 -0.0749  0.2738
 6475W        W22284   1.952   7.578  11.215 -0.1114 -0.0193  0.0498
 6476W        W22285  17.305  17.081  11.316  0.3185  0.1216 -0.0129
 6477W        W22286   9.507  14.181  11.966 -0.2785  0.2929  0.1116
 6478W        W22287  10.125   1.712   4.218  0.0398  0.0329 -0.2733
 6479W        W22288  11.750   5.873  12.202 -0.2471  0.0144 -0.0905
 6480W        W22289  14.003  13.791  11.470 -0.4845  0.0171 -0.3736
 6481W        W22290   1.603  12.561  11.925  0.0064 -0.0527 -0.0831
 6482W        W22291  12.022  17.510   5.816 -0.1987  0.3666  0.1044
 6483W        W22292  16.986   8.150  12.091 -0.0650 -0.3422 -0.0392
 6484W        W22293   1.163   6.132  11.895  0.0244  0.1292 -0.0692
 6485W        W22294  13.520  11.728  14.204 -0.1622 -0.1714 -0.0732
 6486W        W22295   8.983   1.006   4.759 -0.2629 -0.1128 -0.1959
 6487W        W22296   0.122  16.936  11.898 -0.3748 -0.2217 -0.1020
 6488W        W22297  18.717  10.952   3.476 -0.1399 -0.1427  0.2144
 6489W        W22298  10.554   8.296   3.406  0.0370 -0.0368  0.1002
 6490W        W22299   4.276   3.351   5.119  0.1144 -0.1977 -0.2951
 6491W        W22300  14.434   3.322  12.771  0.4149 -0.3427 -0.5018
 6492W        W22301   2.618   7.136   4.900 -0.6213 -0.0938  0.1145
 6493W        W22302  12.464   2.750   5.047 -0.2489  0.1363 -0.1503
 6494W        W22303   1.952  17.969  10.917 -0.0563 -0.0280 -0.1498
 6495W        W22304  11.328  19.008  10.693  0.1944  0.0184 -0.1108
 6496W        W22305  17.476   4.127   3.943  0.1515  0.1654 -0.0210
 6497W        W22306   1.296  17.905   0.100 -0.1313 -0.2146  0.1105
 6498W        W22307  14.323  17.863  13.022  0.0013  0.3797  0.1621
 6499W        W22308  13.936   8.454   0.123  0.0839 -0.1759  0.2308
 6500W        W22309   5.969  13.746  12.901 -0.0244  0.1577  0.1404
 6501W        W22310  14.475   3.457   2.075 -0.0194 -0.0651 -0.0561
 6502W        W22311   1.776  18.447  12.823 -0.0509 -0.5320 -0.0084
 6503W        W22312   0.810   5.361  12.561 -0.1372 -0.1226  0.0543
 6504W        W22313   8.399   1.098  13.912 -0.3040 -0.0348 -0.5422
 6505W        W22314   4.889  12.476   4.499 -0.1760 -0.1324  0.3452
 6506W        W22315   1.395  14.369  13.681  0.2870 -0.0712  0.1704
 6507W        W22316   6.765   0.642   1.493 -0.0039  0.3345 -0.1651
 6508W        W22317   3.018  10.066   0.544  0.1334  0.1932  0.2318
 6509W        W22318   1.330   7.111   0.958  0.1804 -0.1486  0.0397
 6510W        W22319   2.795   4.928  10.824  0.0114  0.3736  0.3592
 6511W        W22320  14.740   5.945  12.365  0.0301  0.5566 -0.1996
 6512W        W22321  12.724  10.401   3.680 -0.1718 -0.1729 -0.0824
 6513W        W22322   1.941   3.052   3.677  0.2900 -0.2760  0.0460
 6514W        W22323  13.088  10.391   4.446  0.2319  0.2993  0.0957
 6515W        W22324  13.951   6.494   1.524  0.1499  0.2588 -0.1253
 6516W        W22325   7.373  14.813  14.057  0.0705 -0.0400  0.0440
 6517W        W22326  18.269   4.199   0.671 -0.1619  0.1908  0.1923
 6518W        W22327   2.251  14.193   0.783 -0.0025 -0.1737 -0.2371
 6519W        W22328  18.557  13.286   2.392 -0.1404 -0.0585 -0.1542
 6520W        W22329   0.571   9.125  12.313  0.2157  0.0226  0.2975
 6521W        W22330   5.648   7.011   9.906  0.0387  0.0667  0.0395
 6522W        W22331   2.202   1.550  13.305  0.1437 -0.0011 -0.0149
 6523W        W22332  12.890   0.444  14.721  0.0463  0.1888  0.1571
 6524W        W22333   5.813   7.219   1.130 -0.0512 -0.3599  0.2186
 6525W        W22334  10.753   8.747   5.228 -0.2847  0.0592 -0.2867
 6526W        W22335  18.241   1.855   4.816  0.1402 -0.1908 -0.3052
 6527W        W22336   9.407  12.228  15.004  0.0787 -0.1846 -0.5121
 6528W        W22337  12.966  17.058   2.936 -0.0956  0.0737 -0.0443
 6529W        W22338  17.757  13.940   2.338  0.1038 -0.0278 -0.0678
 6530W        W22339  12.149  17.899   0.697 -0.1034  0.0091 -0.2735
 6531W        W22340   7.336  11.623  11.160  0.0524  0.4618  0.2455
 6532W        W22341  18.881  15.109  11.082 -0.0276 -0.2297 -0.1836
 6533W        W22342   2.554  18.885  10.492 -0.0561  0.0414 -0.3174
 6534W        W22343  17.371   7.768  12.895  0.0077 -0.3462 -0.0491
 6535W        W22344   2.207   4.359  13.597  0.1076 -0.1725 -0.3762
 6536W        W22345  14.761  15.945  14.694 -0.1463 -0.0964 -0.1130
 6537W        W22346  14.561   6.881  14.799  0.0316 -0.2172 -0.1276
 6538W        W22347   3.572  14.532   2.694  0.3736  0.0638  0.1236
 6539W        W22348   1.376   3.999  10.196  0.0505  0.2885  0.1947
 6540W        W22349  17.185  15.157   5.648  0.1218 -0.1358  0.2481
 6541W        W22350   0.706  16.177  14.702  0.0493  0.3609  0.0779
 6542W        W22351   8.582   5.139   4.025  0.1737 -0.1713  0.2085
 6543W        W22352  12.836  18.128  12.038  0.0323 -0.0344 -0.4333
 6544W        W22353   5.937  15.708  14.596 -0.1262 -0.4679  0.2806
 6545W        W22354  16.605   1.097   1.821  0.0789  0.1796  0.1151
 6546W        W22355  12.881   2.503   1.185  0.0658  0.1073 -0.0310
 6547W        W22356   6.730   7.897   3.158  0.1736  0.2211  0.2279
 6548W        W22357   6.149  18.482  13.398 -0.3678  0.0438  0.0163
 6549W        W22358  11.090   0.283   4.282 -0.1938  0.0044 -0.1731
 6550W        W22359   3.539  12.264  13.945  0.0738 -0.2128  0.3418
 6551W        W22360  16.719  12.344  11.725  0.2767  0.0314  0.3512
 6552W        W22361   2.713   0.507  14.265  0.0519 -0.1050  0.0591
 6553W        W22362   5.663  10.351  13.823 -0.0771  0.1529 -0.1027
 6554W        W22363   4.940  16.514   0.653  0.0852  0.0190  0.2797
 6555W        W22364  11.131   0.082  15.046 -0.3457 -0.4429  0.1565
 6556W        W22365  17.582  15.807  12.488  0.2563  0.0402 -0.0685
 6557W        W22366  11.384  10.318  12.311 -0.0081 -0.3282 -0.0667
 6558W        W22367  14.051   3.006  11.913  0.1576  0.1156  0.0632
 6559W        W22368   3.019   5.057   2.079  0.0295  0.0058 -0.1442
 6560W        W22369   0.622  18.384   1.463 -0.1959 -0.0770 -0.3153
 6561W        W22370  15.193   7.985   0.083 -0.0253 -0.2962 -0.0711
 6562W        W22371   9.271  18.457  13.707  0.0605  0.1383 -0.0815
 6563W        W22372  15.809   9.676   3.401 -0.3550 -0.1485 -0.1071
 6564W        W22373  15.280  16.317  11.920 -0.0310  0.0019 -0.1105
 6565W        W22374  15.773   3.303  11.401 -0.0559  0.2525 -0.1931
 6566W        W22375   8.163  14.190   0.082  0.1648  0.0402  0.2263
 6567W        W22376  13.009   5.850   2.551 -0.3585 -0.0774  0.3169
 6568W        W22377   1.019  16.163   4.778  0.1122  0.1566 -0.0788
 6569W        W22378   5.786   5.722  12.095  0.0771 -0.0358 -0.1264
 6570W        W22379  16.666   9.521   0.172  0.2298  0.0880  0.1790
 6571W        W22380  14.971  11.598   0.278  0.1205 -0.2037  0.2382
 6572W        W22381   8.088   1.395  10.247  0.0352 -0.5042  0.0449
 6573W        W22382  14.085  15.625  13.746  0.1521  0.1017  0.0136
 6574W        W22383   0.056   3.577  12.289  0.0568 -0.0443  0.1624
 6575W        W22384  17.353  17.405  12.725  0.3580 -0.1034  0.0747
 6576W        W22385   3.856   2.248  14.062  0.1960  0.1181 -0.3247
 6577W        W22386   3.673   4.772   0.516  0.1420  0.1249  0.2958
 6578W        W22387  14.592  10.432   5.275  0.0067  0.3125 -0.0317
 6579W        W22388   1.859   5.431   3.595  0.2918 -0.0148 -0.1022
 6580W        W22389  10.304   7.063  12.031 -0.1134  0.0671 -0.1766
 6581W        W22390   0.731   0.841  13.640  0.1565 -0.4017  0.0804
 6582W        W22391  14.740   7.597   3.996 -0.2534 -0.0469 -0.1564
 6583W        W22392   9.478   1.025   4.786 -0.1454  0.3154 -0.1960
 6584W        W22393   1.401   8.147  10.451  0.0495  0.3617  0.2709
 6585W        W22394   4.318  12.811  11.112  0.0845 -0.1324 -0.0053
 6586W        W22395   8.189   5.006  13.825  0.2575 -0.1577 -0.3334
 6587W        W22396  11.798   5.760  13.638 -0.0014 -0.1312 -0.1032
 6588W        W22397  19.054  15.960  14.729  0.0996  0.1417  0.1694
 6589W        W22398   7.400   6.698  13.800 -0.2028 -0.0963 -0.1131
 6590W        W22399   1.299   8.888  11.788 -0.0622 -0.0668  0.1403
 6591W        W22400   2.574   1.803  13.130 -0.0766 -0.0907  0.1687
 6592W        W22401  10.453  16.489   0.564  0.0918 -0.3051  0.0113
 6593W        W22402  10.530  13.215   1.418  0.0129 -0.0520 -0.0308
 6594W        W22403  18.209  13.366   4.345  0.1360  0.1768 -0.1102
 6595W        W22404  14.473   3.165  12.211  0.0549  0.0292  0.5071
 6596W        W22405  12.961   5.250   3.304 -0.1060 -0.4616 -0.2290
 6597W        W22406  11.150   5.350  12.170 -0.2784  0.1265  0.4639
 6598W        W22407  14.050  10.731   3.312  0.4742  0.0872  0.2199
 6599W        W22408   1.734   9.605  12.681 -0.0006 -0.2246 -0.1486
 6600W        W22409  11.597   5.632  11.144 -0.0356  0.0794 -0.3017
 6601W        W22410  17.410  14.524   1.508 -0.2874 -0.1326 -0.1662
 6602W        W22411  13.951  15.348   5.828 -0.0431  0.1386 -0.0635
 6603W        W22412   7.244   0.799   4.059 -0.3879  0.1896 -0.0419
 6604W        W22413   7.799   5.706  13.025  0.2073  0.0544  0.0785
 6605W        W22414   2.056   7.848   4.988  0.1904  0.0229  0.2034
 6606W        W22415  18.211   0.648   1.607  0.0719  0.0431  0.2757
 6607W        W22416  17.656   5.703  14.471 -0.2672 -0.1254  0.1481
 6608W        W22417  12.591   8.323  13.496  0.0764 -0.2928 -0.0546
 6609W        W22418   2.882   6.815  11.846 -0.3146 -0.0797 -0.0649
 6610W        W22419  12.161   8.175   2.614  0.1255  0.0215 -0.1371
 6611W        W22420   5.990  18.723  14.119  0.1022  0.1876 -0.1319
 6612W        W22421  11.564   7.544   0.898  0.0947 -0.0552  0.1442
 6613W        W22422  18.253  11.231   4.217 -0.0902  0.0092  0.4347
 6614W        W22423  16.749   2.546  14.198  0.2712 -0.0700  0.1897
 6615W        W22424   4.335  12.022  12.822  0.0925 -0.2286  0.1088
 6616W        W22425  12.697  10.161   1.683 -0.0793 -0.0148  0.0837
 6617W        W22426  13.873  13.404   3.029  0.3219  0.0336 -0.0860
 6618W        W22427  13.786   1.215   1.344 -0.1328 -0.2644  0.3611
 6619W        W22428  13.015  10.703  14.925  0.2044 -0.2991 -0.0179
 6620W        W22429  12.046   0.943  10.032 -0.0427 -0.1474  0.3011
 6621W        W22430   2.816  14.493   1.736  0.0451  0.0208  0.1066
 6622W        W22431   4.655  11.641   3.696 -0.2403 -0.0187  0.0467
 6623W        W22432   2.048   4.979   1.544 -0.4359 -0.0180 -0.1330
 6624W        W22433  10.312  15.769  13.846 -0.4145  0.4480 -0.1129
 6625W        W22434   3.340  12.760  13.571  0.1695 -0.2466 -0.0860
 6626W        W22435   7.721   0.819  15.100 -0.2106 -0.2131 -0.0270
 6627W        W22436   7.844  11.616   1.463  0.0627  0.1196  0.1018
 6628W        W22437  14.022  14.835  13.161  0.0524  0.0309 -0.2811
 6629W        W22438  12.459   1.627   4.532 -0.0001 -0.0578  0.3486
 6630W        W22439   7.056  17.457   1.790  0.1414 -0.1455 -0.0823
 6631W        W22440  18.521  10.201  11.095  0.0429 -0.3177 -0.2441
 6632W        W22441  14.238  10.068   2.126 -0.2030  0.2964  0.0703
 6633W        W22442  14.886  15.794  12.620  0.2518 -0.0641  0.1234
 6634W        W22443  16.437   6.878   5.041 -0.1218  0.1224 -0.3086
 6635W        W22444   1.136   9.286   4.443 -0.1117  0.0773  0.0265
 6636W        W22445  15.455   6.357   4.678  0.2576 -0.0591 -0.1869
 6637W        W22446   9.180   6.062   2.910  0.2396 -0.0007  0.1680
 6638W        W22447  15.267   7.108  11.102  0.2148 -0.0278 -0.2887
 6639W        W22448   2.195   0.002  11.752  0.0702  0.2323 -0.0450
 6640W        W22449   7.805  11.634  11.983  0.0317  0.0256  0.0652
 6641W        W22450  14.770   1.916   4.692 -0.0733 -0.2308  0.1451
 6642W        W22451   0.316  11.289   5.219  0.0456  0.1433  0.0146
 6643W        W22452   3.595  12.288  11.889  0.1403 -0.2078  0.0549
 6644W        W22453  11.895   4.484   2.893  0.0025 -0.2771 -0.1282
 6645W        W22454   1.429   6.577   9.966  0.1688 -0.3450 -0.3060
 6646W        W22455  15.936  12.099   4.704  0.0417 -0.6597  0.1260
 6647W        W22456  11.713  10.848   3.873  0.0157  0.1102 -0.3141
 6648W        W22457  18.881   9.897   4.549 -0.0134 -0.0101  0.1206
 6649W        W22458   6.758   1.862  10.212  0.2800  0.1174 -0.0439
 6650W        W22459  18.534  16.225   3.413  0.0005 -0.2353  0.2816
 6651W        W22460  15.083  12.027  11.740 -0.2796  0.0847  0.1714
 6652W        W22461   3.896   7.550   1.868  0.0887  0.0231 -0.0199
 6653W        W22462  14.085   1.946   3.285  0.0780  0.1820 -0.0337
 6654W        W22463   4.864  12.591  13.268 -0.2389 -0.0464 -0.0958
 6655W        W22464  12.316   4.523  12.196  0.1851  0.0320 -0.0812
 6656W        W22465   8.247  16.459   2.541  0.2099 -0.1726 -0.1530
 6657W        W22466  16.643  12.056   5.463  0.1244 -0.0090  0.0520
 6658W        W22467  12.729   2.933   9.771 -0.1438 -0.1696  0.0894
 6659W        W22468   8.059  12.891   0.479 -0.3880  0.5415  0.1632
 6660W        W22469   0.893  16.788  13.189  0.1888  0.0839  0.3606
 6661W        W22470   4.925   6.665  13.102  0.1699 -0.0828 -0.0304
 6662W        W22471   3.313  12.927   2.514  0.3346  0.2235  0.1002
 6663W        W22472  14.925  18.458   0.724  0.0283 -0.3120  0.0156
 6664W        W22473   9.831  18.491  11.346 -0.2037 -0.3638 -0.1378
 6665W        W22474  11.703  14.498  11.239 -0.0416  0.0032 -0.0594
 6666W        W22475   1.400   0.739   0.111  0.0443  0.4166 -0.2143
 6667W        W22476   3.070  19.090   0.632  0.1364 -0.5655  0.2346
 6668W        W22477  13.133  15.561   3.407 -0.0287  0.3550 -0.1550
 6669W        W22478  11.122  15.934  10.860 -0.1874  0.1027  0.0665
 6670W        W22479   9.710  10.088  12.669  0.1011  0.1272  0.2608
 6671W        W22480  12.061   8.819   3.987 -0.2746  0.0234 -0.2821
 6672W        W22481   1.362   3.988  12.615  0.1702 -0.1826  0.3618
 6673W        W22482  11.616  18.145   2.421  0.1384  0.0323 -0.0844
 6674W        W22483  18.720  11.796   0.395  0.0917 -0.1248  0.0973
 6675W        W22484  13.196   6.351  12.709 -0.1689 -0.0612 -0.0617
 6676W        W22485  10.504   3.254   0.322 -0.1735 -0.2814  0.2380
 6677W        W22486   5.914   5.874   0.626  0.0265 -0.4132  0.0746
 6678W        W22487   3.432  18.795  15.193 -0.0139 -0.2346  0.0635
 6679W        W22488   9.693  14.985  11.262  0.0840 -0.2260 -0.0103
 6680W        W22489   6.879   6.117   9.910 -0.3487  0.0565  0.0284
 6681W        W22490  17.415  11.572   4.634  0.1527 -0.0998  0.1900
 6682W        W22491  13.908   9.734  12.704  0.1307  0.1280 -0.0296
 6683W        W22492   2.534   1.545  14.598 -0.0839 -0.1157 -0.0481
 6684W        W22493   9.062  13.172  11.984 -0.4046 -0.3135  0.1336
 6685W        W22494   3.134   4.960   8.948  0.2471  0.0699  0.0674
 6686W        W22495   6.195  14.621  12.779 -0.0434 -0.3200 -0.4365
 6687W        W22496   6.044  12.805  10.923 -0.0363 -0.1462 -0.1405
 6688W        W22497  13.397  10.682   1.781 -0.4813 -0.0608 -0.2532
 6689W        W22498  16.710  14.028   3.699  0.0115 -0.2387  0.1823
 6690W        W22499  13.193   5.425   5.059  0.1854 -0.0279  0.3684
 6691W        W22500   8.235   9.715  12.438  0.1466 -0.1770 -0.0180
 6692W        W22501   7.521  15.583  10.029 -0.0546 -0.0886  0.1501
 6693W        W22502   2.068   1.207  14.708  0.0571 -0.2344 -0.1338
 6694W        W22503   9.997   2.924  14.762 -0.2863 -0.0235  0.0865
 6695W        W22504  12.196   3.327  13.969 -0.0587 -0.4284 -0.0319
 6696W        W22505   7.069  13.162  14.596  0.0779 -0.1509  0.0646
 6697W        W22506  10.197   2.091   3.110 -0.2452  0.0744 -0.1835
 6698W        W22507  18.507   6.105   4.387 -0.1058 -0.0822  0.1811
 6699W        W22508   9.567  16.470   1.908 -0.1104  0.2062  0.0160
 6700W        W22509  10.406  18.431   5.029 -0.3035  0.0703  0.4385
 6701W        W22510  16.275   0.516  14.703  0.4184 -0.0723 -0.2467
 6702W        W22511  14.827   2.575  15.077  0.1484 -0.0984  0.0132
 6703W        W22512   9.739   5.613  13.149 -0.1820  0.2485 -0.0192
 6704W        W22513  14.290  13.029  12.166 -0.2464 -0.2333  0.0760
 6705W        W22514   4.982   5.106   1.668 -0.1727 -0.1965 -0.0887
 6706W        W22515  14.724   5.983   1.592  0.1348 -0.1609 -0.1223
 6707W        W22516  10.416  15.177   4.477 -0.0627 -0.3306 -0.0771
 6708W        W22517  11.492   2.564  10.306 -0.0590 -0.1156  0.3357
 6709W        W22518  18.875  16.821  13.193 -0.0055  0.0892 -0.0380
 6710W        W22519  17.289   8.556  12.101 -0.0221  0.3048 -0.2477
 6711W        W22520  11.350   4.538   4.479  0.3541 -0.0957  0.1304
 6712W        W22521   3.339  18.525   5.365  0.2592  0.3811 -0.1845
 6713W        W22522   7.496  15.920  14.258 -0.2671  0.0829  0.0000
 6714W        W22523   2.918  14.740   4.585 -0.1639  0.2420  0.0107
 6715W        W22524   1.192   4.914  10.887 -0.0506  0.3876  0.0307
 6716W        W22525   7.109  17.012  13.409  0.0783 -0.0283  0.1697
 6717W        W22526  18.947   2.961  13.241 -0.0267  0.0096 -0.1094
 6718W        W22527   5.071   4.523   0.821  0.4763  0.0539  0.2505
 6719W        W22528   0.795  10.799  15.147  0.0179 -0.0465 -0.1099
 6720W        W22529  16.733  18.901   2.996 -0.1863 -0.3701 -0.3827
 6721W        W22530  18.859  16.234  11.211 -0.4712 -0.0067  0.1325
 6722W        W22531  19.031   9.850  14.757 -0.1698  0.0561 -0.0483
 6723W        W22532   6.336   5.872  13.663 -0.1521 -0.2209  0.1345
 6724W        W22533  17.492  15.497  12.089  0.0336 -0.0791 -0.2108
 6725W        W22534   3.630   6.613   1.847 -0.3603  0.1974 -0.0011
 6726W        W22535   2.564  17.204  15.059  0.2928 -0.2566 -0.0802
 6727W        W22536  17.832  16.717   0.487  0.0700  0.0802  0.4232
 6728W        W22537   6.814  10.757  12.259 -0.0873  0.0788  0.1251
 6729W        W22538   4.377   2.775  11.103  0.3286 -0.1694  0.0437
 6730W        W22539   8.305  12.620  13.171 -0.0378  0.1221 -0.0246
 6731W        W22540  11.513  11.031  10.753  0.3293  0.1542 -0.0796
 6732W        W22541  16.178  16.968  15.175 -0.1365 -0.2345 -0.0369
 6733W        W22542   2.787   8.176  10.506 -0.2133 -0.2167 -0.0127
 6734W        W22543  18.403   0.410  13.170 -0.0919  0.1444 -0.1734
 6735W        W22544  17.263  11.808   1.376 -0.0587 -0.3105  0.0363
 6736W        W22545  12.687   5.700   3.840  0.2779  0.3219 -0.0900
 6737W        W22546   2.715  10.869  13.283  0.0069 -0.1422  0.4262
 6738W        W22547  16.561  17.511  12.419 -0.0641 -0.2269  0.0489
 6739W        W22548  10.017  15.048   3.677 -0.3073 -0.0804 -0.1244
 6740W        W22549   9.740  10.607   0.462 -0.1873  0.2138  0.2059
 6741W        W22550   3.923   1.474   1.787 -0.2050  0.2442 -0.0570
 6742W        W22551   5.487   6.199   3.722  0.2214 -0.3185  0.1322
 6743W        W22552   2.616  13.369  11.054  0.1642  0.2032 -0.0040
 6744W        W22553  13.688   3.480   0.764  0.0930  0.2558  0.0115
 6745W        W22554   1.837  14.653   9.298  0.2915  0.2582  0.1502
 6746W        W22555  12.052   7.883  10.431  0.3571  0.3123 -0.1384
 6747W        W22556   4.841  11.202  13.176  0.2144  0.1389  0.0350
 6748W        W22557  19.069   0.587   0.792  0.1041  0.3459 -0.0310
 6749W        W22558  17.092  12.244  14.811 -0.0033  0.0277 -0.3311
 6750W        W22559   4.942  17.455   3.452  0.1059 -0.3200  0.1208
 6751W        W22560   7.043   1.529   1.056  0.0044 -0.0358  0.0418
 6752W        W22561   0.414   7.893   3.603 -0.1260 -0.1991 -0.1841
 6753W        W22562   9.609  13.225   2.894  0.2102  0.1704 -0.3381
 6754W        W22563   8.672  11.123   3.910  0.2553  0.3482 -0.0599
 6755W        W22564   9.008  18.506  10.845 -0.0564  0.0049 -0.2411
 6756W        W22565   2.865  14.725   0.724 -0.2012 -0.1998  0.2472
 6757W        W22566  18.690  14.221   4.791  0.0819 -0.0852 -0.3035
 6758W        W22567   0.231  17.729   9.910  0.0170 -0.3593 -0.0339
 6759W        W22568  11.952   7.469   4.974 -0.2467 -0.0273  0.2239
 6760W        W22569   9.076  14.743   0.995  0.2758  0.0617 -0.0778
 6761W        W22570   7.187   0.738   2.409 -0.0795 -0.0372 -0.0829
 6762W        W22571   1.973   8.933  12.561  0.2828  0.0702 -0.1800
 6763W        W22572   7.393  10.756  11.614 -0.0224 -0.1291 -0.0668
 6764W        W22573  10.025  16.208  13.507  0.0692 -0.0943 -0.1075
 6765W        W22574  13.892  13.687  11.932  0.2853 -0.2307  0.2014
 6766W        W22575  14.186   1.878  15.126  0.1354  0.3611 -0.0574
 6767W        W22576   3.639  17.313   0.627 -0.3651 -0.2865 -0.1800
 6768W        W22577  17.748  11.354  13.879  0.1754  0.0378  0.1752
 6769W        W22578  14.039   1.814  14.186  0.2140  0.0752  0.0019
 6770W        W22579  13.612  18.803   0.398  0.1987 -0.2144 -0.2093
 6771W        W22580   1.299  12.375  12.873 -0.2049  0.0670 -0.1256
 6772W        W22581  17.045   7.254  15.187 -0.0668 -0.0398  0.2092
 6773W        W22582  17.849  13.478  11.387 -0.0747 -0.0247 -0.0542
 6774W        W22583   4.536   5.568  11.156 -0.4448 -0.1418  0.1520
 6775W        W22584  11.658   7.262  10.805  0.1623  0.0212  0.0590
 6776W        W22585   5.434   9.762   0.628  0.0723 -0.0106  0.0969
 6777W        W22586   6.386   2.046  15.214  0.0545 -0.2738  0.0097
 6778W        W22587  11.286  12.366  11.523 -0.0775  0.1587  0.1329
 6779W        W22588  12.375  11.288  13.857  0.0155  0.0759  0.1088
 6780W        W22589   1.719   8.980   2.438 -0.2626  0.1326 -0.1443
 6781W        W22590  18.606   2.785  11.121  0.1487 -0.3212  0.0869
 6782W        W22591  16.533   1.095   0.554 -0.1085 -0.3519  0.3153
 6783W        W22592   2.094   6.303   3.047  0.1204 -0.0854  0.0547
 6784W        W22593  13.959  11.872   2.159 -0.1404 -0.0173  0.2659
 6785W        W22594   7.959  17.566  11.017 -0.1969  0.2103  0.0524
 6786W        W22595   5.177  16.648  14.388 -0.2334  0.0486 -0.0958
 6787W        W22596   9.376  17.009   4.071  0.4528 -0.3567 -0.0398
 6788W        W22597   1.270   1.018  11.540  0.0408 -0.2103  0.2785
 6789W        W22598  17.415   0.315   1.615  0.3062 -0.0739 -0.2121
 6790W        W22599  19.066  16.518   5.768  0.0424  0.0339  0.1316
 6791W        W22600   4.140   6.408  13.890  0.4324  0.2039  0.0925
 6792W        W22601   4.296  14.447  11.487  0.1635 -0.1090  0.2637
 6793W        W22602  19.001  15.413   0.912 -0.0540  0.3028  0.1983
 6794W        W22603  14.499   7.634   4.489  0.1086 -0.0308  0.4776
 6795W        W22604   9.608   6.844  14.717 -0.1113  0.1089 -0.2304
 6796W        W22605   6.545  16.282   2.138 -0.3081 -0.4169 -0.3515
 6797W        W22606   0.096   1.012  12.195  0.0479  0.2386 -0.0322
 6798W        W22607  12.850  17.925  11.192 -0.0306  0.0511 -0.0197
 6799W        W22608  16.464  17.949  15.249 -0.1198 -0.1864  0.0172
 6800W        W22609   8.980   9.022   2.586 -0.4734  0.4103 -0.0116
 6801W        W22610   5.817   7.014   5.856 -0.4170  0.1588  0.0626
 6802W        W22611  19.032   4.781   2.747 -0.1262 -0.0019  0.1451
 6803W        W22612   6.108   2.110   4.166  0.0422 -0.0946  0.1600
 6804W        W22613   8.790   3.474  11.710 -0.3617 -0.1749  0.0481
 6805W        W22614  13.642   1.806  15.058 -0.1481  0.1771 -0.0105
 6806W        W22615  14.114   9.280  11.055  0.0023 -0.0144  0.0817
 6807W        W22616  17.712   9.863   3.009 -0.2910 -0.3478  0.4057
 6808W        W22617   0.411   3.973  14.563  0.1129  0.0837 -0.0967
 6809W        W22618  11.194  14.631   0.444 -0.2110  0.0410 -0.2685
 6810W        W22619   3.039   8.547   2.052  0.2950 -0.1946 -0.1048
 6811W        W22620  11.449  15.670  12.660 -0.0277  0.2656 -0.0301
 6812W        W22621  17.910  10.208  12.271 -0.1034  0.3165 -0.5416
 6813W        W22622  11.675   4.635   1.102 -0.4118 -0.1115 -0.1255
 6814W        W22623  15.880   3.335   3.956  0.0494 -0.2284 -0.2564
 6815W        W22624  18.344  15.324  13.644 -0.0414  0.0230 -0.0230
 6816W        W22625   9.775   6.751   1.382  0.2436  0.1287 -0.1887
 6817W        W22626   3.612   4.632  11.428 -0.0001  0.1721  0.0217
 6818W        W22627   4.425  15.227   1.394 -0.0196  0.0408  0.1844
 6819W        W22628   6.635   2.118   4.258 -0.0494 -0.0673  0.0811
 6820W        W22629  15.999   7.648   3.372  0.1878 -0.0181  0.0970
 6821W        W22630   8.846   7.471   3.339  0.3888  0.2954 -0.1707
 6822W        W22631   9.577   5.536  14.913  0.3482 -0.1275  0.3347
 6823W        W22632   8.561  14.063  12.478 -0.0060 -0.1088 -0.0593
 6824W        W22633   2.725  14.912  11.700 -0.0141  0.2730 -0.0619
 6825W        W22634   9.884  10.010   3.171 -0.5062 -0.0788 -0.1493
 6826W        W22635  16.038   0.698   4.700  0.2036  0.2017  0.0183
 6827W        W22636   7.894   4.286   3.928 -0.1640 -0.2228 -0.1401
 6828W        W22637  12.159  16.439  14.259 -0.0827  0.1144  0.0782
 6829W        W22638   6.626  13.610  14.215 -0.1847  0.1416  0.5016
 6830W        W22639  10.047  13.382  12.421 -0.0252 -0.3794 -0.0710
 6831W        W22640   2.170   7.534  12.837 -0.0855  0.1151  0.1115
 6832W        W22641  16.765  13.077   2.349 -0.0815  0.1872 -0.0480
 6833W        W22642   2.359   5.681   0.837  0.1526 -0.3016 -0.1589
 6834W        W22643  13.680  13.364   0.583  0.0180  0.0559  0.2433
 6835W        W22644  11.081   2.971   1.540  0.0745  0.1433  0.0196
 6836W        W22645  17.481  18.187  12.289 -0.0172  0.1775 -0.1782
 6837W        W22646   3.050   3.669  14.196 -0.2647 -0.1269  0.1342
 6838W        W22647   7.904  11.268   3.587  0.3613  0.1485  0.2227
 6839W        W22648   7.908  12.448   4.697 -0.2170  0.1622  0.1589
 6840W        W22649  15.758  17.663   1.364  0.1217 -0.0684  0.3930
 6841W        W22650  17.480  12.387  14.230 -0.0411 -0.1972 -0.3281
 6842W        W22651   2.153   2.165   3.020  0.2123 -0.0080 -0.2798
 6843W        W22652  17.227   4.728   2.330  0.0096 -0.2039  0.1650
 6844W        W22653  14.921   0.286   5.506  0.0687 -0.1687  0.2941
 6845W        W22654   8.726  12.431   3.177  0.1644 -0.1129  0.0777
 6846W        W22655   1.057  15.982   0.585 -0.0300 -0.3744 -0.0185
 6847W        W22656   6.646   5.895   3.599  0.0500 -0.0042 -0.1242
 6848W        W22657  15.136  18.952   3.977 -0.1462  0.1234 -0.0892
 6849W        W22658  17.133  18.698  12.586 -0.1044 -0.0378 -0.2353
 6850W        W22659   7.346   6.699  11.807 -0.1802 -0.0007  0.0214
 6851W        W22660  13.712   6.942  12.288 -0.0859  0.3856 -0.4033
 6852W        W22661   8.472  17.030   4.678 -0.0380 -0.1444  0.1730
 6853W        W22662  11.772   0.195  13.055 -0.0632 -0.4397  0.1371
 6854W        W22663  14.504   4.247  11.974 -0.2568  0.2835 -0.0218
 6855W        W22664   0.739  18.126  10.912  0.0983 -0.2660 -0.1126
 6856W        W22665   0.085  16.197  12.960 -0.1703  0.1476 -0.2085
 6857W        W22666  14.386   8.128  14.059  0.1374  0.0681  0.0840
 6858W        W22667   2.270   3.585   1.878  0.2638 -0.0837  0.0443
 6859W        W22668   9.998  12.914  12.318 -0.0838  0.0300  0.1305
 6860W        W22669  17.980   3.757  12.013  0.1936  0.1702 -0.1533
 6861W        W22670  15.878  18.255   5.237  0.2694  0.1001 -0.4930
 6862W        W22671   8.824   3.555  10.264  0.1664 -0.1518  0.0445
 6863W        W22672  11.205   0.610   2.966 -0.0467  0.0131 -0.4973
 6864W        W22673  15.923  12.156  14.786 -0.4389  0.3330 -0.1964
 6865W        W22674   2.266   0.251  13.078 -0.1188 -0.2808 -0.0345
 6866W        W22675   4.493   6.173  14.258  0.3830  0.0730  0.3874
 6867W        W22676   1.841  14.473  11.210 -0.0398  0.0090  0.2317
 6868W        W22677   8.916   9.997   3.465  0.4806 -0.1855  0.2022
 6869W        W22678   5.007   9.457   4.802  0.0942 -0.0207  0.2080
 6870W        W22679   0.416   2.212   1.279 -0.2700  0.1146  0.3161
 6871W        W22680  17.168  16.308  12.802 -0.0207 -0.0574 -0.0407
 6872W        W22681  13.660  17.553  15.169  0.2078 -0.2968 -0.1109
 6873W        W22682   5.239   2.456   4.124  0.0289 -0.1001  0.0483
 6874W        W22683  11.940  14.021   0.469  0.3869  0.0102  0.0088
 6875W        W22684   5.260   8.606  11.189  0.0110 -0.1610  0.3503
 6876W        W22685  14.375   6.408  14.572 -0.0697  0.1071  0.0296
 6877W        W22686  12.289   2.180   0.564 -0.2035  0.1454  0.0700
 6878W        W22687  14.636   0.246  14.263 -0.2553 -0.1531  0.1693
 6879W        W22688   8.124  13.606   4.817  0.3067 -0.1898 -0.1503
 6880W        W22689  14.617   5.064  11.660  0.1041  0.1684 -0.2871
 6881W        W22690   9.513  15.196  15.252  0.0315 -0.0272  0.0693
 6882W        W22691  12.720   7.692   2.445 -0.0828 -0.1690 -0.1717
 6883W        W22692  10.656   8.778   1.662  0.1689  0.1722 -0.0005
 6884W        W22693   9.097  11.371   3.967 -0.0091 -0.2043 -0.3029
 6885W        W22694  13.883   5.453  11.861  0.3863  0.3840  0.3320
 6886W        W22695  16.551  10.176  11.858 -0.1494  0.0762 -0.2745
 6887W        W22696   6.681   8.943  11.703 -0.0497 -0.0024  0.3010
 6888W        W22697   1.549  17.821  14.891  0.2124  0.0042 -0.0614
 6889W        W22698  13.021  13.854   1.860  0.1154  0.1055 -0.1638
 6890W        W22699  18.439  14.736  12.483 -0.1166  0.0518 -0.0351
 6891W        W22700   5.392   5.335  11.503 -0.1001 -0.0194  0.0710
 6892W        W22701   8.724  12.780  13.778  0.0068 -0.1531  0.3973
 6893W        W22702   8.635  14.947  10.467 -0.0230  0.1445  0.0517
 6894W        W22703   3.896  16.760  10.564  0.3294 -0.2100 -0.0988
 6895W        W22704   9.966   5.950   4.550 -0.0640  0.3090  0.1966
 6896W        W22705   1.583   3.235  15.185  0.2333  0.0934  0.1837
 6897W        W22706   6.466  16.934   4.037  0.0956 -0.2216  0.1309
 6898W        W22707   9.180   2.272   4.446 -0.2953 -0.3154 -0.4496
 6899W        W22708  17.027   9.589  15.028  0.0472  0.0464  0.3259
 6900W        W22709  16.039   1.167   3.480  0.0878 -0.0758  0.2504
 6901W        W22710  18.792   3.787   3.750  0.1659  0.1507  0.0266
 6902W        W22711  13.235  17.811   0.939  0.0859  0.2099  0.0453
 6903W        W22712   9.849  16.422   1.275 -0.1571 -0.1372  0.2360
 6904W        W22713   5.815   7.164  12.085 -0.0143 -0.0644  0.1085
 6905W        W22714  10.440   0.355   0.848  0.1626 -0.1785  0.4741
 6906W        W22715   5.286  16.020   0.341  0.2524 -0.1106  0.0323
 6907W        W22716   3.158   5.946   3.231 -0.2575 -0.0791 -0.0549
 6908W        W22717   4.079  10.944  12.921 -0.1651 -0.1125  0.2212
 6909W        W22718   0.274   6.044  12.692  0.0471 -0.0744 -0.0472
 6910W        W22719  11.369   5.462   2.371  0.1226  0.0379 -0.0137
 6911W        W22720   1.526  10.302   1.329 -0.0482  0.3453 -0.0919
 6912W        W22721  11.269   3.836  14.396  0.0294 -0.1574  0.1276
 6913W        W22722  11.227  14.262  13.879  0.0219 -0.1177  0.1768
 6914W        W22723  18.047   2.356  10.892  0.2224  0.2329 -0.0319
 6915W        W22724   7.991   9.553  10.887  0.1340  0.2099  0.0164
 6916W        W22725   1.645  14.786  11.614 -0.4825  0.1624 -0.0181
 6917W        W22726   0.638   2.345   0.843  0.3327 -0.2752 -0.2207
 6918W        W22727   7.581   5.617   5.627  0.0248  0.0017 -0.4255
 6919W        W22728  16.082   3.327   4.923 -0.1163  0.0355  0.1273
 6920W        W22729   2.548   0.207   3.725  0.2707  0.0718 -0.1715
 6921W        W22730  17.999  10.316  13.024  0.0147  0.2485 -0.0536
 6922W        W22731   7.351  13.497   2.705 -0.0222 -0.0696 -0.0050
 6923W        W22732  18.963  19.113  13.961 -0.1659  0.2338  0.1222
 6924W        W22733  18.032   6.399  14.714 -0.1174  0.2755 -0.2023
 6925W        W22734   2.104   5.567   8.853 -0.0942 -0.0947 -0.3373
 6926W        W22735  16.860   4.034  13.160  0.0212 -0.1855  0.1020
 6927W        W22736   5.809   7.883  10.910 -0.0731 -0.0131 -0.0296
 6928W        W22737   4.678  13.930  12.077 -0.0763 -0.0251 -0.1894
 6929W        W22738  16.953  16.410   3.641 -0.4168 -0.0367 -0.0979
 6930W        W22739  19.136  19.008  13.247 -0.0004 -0.2135  0.3342
 6931W        W22740  14.796  12.432   3.277 -0.4780  0.0184  0.0224
 6932W        W22741  12.173  14.321  11.405 -0.2013 -0.0855  0.1775
 6933W        W22742   7.990   8.691  12.594  0.2019 -0.0063  0.2071
 6934W        W22743  16.003  10.614   4.039 -0.1595 -0.0673  0.3880
 6935W        W22744  17.384   0.506   2.180 -0.2847  0.2767 -0.0302
 6936W        W22745   4.852   6.677   0.070  0.3189 -0.1674  0.0343
 6937W        W22746   8.048  17.021   5.472 -0.2208 -0.1259 -0.0078
 6938W        W22747   4.847   1.175  14.079  0.0436  0.0452 -0.1971
 6939W        W22748   6.245  15.964  10.681  0.2248 -0.0317 -0.1364
 6940W        W22749  11.601  18.892  13.847  0.1989  0.1336  0.1924
 6941W        W22750   5.188   0.346   2.961 -0.2573 -0.0759  0.0105
 6942W        W22751  12.906  10.959   4.748 -0.1991 -0.2959  0.0273
 6943W        W22752  17.038   0.742  10.968 -0.3372  0.1286  0.2972
 6944W        W22753   5.394   6.760   2.385  0.2044 -0.1272  0.0426
 6945W        W22754  12.203   9.259   4.332 -0.2380 -0.1390 -0.0800
 6946W        W22755   8.491  13.813  13.930 -0.0013  0.4647  0.1125
 6947W        W22756   5.175   7.327  13.728  0.0620 -0.2156 -0.0572
 6948W        W22757  11.025  11.063   3.258 -0.3088  0.1147 -0.0110
 6949W        W22758  15.837   6.752   0.501 -0.1406 -0.1939  0.0907
 6950W        W22759   4.025   1.756  12.649 -0.1333 -0.0253 -0.0465
 6951W        W22760  14.129   7.198  15.024  0.1176  0.2086  0.0385
 6952W        W22761  14.068  16.029   1.483 -0.2743  0.1209 -0.2533
 6953W        W22762  15.495   1.559   3.983  0.2372 -0.1928 -0.3328
 6954W        W22763  14.243   0.088   2.893  0.0249 -0.0182  0.1111
 6955W        W22764  10.163  12.328  11.559  0.5638 -0.0742  0.0033
 6956W        W22765   9.720   4.396  11.863 -0.0694 -0.1984  0.3047
 6957W        W22766  17.151   2.661  13.218 -0.0871  0.1033 -0.2847
 6958W        W22767  11.298   7.947   9.807 -0.0151 -0.2810 -0.0177
 6959W        W22768  18.153  15.111   3.049 -0.1191  0.1854  0.0145
 6960W        W22769  13.955  10.837  13.282  0.0806 -0.1874  0.2622
 6961W        W22770   8.435   8.347  14.180  0.0851  0.2917 -0.1954
 6962W        W22771   4.142   3.166   4.623 -0.3429 -0.2155  0.1006
 6963W        W22772   1.087   5.711  10.413  0.0699  0.0652 -0.1943
 6964W        W22773   6.063  17.117   0.045  0.1047  0.1991 -0.0435
 6965W        W22774   3.943  18.657   3.112  0.2395 -0.0989 -0.2370
 6966W        W22775   7.658  14.532  10.342 -0.0291  0.1034 -0.2299
 6967W        W22776  12.579   3.538  14.141  0.0931 -0.0614  0.1868
 6968W        W22777   9.982  17.856   4.088  0.1677  0.2229 -0.1462
 6969W        W22778  15.455   1.962  11.057  0.1057  0.1497  0.3224
 6970W        W22779   0.649   2.805  13.124 -0.0373 -0.1542 -0.3307
 6971W        W22780   7.692  15.567   3.581 -0.0977  0.0312  0.2739
 6972W        W22781   9.115  18.124  14.104  0.2888  0.2441  0.1428
 6973W        W22782  13.701  17.331  12.835 -0.1932  0.0748  0.1772
 6974W        W22783   1.903   7.829   2.994  0.1386 -0.3403 -0.0261
 6975W        W22784  13.430   8.334  11.143  0.2388 -0.0098  0.2358
 6976W        W22785   1.419   4.991  11.694 -0.2546 -0.1873  0.1824
 6977W        W22786   7.037  10.268   5.229 -0.1534  0.1162  0.0189
 6978W        W22787   1.828  13.014  12.899  0.1060  0.2647  0.1247
 6979W        W22788   8.097  18.336   2.080 -0.2481  0.2337 -0.0222
 6980W        W22789   6.962  13.206  12.825 -0.0262  0.1487  0.2461
 6981W        W22790  10.656  13.408   4.609 -0.3189  0.3284  0.1527
 6982W        W22791   5.623  18.455   5.455  0.0065 -0.3331  0.1020
 6983W        W22792   7.778   3.457   3.573 -0.2137 -0.1518  0.2669
 6984W        W22793   5.803   2.693   2.107  0.2977 -0.0683 -0.0764
 6985W        W22794   2.229  11.327   2.283  0.0147  0.0616 -0.0590
 6986W        W22795  11.377  15.792   3.168 -0.4086  0.3254  0.1773
 6987W        W22796   5.520  17.033   1.578 -0.0434 -0.1215  0.1783
 6988W        W22797   6.684  17.355   2.565 -0.0413  0.0623  0.1515
 6989W        W22798  18.183  16.885   0.921 -0.0358 -0.1995 -0.3444
 6990W        W22799   6.980  14.818   2.128  0.2314 -0.0679 -0.4013
 6991W        W22800   8.818  12.802  10.580 -0.1417  0.0955  0.1220
 6992W        W22801  16.369   9.478   1.036 -0.1639  0.2881  0.3577
 6993W        W22802  12.052   6.417   3.224 -0.0360  0.2080  0.0968
 6994W        W22803   1.490   5.343  12.237  0.1028 -0.0526 -0.0636
 6995W        W22804   7.146   1.222  13.041  0.0178  0.0325 -0.0347
 6996W        W22805   6.453  12.855  11.917 -0.2152 -0.3956 -0.0519
 6997W        W22806  13.051   4.934  12.512  0.3404  0.2615  0.2726
 6998W        W22807  11.856   6.268   1.421  0.0779 -0.1904 -0.2561
 6999W        W22808   1.229   1.111  10.402 -0.0290  0.1427 -0.0993
 7000W        W22809   4.695  10.936   5.332 -0.2166 -0.0160 -0.0950
 7001W        W22810   8.198   9.807  11.733 -0.0167  0.1023 -0.2968
 7002W        W22811  19.106   0.901   3.370 -0.0867  0.0656 -0.2152
 7003W        W22812  16.604   9.674  11.996  0.3024  0.2969  0.0218
 7004W        W22813   5.305   1.556  13.439  0.3880  0.0345 -0.3098
 7005W        W22814  16.256   4.043  11.468  0.2465 -0.1256 -0.1690
 7006W        W22815   9.791   5.255   3.423 -0.2417  0.0270  0.1541
 7007W        W22816  15.291   0.577   0.063  0.1184  0.1182  0.1990
 7008W        W22817   6.972  13.390   5.635  0.1296  0.0476 -0.1225
 7009W        W22818   8.263  11.338  12.582 -0.2213  0.1464 -0.1243
 7010W        W22819  16.940   3.512  14.332 -0.0397  0.2422  0.0103
 7011W        W22820  19.050  17.551   2.788  0.0224 -0.0403  0.2548
 7012W        W22821  17.957  18.080   1.031  0.0880 -0.1122  0.1154
 7013W        W22822  12.897  18.032  15.154  0.1498  0.2174 -0.0405
 7014W        W22823   4.928   5.086  13.750  0.1411  0.0359 -0.0328
 7015W        W22824   8.571  16.579  11.595  0.0877  0.0100 -0.1090
 7016W        W22825   6.127   5.399  13.742  0.1885 -0.0412 -0.0621
 7017W        W22826   9.900  11.702   2.824  0.0735  0.0096  0.0482
 7018W        W22827  12.724  11.858  13.421 -0.1548 -0.0683  0.0375
 7019W        W22828   7.043   6.324   5.797 -0.1898 -0.2817 -0.0066
 7020W        W22829   0.468  17.076  14.598  0.0597 -0.2135 -0.0439
 7021W        W22830   4.620   9.676  12.499 -0.1232 -0.0861 -0.0578
 7022W        W22831   5.536  15.988   3.451  0.1813  0.0882  0.2797
 7023W        W22832  16.949  15.804   1.515  0.0070 -0.1097  0.1609
 7024W        W22833  10.058   4.319   3.963 -0.0422  0.1707  0.2740
 7025W        W22834  18.052   0.558  12.854  0.2082 -0.2780 -0.0046
 7026W        W22835  10.767  15.809  11.931 -0.0590 -0.1559  0.1182
 7027W        W22836   9.212   2.316  11.307 -0.3231 -0.2740  0.1387
 7028W        W22837   7.169   4.741   2.861  0.0761  0.2295  0.1423
 7029W        W22838  18.926  15.474  14.676  0.1276  0.3171 -0.1796
 7030W        W22839   5.573  10.423  10.408  0.2103  0.0489  0.2296
 7031W        W22840   0.590   9.914   1.876  0.0341  0.1661 -0.0083
 7032W        W22841   5.952  15.854   0.903  0.1961 -0.0285 -0.2367
 7033W        W22842  15.388  16.067   0.640  0.1209  0.0916 -0.0026
 7034W        W22843   3.379   9.943   1.121 -0.0470 -0.0085  0.2501
 7035W        W22844  10.777   8.603  14.692 -0.1796  0.0730 -0.0356
 7036W        W22845   3.384  10.608  10.009  0.4417 -0.6139  0.2102
 7037W        W22846  15.107   6.776   4.591 -0.2356 -0.1049 -0.0890
 7038W        W22847  10.993   6.377   1.990 -0.0011  0.1900 -0.2119
 7039W        W22848   6.043   7.615   0.279 -0.1052 -0.2786  0.1555
 7040W        W22849  11.287   2.734   1.096 -0.1778  0.1982  0.1416
 7041W        W22850   4.327  13.879  13.286  0.1298 -0.0367  0.2159
 7042W        W22851  14.144  18.303  11.001 -0.0912  0.0910  0.0656
 7043W        W22852   3.385   8.340  10.602  0.0945  0.4810  0.1083
 7044W        W22853   2.676   2.989  12.134  0.0994 -0.1907 -0.2129
 7045W        W22854   2.363   7.487   3.676 -0.0710 -0.0323 -0.1056
 7046W        W22855  12.935   5.352  12.680  0.4207 -0.1807  0.0259
 7047W        W22856   6.239   1.999   3.349  0.0433  0.0838  0.2362
 7048W        W22857   4.332  11.034  14.877 -0.2973 -0.2722  0.1242
 7049W        W22858  14.158  16.762   2.065 -0.4240  0.3970  0.1015
 7050W        W22859  18.150  18.723  14.043  0.2062 -0.1529  0.0011
 7051W        W22860   9.051   1.054   1.650 -0.0709 -0.0688  0.0533
 7052W        W22861  14.375  17.781  11.362 -0.1104  0.2626  0.1027
 7053W        W22862   7.474  18.704  15.156 -0.3481  0.2333  0.1755
 7054W        W22863  18.282   5.936   9.365 -0.2287  0.1656 -0.2408
 7055W        W22864  16.348  16.972   0.414  0.1690  0.0210  0.1484
 7056W        W22865  15.550   8.516   4.244 -0.1687  0.3617 -0.1218
 7057W        W22866   5.099  15.081   4.309  0.0031  0.1390 -0.0351
 7058W        W22867   4.250   4.980   2.876 -0.0649  0.0741  0.2838
 7059W        W22868  13.699  15.938   4.228 -0.2577 -0.0067 -0.3245
 7060W        W22869   8.961  12.746   5.261 -0.2025  0.2129 -0.0912
 7061W        W22870  16.960   7.973   9.468 -0.2828 -0.3237  0.0306
 7062W        W22871  11.974  12.061  14.156 -0.2999  0.1309  0.1593
 7063W        W22872  11.199  10.141   1.453 -0.2742 -0.2126 -0.1617
 7064W        W22873   4.338   0.419   3.918 -0.2543  0.1187 -0.0524
 7065W        W22874   9.726  12.372  10.011  0.4098 -0.2406  0.1306
 7066W        W22875   4.666  16.812   4.087 -0.1397 -0.0111  0.0599
 7067W        W22876   0.571  11.795   4.501  0.4235 -0.0835 -0.1152
 7068W        W22877  13.430  17.234  14.698 -0.3064  0.1072 -0.3208
 7069W        W22878   6.092   0.271  13.121 -0.1261 -0.0994  0.0310
 7070W        W22879  11.706  13.893  13.946 -0.0491 -0.0753  0.1798
 7071W        W22880   4.446   7.879   0.019 -0.1018  0.0429  0.1567
 7072W        W22881  11.226   6.956   3.341 -0.1078 -0.0356  0.2585
 7073W        W22882   6.640   5.358   4.226 -0.3333 -0.3541  0.2527
 7074W        W22883  10.942   6.932  13.780  0.0748  0.2649  0.1767
 7075W        W22884   0.177  12.655  14.805  0.0267  0.1766 -0.1522
 7076W        W22885   0.419  14.648   2.370 -0.2873  0.1162  0.0841
 7077W        W22886  18.849  12.150   4.465 -0.3353  0.0337 -0.0109
 7078W        W22887   5.468  18.630   1.571 -0.1587  0.0004 -0.0691
 7079W        W22888   6.090   5.092   4.232  0.0856 -0.3762  0.0894
 7080W        W22889  15.068   6.088   1.139 -0.1005 -0.0892 -0.0808
 7081W        W22890  14.856   3.658   2.406  0.1135  0.0696  0.0381
 7082W        W22891   3.248  13.089  14.040  0.4218  0.3632 -0.4306
 7083W        W22892  14.366   5.351   4.628  0.0997  0.0047 -0.1114
 7084W        W22893  13.151  18.268   1.143 -0.0478  0.2605  0.0181
 7085W        W22894  16.257   9.019  14.341 -0.1633  0.2551 -0.4152
 7086W        W22895  12.023  11.846  14.647  0.2486  0.1064  0.2115
 7087W        W22896  17.170  13.394   5.284 -0.0514 -0.3242 -0.1708
 7088W        W22897   1.974   5.226  13.329 -0.0475  0.1373 -0.1422
 7089W        W22898  11.227  15.306   3.911 -0.0052  0.0075 -0.0316
 7090W        W22899  14.756  11.262   2.759  0.0916 -0.0561  0.2028
 7091W        W22900  15.787  15.435  13.167  0.3491 -0.0702 -0.2092
 7092W        W22901  14.651  15.194   0.479 -0.0369 -0.0833 -0.1388
 7093W        W22902  13.611   8.309  12.489 -0.0813 -0.1816  0.1854
 7094W        W22903   2.259   3.453   9.858  0.0549  0.3193 -0.0582
 7095W        W22904   9.572   7.327   1.025 -0.2241 -0.0500 -0.1430
 7096W        W22905  11.793   8.341   5.961 -0.1135  0.0980 -0.1669
 7097W        W22906   4.844   0.411  11.372 -0.3828  0.1606 -0.0715
 7098W        W22907  16.643   9.479  13.593 -0.1789 -0.5891 -0.0152
 7099W        W22908  12.351  11.525  11.774  0.0350 -0.0553  0.1485
 7100W        W22909  12.729  18.008   9.841 -0.2584  0.1245 -0.3584
 7101W        W22910   0.174   4.026   1.313  0.1997  0.0281 -0.0103
 7102W        W22911   1.969   0.118   2.161 -0.0011 -0.1542  0.2300
 7103W        W22912   3.969   8.360   2.970 -0.4416 -0.2960 -0.2128
 7104W        W22913  11.690   6.741   2.291  0.0912 -0.1292  0.0687
 7105W        W22914   5.568   5.123   0.282  0.0020 -0.2100 -0.0254
 7106W        W22915   3.338   2.116  14.022 -0.2807 -0.1593  0.1179
 7107W        W22916   1.369  10.983   0.676 -0.2691 -0.3158 -0.0219
 7108W        W22917  17.697  16.153  11.326  0.0204 -0.2205  0.3372
 7109W        W22918  14.230   7.312   3.119  0.2089  0.1426  0.2923
 7110W        W22919   5.452  16.866  10.255 -0.0758  0.1944 -0.0663
 7111W        W22920  14.740   8.775   4.074 -0.0034 -0.2522 -0.4330
 7112W        W22921  10.268  12.674  11.191  0.1936 -0.0765 -0.0349
 7113W        W22922  14.690   7.743  13.505 -0.2726  0.1520  0.0863
 7114W        W22923  12.128  11.046  14.211 -0.2963  0.0449  0.1028
 7115W        W22924   4.242   5.537  13.539  0.3856  0.3521  0.0191
 7116W        W22925  13.753   7.337   3.075  0.3071  0.2986  0.0223
 7117W        W22926  18.057  13.337  12.234 -0.2874  0.1519  0.1328
 7118W        W22927  14.282   4.613   9.764  0.1097  0.1297  0.1091
 7119W        W22928   1.818  13.870   5.361 -0.1317  0.1992  0.1275
 7120W        W22929   9.523  18.053  13.847  0.2430 -0.1305  0.3540
 7121W        W22930   5.105  18.195   3.144 -0.3136  0.0216  0.2633
 7122W        W22931   0.400   0.202   0.349  0.0189  0.0605 -0.1178
 7123W        W22932   9.404  13.355  11.629 -0.0097 -0.0215  0.0517
 7124W        W22933   2.721   7.416   3.340  0.1622 -0.5548  0.0350
 7125W        W22934   3.659   5.286   0.300 -0.2887  0.2531  0.0181
 7126W        W22935  16.769   1.063   3.309  0.2433  0.0072  0.1334
 7127W        W22936  17.717  13.602  11.972 -0.2263 -0.1506 -0.0658
 7128W        W22937  14.189  11.745  12.157 -0.1451  0.1283 -0.0814
 7129W        W22938   1.199  18.235  14.459  0.0841  0.0228  0.2138
 7130W        W22939  14.272  14.257  10.791  0.3314  0.1657 -0.0219
 7131W        W22940   1.075  14.443  13.231 -0.1228 -0.5960  0.0322
 7132W        W22941   2.246  10.375   4.059  0.1870 -0.0835  0.2433
 7133W        W22942   3.336  18.100  12.782 -0.2112  0.0290 -0.0210
 7134W        W22943   2.585  14.112  11.084  0.3423 -0.0413  0.1553
 7135W        W22944   7.442   8.352  11.746  0.2541 -0.2900 -0.1247
 7136W        W22945   5.960  14.271  11.509 -0.0813 -0.0924 -0.1360
 7137W        W22946  17.670  18.997   0.068 -0.1580 -0.0248 -0.1996
 7138W        W22947   6.694  13.951   5.589 -0.4465 -0.0793  0.3632
 7139W        W22948   3.516   4.947  12.182  0.1107 -0.1783 -0.0654
 7140W        W22949   5.550  15.714   0.660  0.1100  0.1765  0.1449
 7141W        W22950  11.732  11.056  15.191  0.0755 -0.3369  0.0332
 7142W        W22951   9.317   9.001  13.783 -0.2620  0.1634  0.0905
 7143W        W22952   5.482   8.510   2.644  0.2490  0.1086  0.2807
 7144W        W22953   1.753   8.412  10.742  0.0682  0.1283 -0.1468
 7145W        W22954  11.222  12.677   4.541 -0.2278  0.0694 -0.1328
 7146W        W22955   3.960   8.943   0.727 -0.3102  0.1028  0.3547
 7147W        W22956  10.034   5.542   4.825 -0.1822 -0.1711 -0.0718
 7148W        W22957  12.919  14.122   0.304 -0.2672  0.0611 -0.0022
 7149W        W22958   1.702   2.820   2.253  0.2700  0.0608 -0.0737
 7150W        W22959  14.175  18.961   5.491  0.0842  0.2021 -0.0895
 7151W        W22960   9.275  10.584   0.077  0.2770  0.0371  0.1919
 7152W        W22961  18.512  15.476  14.108  0.0293 -0.1195 -0.1399
 7153W        W22962  13.538  18.086  14.421 -0.3413  0.2084  0.0364
 7154W        W22963  11.633  14.427   4.653  0.2617  0.3087 -0.3223
 7155W        W22964   3.714   5.429   4.049 -0.0452 -0.3491  0.0795
 7156W        W22965   1.545   3.763  14.636  0.1329 -0.1148  0.0327
 7157W        W22966   1.950  14.768   1.413 -0.2250  0.4469 -0.1165
 7158W        W22967   8.358   3.264   4.558 -0.1642  0.1542  0.0666
 7159W        W22968   5.639  12.880  11.702 -0.2573 -0.0980  0.0518
 7160W        W22969   8.305  17.730  15.138  0.0473 -0.0360 -0.0672
 7161W        W22970   7.976   8.105   5.078 -0.0918  0.0837  0.0225
 7162W        W22971   8.430   8.201   1.710  0.0119 -0.1252 -0.1296
 7163W        W22972   0.099  17.132   1.483  0.0731 -0.1400 -0.0299
 7164W        W22973  12.209  10.860   2.459  0.0536 -0.1168  0.1126
 7165W        W22974  16.801   0.685  14.772  0.1614 -0.1186 -0.1114
 7166W        W22975   7.354  13.052   5.334  0.0550  0.2224 -0.5022
 7167W        W22976  11.560  15.505   4.228 -0.1186 -0.0977  0.0918
 7168W        W22977  11.565   1.526   2.656  0.2263 -0.1646  0.0462
 7169W        W22978  12.861  18.867   3.551  0.1254  0.1706  0.1373
 7170W        W22979  16.207  12.778   2.469  0.0833  0.0783  0.0099
 7171W        W22980  10.416   6.804  12.861  0.4183  0.1141 -0.1693
 7172W        W22981  15.037   1.168  11.686  0.1412 -0.0260  0.0385
 7173W        W22982  10.071  12.471  12.073 -0.0748  0.1569  0.2794
 7174W        W22983  10.554  10.596  14.948 -0.2165  0.1507 -0.1221
 7175W        W22984   8.610  13.676   2.097 -0.2253  0.2124  0.5169
 7176W        W22985  12.600   8.301   5.482  0.3163 -0.0942 -0.1482
 7177W        W22986   0.161  11.982   1.475  0.0459 -0.3763  0.2372
 7178W        W22987   1.064  10.277  12.514  0.2918 -0.1042 -0.0646
 7179W        W22988   4.256  10.240   3.985 -0.1489  0.0958 -0.1331
 7180W        W22989   4.043  15.539   2.951 -0.0233  0.1285 -0.1953
 7181W        W22990  11.420  12.470  12.813  0.0069 -0.1122 -0.1324
 7182W        W22991   3.285   9.414  14.354 -0.0967  0.1357 -0.0613
 7183W        W22992   2.417  12.198   1.695  0.1042 -0.0906 -0.3561
 7184W        W22993   0.650  16.128   1.722 -0.0124  0.0887 -0.0542
 7185W        W22994  16.730   1.727   4.228 -0.0187 -0.1584 -0.3937
 7186W        W22995   7.842  15.252  12.788  0.0843 -0.3231 -0.3158
 7187W        W22996   6.329  16.570   4.464 -0.1898 -0.0997 -0.0441
 7188W        W22997   9.055  16.272  11.832  0.3231 -0.1295 -0.0274
 7189W        W22998   8.845  16.271  14.328  0.1802  0.3318 -0.1564
 7190W        W22999  14.417   6.186   4.243  0.0306  0.2301  0.2416
 7191W        W23000  11.684  15.284  12.508  0.0981  0.0727  0.1144
 7192W        W23001   1.704  15.752   2.692 -0.0373 -0.0515 -0.0791
 7193W        W23002   5.767   2.159   3.439  0.3466 -0.0450  0.0695
 7194W        W23003   7.494   7.422   1.079 -0.2985  0.0406 -0.0253
 7195W        W23004  12.928   7.016  10.443 -0.3473  0.0558  0.0675
 7196W        W23005   2.738  17.359  10.588  0.2082  0.2729 -0.0395
 7197W        W23006   5.553  14.894   0.555 -0.0096 -0.0157 -0.3004
 7198W        W23007   9.964  11.904   4.421  0.1129  0.1469  0.0997
 7199W        W23008   1.322  12.174   5.016 -0.0298  0.1265  0.0695
 7200W        W23009  14.707  10.264  13.561  0.3032  0.2445  0.3888
 7201W        W23010   9.165  13.650  12.317 -0.1072 -0.1805  0.0762
 7202W        W23011  16.192  15.196  13.268  0.0940  0.1872 -0.0534
 7203W        W23012  12.832   4.860   2.546  0.1060  0.1409 -0.0326
 7204W        W23013   8.449  12.805  12.605  0.4621 -0.0217  0.1645
 7205W        W23014   0.855   7.813   1.928 -0.2248 -0.0593  0.0705
 7206W        W23015  11.150   4.650  13.902  0.0749 -0.1298  0.0732
 7207W        W23016   6.711   4.965  10.349  0.0676  0.3523 -0.2322
 7208W        W23017   6.142  10.954   2.423  0.3026  0.0776  0.2547
 7209W        W23018  14.166  13.931  13.140 -0.0516  0.3459  0.2979
 7210W        W23019   6.995   8.633  10.829  0.1395  0.2809 -0.1749
 7211W        W23020   5.629  11.711   2.048 -0.0193  0.1844  0.0106
 7212W        W23021   1.358   9.600  11.374 -0.1623 -0.1950  0.0729
 7213W        W23022   7.431   9.971   0.429  0.0251 -0.1199 -0.3406
 7214W        W23023  15.943   6.466  10.958  0.0738 -0.4267  0.1386
 7215W        W23024   6.570   6.663  14.740 -0.4932  0.0800 -0.3032
 7216W        W23025  10.519  12.289  13.914  0.0836 -0.1235 -0.1653
 7217W        W23026  15.696   9.110  13.735 -0.1457  0.2255  0.2098
 7218W        W23027   5.082  11.511  12.088 -0.1873 -0.2654  0.0206
 7219W        W23028  10.015   4.749  13.481  0.2854  0.0779  0.0630
 7220W        W23029   4.521  13.701   2.764 -0.0584  0.1530  0.2273
 7221W        W23030   5.949  10.556   0.052  0.0493  0.2802 -0.2882
 7222W        W23031   3.456   8.145   0.248 -0.1640 -0.0186 -0.1089
 7223W        W23032  14.857   9.889   1.479  0.4065  0.4993  0.2465
 7224W        W23033  16.240  15.117   3.283  0.2835 -0.2627  0.3037
 7225W        W23034   6.728   3.244   1.572  0.0147 -0.0196 -0.0896
 7226W        W23035  13.002  16.867  11.210 -0.0243 -0.0585  0.1248
 7227W        W23036   9.234   2.873   1.628  0.2685 -0.0276 -0.0605
 7228W        W23037   7.126   4.042  13.903 -0.0158 -0.1305 -0.1678
 7229W        W23038  14.598   4.424  13.266 -0.3656  0.2780 -0.0861
 7230W        W23039   4.057  16.668   2.057 -0.1080  0.0976  0.0761
 7231W        W23040   9.549   4.624   9.791  0.0946 -0.2937 -0.0582
 7232W        W23041  18.013  12.978   2.592 -0.0929  0.0202  0.1788
 7233W        W23042   4.892   8.117   5.162  0.2732  0.0414  0.2776
 7234W        W23043   1.317  13.610   4.453 -0.0982  0.4319 -0.1265
 7235W        W23044   6.486  14.637  11.011  0.0820 -0.0853 -0.0755
 7236W        W23045   4.960   5.325   0.543  0.1749 -0.0477  0.0307
 7237W        W23046   0.917  11.081   2.832  0.2648  0.0735  0.0020
 7238W        W23047   9.406  18.296   4.186 -0.0358 -0.1909  0.1415
 7239W        W23048  18.605   6.006   2.749 -0.3502  0.1554 -0.3531
 7240W        W23049   4.316  17.031  14.893  0.2881  0.1258 -0.1540
 7241W        W23050  12.006   2.733  10.482  0.0542  0.1781 -0.1531
 7242W        W23051  14.081   7.136   5.029  0.0640 -0.0697  0.0015
 7243W        W23052  18.486  18.996  13.209  0.3575  0.2571  0.1466
 7244W        W23053  19.106  11.895  12.041 -0.3743  0.1986 -0.2218
 7245W        W23054   3.391  16.989   4.581  0.0935  0.0049 -0.2224
 7246W        W23055  14.259   0.592  15.206 -0.1076 -0.5897  0.0373
 7247W        W23056   9.012   1.442   0.269  0.0695 -0.0540  0.2144
 7248W        W23057   5.099   2.332   3.668 -0.2439  0.0765 -0.2632
 7249W        W23058   0.019  12.253   3.850  0.4355 -0.1993 -0.1228
 7250W        W23059   3.184   0.900  11.233 -0.0246  0.3215  0.1776
 7251W        W23060  17.723  11.884   1.210  0.0569  0.2104  0.2115
 7252W        W23061   6.880  15.504   0.444  0.2573  0.0186 -0.4044
 7253W        W23062   0.666  10.156  11.521  0.4038 -0.3499 -0.1320
 7254W        W23063   1.941   0.610  13.241  0.2181 -0.4250  0.0046
 7255W        W23064  18.721  11.982   0.866 -0.3067 -0.2258 -0.0060
 7256W        W23065   6.025  18.994   9.704  0.0263 -0.1846 -0.2822
 7257W        W23066   1.109   0.368  14.513 -0.0231 -0.0790  0.2071
 7258W        W23067  10.363   7.437   4.465 -0.0997  0.2808  0.0367
 7259W        W23068  15.952  12.937  11.263  0.1342 -0.0620  0.2838
 7260W        W23069   5.976  13.396  10.928 -0.0196  0.3193  0.3691
 7261W        W23070   8.909   5.909   0.993 -0.3506  0.0342  0.1243
 7262W        W23071   0.995   5.229  10.557  0.2905  0.2516 -0.1603
 7263W        W23072   9.414   4.777  11.971  0.1743 -0.2815 -0.1736
 7264W        W23073  17.948   9.556   4.500 -0.0992  0.0017 -0.0803
 7265W        W23074   7.051  16.672   1.330  0.0652  0.1126 -0.2318
 7266W        W23075  11.039  10.593   3.076 -0.0096  0.2118  0.3648
 7267W        W23076   2.236   1.885  12.794  0.3840  0.1310  0.4176
 7268W        W23077   0.777   8.487   4.811 -0.0857  0.0716 -0.0174
 7269W        W23078  17.521   0.445  10.300  0.1175  0.2171  0.1368
 7270W        W23079  12.116  18.054   6.244 -0.3168 -0.0046  0.1279
 7271W        W23080   7.718   9.143   3.184 -0.2854  0.0756  0.1575
 7272W        W23081  13.270   8.683   1.354 -0.2860 -0.2889 -0.1730
 7273W        W23082  11.503   7.506   2.117  0.2432 -0.0028 -0.0812
 7274W        W23083   6.121  17.792  13.401  0.0727 -0.0612  0.0300
 7275W        W23084  11.790   3.490   2.319  0.1782  0.1883  0.3105
 7276W        W23085   8.789  11.610  11.881 -0.1795  0.0941 -0.1669
 7277W        W23086   4.105   5.070  12.311 -0.0663  0.2627 -0.3506
 7278W        W23087   4.983  18.737   4.211 -0.1517 -0.3354  0.3149
 7279W        W23088  11.734   1.161  14.255 -0.0898  0.4624  0.2564
 7280W        W23089  10.657   6.145   1.519 -0.3988 -0.3002 -0.0505
 7281W        W23090  12.118   6.634   3.673 -0.1988  0.2178  0.4066
 7282W        W23091  15.406   5.237   3.262  0.0151  0.0198 -0.3768
 7283W        W23092  16.223   9.825  12.746  0.0580  0.1670 -0.0139
 7284W        W23093  12.945   9.109   2.488  0.0656 -0.1296  0.1513
 7285W        W23094   1.780  10.025   5.519  0.1437  0.1035 -0.3617
 7286W        W23095  13.562  19.060  14.461  0.1618 -0.2009 -0.2423
 7287W        W23096   5.014  16.031  13.492 -0.1901 -0.1107  0.1688
 7288W        W23097  16.925   0.441  15.212 -0.0944 -0.0495  0.1386
 7289W        W23098  15.809   7.287  13.493  0.3272 -0.0642  0.3188
 7290W        W23099   2.776   2.731  13.072 -0.2556 -0.2405 -0.0074
 7291W        W23100  18.198  17.749   3.945  0.1478  0.0433  0.0254
 7292W        W23101   6.649   3.531   1.125 -0.2793 -0.2213  0.3069
 7293W        W23102  10.326  13.163  10.960 -0.2985 -0.0305  0.0888
 7294W        W23103   7.401   1.584   3.583  0.3960 -0.0298  0.1334
 7295W        W23104   7.401   2.290   3.148 -0.0008  0.1801  0.1133
 7296W        W23105   5.901   3.722   3.370 -0.0212 -0.1597 -0.0354
 7297W        W23106   0.409  16.609   0.176 -0.0688  0.0057 -0.3357
 7298W        W23107   2.587  13.493   2.552  0.2524 -0.4139  0.2887
 7299W        W23108  13.767   7.281   4.315  0.2194 -0.0415  0.1012
 7300W        W23109   2.559  18.322  12.110 -0.2343 -0.2554 -0.0795
 7301W        W23110  16.447  18.620   5.688  0.0230  0.0579 -0.2500
 7302W        W23111  15.557  15.290   1.421 -0.0572 -0.0970 -0.2423
 7303W        W23112  18.410  13.122  11.446 -0.0720  0.0163  0.0125
 7304W        W23113   8.770  17.943  13.385 -0.2745 -0.1811  0.1082
 7305W        W23114  13.736  13.163  12.881  0.0837  0.3172  0.2128
 7306W        W23115   2.300   9.290   4.858  0.0252  0.1727  0.1162
 7307W        W23116   0.475   7.358  11.587 -0.1087 -0.4488 -0.0267
 7308W        W23117   9.553  14.963  11.872 -0.0098  0.2108  0.2465
 7309W        W23118  15.321  17.242  13.455 -0.5399  0.0186 -0.2797
 7310W        W23119  12.143  13.938   1.067  0.0895  0.1339 -0.1228
 7311W        W23120   5.015   5.044  11.338  0.1323  0.0086  0.1657
 7312W        W23121  15.014  12.432   1.583  0.1467  0.0987 -0.0781
 7313W        W23122   2.291  13.763   0.404 -0.0720 -0.2627  0.2154
 7314W        W23123   0.822   2.795   0.667 -0.2629  0.0201  0.0518
 7315W        W23124  18.152  16.077  15.250 -0.2571  0.0761 -0.1033
 7316W        W23125  14.609  12.943   1.224 -0.0162 -0.2004  0.0717
 7317W        W23126  17.002  18.222  12.471 -0.1261 -0.0573  0.4666
 7318W        W23127  12.902   5.848   4.994  0.0034  0.1028 -0.2479
 7319W        W23128   9.646  14.475   2.094  0.0445  0.2443 -0.2224
 7320W        W23129  11.238  10.873  12.097  0.4837 -0.0005  0.1823
 7321W        W23130   1.567   8.479   1.719 -0.0652 -0.2847 -0.0626
 7322W        W23131   7.024   5.104  13.521  0.1859 -0.1467  0.3221
 7323W        W23132   3.892   2.981  12.090 -0.1839 -0.0082  0.1154
 7324W        W23133   3.628  11.049   4.175 -0.0181  0.0596  0.1191
 7325W        W23134   3.275   6.662  10.322 -0.2207  0.1143  0.1522
 7326W        W23135   5.347   1.419   0.148  0.0389  0.0425 -0.3451
 7327W        W23136  16.551   7.811  11.560 -0.3819 -0.4031  0.0231
 7328W        W23137  14.977   0.312   3.405  0.0056  0.1516 -0.2307
 7329W        W23138  16.313   7.939   1.462 -0.1257  0.1593  0.2274
 7330W        W23139  17.104  15.528   4.187  0.2843 -0.0523 -0.4929
 7331W        W23140  18.441   4.262   4.340 -0.3677  0.0402 -0.1476
 7332W        W23141  11.641  16.955  10.165  0.0016  0.1118  0.0556
 7333W        W23142   8.934  18.394   0.997  0.5684 -0.0233 -0.4515
 7334W        W23143   4.308  11.849   4.022  0.1108 -0.1540  0.1263
 7335W        W23144   7.174   9.568   0.430 -0.0674  0.1064  0.2040
 7336W        W23145   8.138   7.445  13.066  0.3267 -0.4584  0.1787
 7337W        W23146  12.966   2.574   5.109 -0.0656  0.1159 -0.1556
 7338W        W23147   5.878   1.870   2.127 -0.3142  0.0775 -0.0596
 7339W        W23148  15.738   3.504  12.064  0.2006 -0.1200  0.1343
 7340W        W23149  12.978   0.008  10.500 -0.0298  0.1788 -0.3698
 7341W        W23150  16.999  13.614  13.236 -0.1265 -0.1299 -0.0423
 7342W        W23151   0.823   0.125   5.422 -0.1050 -0.2126  0.1004
 7343W        W23152   6.931  18.484   4.098 -0.0021 -0.0790  0.3010
 7344W        W23153  14.368   4.011  11.179 -0.3331 -0.2565  0.0482
 7345W        W23154   4.107  18.341  13.194 -0.1598 -0.0247  0.0379
 7346W        W23155  18.077  10.615  10.291  0.1089  0.0142 -0.1151
 7347W        W23156  10.265   1.372  14.318  0.1732  0.1462  0.1164
 7348W        W23157  17.065  12.934   4.437 -0.1233  0.2321 -0.0133
 7349W        W23158   5.404   6.237  14.197  0.1954  0.0921  0.3895
 7350W        W23159   1.315   4.727   2.810  0.1497 -0.2341 -0.2656
 7351W        W23160  10.410   3.733   2.634  0.2468  0.2259 -0.0184
 7352W        W23161   2.137  12.182   0.956  0.1265  0.1589 -0.2441
 7353W        W23162   7.904   2.597   3.109 -0.1568  0.2019 -0.0324
 7354W        W23163  11.521   8.436  12.480 -0.1763 -0.0764 -0.2403
 7355W        W23164   9.104   3.078   4.378 -0.1127  0.3127  0.0207
 7356W        W23165   1.592   5.304   4.020  0.1706 -0.1711  0.0073
 7357W        W23166   8.169   1.167  12.924 -0.2096 -0.2946  0.0025
 7358W        W23167   1.223   1.660   1.115  0.0420  0.0345 -0.1571
 7359W        W23168  17.310  17.178  15.266  0.2317  0.0831  0.1530
 7360W        W23169   2.904  19.045  14.751  0.0213 -0.0891 -0.1196
 7361W        W23170   6.381  10.799   0.995  0.2617  0.0045  0.0950
 7362W        W23171  18.777   9.923   2.869 -0.1144 -0.5897 -0.1068
 7363W        W23172   9.182   8.414  11.977 -0.0665 -0.2159  0.0209
 7364W        W23173  15.126   7.430  12.307  0.0193 -0.0490  0.0109
 7365W        W23174   7.866  13.006  10.171  0.1842  0.0840  0.2717
 7366W        W23175   0.654   6.370   4.591  0.3112 -0.1729 -0.2282
 7367W        W23176   4.711  14.051  11.043 -0.0748  0.2931 -0.0211
 7368W        W23177   7.491  18.254   1.956 -0.0879 -0.1134 -0.0701
 7369W        W23178  10.037  11.698  13.182 -0.0678  0.2848 -0.0168
 7370W        W23179  18.767  10.891   4.966  0.4417  0.0998 -0.1055
 7371W        W23180  12.232   7.943   3.689 -0.1895 -0.0191 -0.3281
 7372W        W23181  10.854  15.277   4.268  0.1780 -0.0333 -0.1167
 7373W        W23182  15.968  13.090  13.830 -0.3558  0.2348  0.0143
 7374W        W23183   7.671  14.929   2.933  0.0665 -0.2205  0.1292
 7375W        W23184   9.751   0.324  12.135 -0.0884 -0.2739 -0.2509
 7376W        W23185   0.716   5.699   1.256 -0.5843 -0.0231  0.0835
 7377W        W23186   9.985  14.721   3.071  0.1291 -0.1804 -0.0778
 7378W        W23187  13.470  17.187   3.030  0.0645 -0.2332 -0.2419
 7379W        W23188   1.508  17.775  14.409  0.0244  0.1034  0.0978
 7380W        W23189  12.167  14.022  13.770  0.1670  0.0797 -0.1624
 7381W        W23190   1.109  14.004  15.242  0.2497 -0.0757 -0.0747
 7382W        W23191   1.494   1.973  14.936 -0.1532 -0.1360 -0.0972
 7383W        W23192   7.724  17.340  14.409 -0.2158  0.1727 -0.1672
 7384W        W23193   5.658   1.869  13.719 -0.0624 -0.4392 -0.2228
 7385W        W23194  14.897  16.702   6.338  0.0922 -0.0070 -0.3758
 7386W        W23195   3.779  17.325  15.168 -0.0852  0.2353 -0.3177
 7387W        W23196   6.334   6.798  11.945  0.5173 -0.0682 -0.1791
 7388W        W23197   4.104  15.027  10.488  0.0143  0.2439  0.3159
 7389W        W23198   1.613   7.973   5.151 -0.1530  0.1586 -0.1209
 7390W        W23199   7.076  15.459   4.259 -0.1348  0.1969  0.3535
 7391W        W23200  18.622   7.136   1.454  0.1165 -0.2933 -0.0148
 7392W        W23201  16.492   2.803  14.989  0.1001  0.4115 -0.0853
 7393W        W23202  17.935  17.968  12.077 -0.0422 -0.2376  0.2121
 7394W        W23203  15.878   4.024   2.872  0.0636  0.2073 -0.1760
 7395W        W23204  12.284  13.331  10.520  0.0087 -0.3831  0.2694
 7396W        W23205   4.284  11.768   0.707 -0.0249 -0.2057  0.3152
 7397W        W23206  18.744   5.164   3.271  0.1824 -0.4850  0.0123
 7398W        W23207   9.888   0.080   0.630  0.1538 -0.2149  0.2164
 7399W        W23208   5.806  18.673  12.999 -0.0321 -0.0790  0.1447
 7400W        W23209  13.948  10.489  11.589 -0.3145 -0.2483  0.0492
 7401W        W23210   1.951  17.983  14.654 -0.0489 -0.1381  0.1341
 7402W        W23211   0.211   8.992   1.465  0.0278 -0.1770 -0.0722
 7403W        W23212   2.115  18.085  11.832  0.1191  0.1344  0.3313
 7404W        W23213   3.885   3.698  13.643  0.4093  0.2983 -0.0254
 7405W        W23214   4.582  13.434   1.837 -0.0507 -0.0545  0.2464
 7406W        W23215   9.137  15.691  12.942  0.1027 -0.2578  0.5216
 7407W        W23216   5.599  16.897  12.376 -0.1194  0.1094 -0.2535
 7408W        W23217  11.091   2.590   3.279  0.1813  0.3113 -0.1281
 7409W        W23218  15.873   4.284  14.619  0.1965 -0.2964 -0.1973
 7410W        W23219   2.697  15.823  14.333  0.0765  0.0052  0.2645
 7411W        W23220   0.254   1.791   4.597 -0.1193 -0.1362 -0.5075
 7412W        W23221   6.982  15.248  10.387 -0.0395 -0.2446 -0.4456
 7413W        W23222   9.144  15.530   3.688  0.0528 -0.0698 -0.3736
 7414W        W23223   3.617  11.753  11.988  0.1358  0.0507  0.2957
 7415W        W23224  15.846  16.975   3.366 -0.0792 -0.1208  0.3921
 7416W        W23225  16.228   4.773   0.325 -0.0435 -0.2838 -0.3414
 7417W        W23226  16.174   0.460   5.076  0.1041  0.1174 -0.0266
 7418W        W23227  17.828   6.084   3.219  0.1466  0.0138 -0.0075
 7419W        W23228  16.689  10.713   2.772 -0.1030 -0.1042 -0.0373
 7420W        W23229  19.065   8.313  14.637  0.0066 -0.2488  0.3500
 7421W        W23230  12.468   0.345  12.132  0.1450  0.0440  0.1495
 7422W        W23231  12.668  14.895   1.437  0.1020 -0.2907 -0.0322
 7423W        W23232  18.734   9.136   3.158 -0.0331  0.2358 -0.4959
 7424W        W23233  16.535   1.788   0.977 -0.2503 -0.0861  0.1136
 7425W        W23234   7.980  10.120  13.151  0.2937 -0.1406 -0.0660
 7426W        W23235   4.359   8.901   1.793  0.0327  0.0385  0.0833
 7427W        W23236  17.915  14.734  12.592 -0.0101 -0.1172 -0.1930
 7428W        W23237   9.085   5.870  11.480 -0.0082  0.1448 -0.1144
 7429W        W23238   5.015  16.812   2.644 -0.0322 -0.0872  0.1653
 7430W        W23239   9.665   4.979   1.883  0.1877 -0.2076  0.0601
 7431W        W23240  14.731   1.966   2.005  0.1004  0.0428 -0.5105
 7432W        W23241   0.156  16.560   2.999  0.0963 -0.2479  0.1432
 7433W        W23242   2.074   2.006  13.242  0.2950 -0.2238 -0.4605
 7434W        W23243  13.421   7.134   3.874 -0.2401  0.3682 -0.0664
 7435W        W23244   4.715  17.685   2.566 -0.0706  0.3758 -0.0508
 7436W        W23245   8.781  17.650  11.416 -0.3812  0.2778  0.1049
 7437W        W23246  12.339   2.681   0.430 -0.0556  0.2165  0.0571
 7438W        W23247   7.555   0.498   0.859 -0.2524 -0.3808  0.2592
 7439W        W23248   1.520   7.477   0.294 -0.0078 -0.2847 -0.0818
 7440W        W23249   7.184   4.244   3.641 -0.1246 -0.3398 -0.0916
 7441W        W23250   9.546   5.921   3.423 -0.2261 -0.2028  0.0895
 7442W        W23251   7.815   3.784   2.293  0.0619  0.1422  0.1401
 7443W        W23252  11.045   0.860   2.543 -0.1353  0.1354 -0.0191
 7444W        W23253  16.458  11.050   3.008 -0.2632  0.5674 -0.1987
 7445W        W23254   8.258   5.560  13.883  0.2621  0.0276 -0.2585
 7446W        W23255   8.024  18.582   1.576  0.0366  0.1438  0.4170
 7447W        W23256  13.299  14.088   1.524 -0.1315 -0.2229  0.0009
 7448W        W23257  18.119   9.729  11.801 -0.0044  0.3503  0.0693
 7449W        W23258   2.389   3.463  11.887 -0.2184  0.0166 -0.3902
 7450W        W23259   9.084  18.373  11.946  0.1240  0.0359  0.2299
 7451W        W23260   6.692   8.692   1.475  0.1769  0.2026  0.0807
 7452W        W23261   3.663  16.520  11.574 -0.1530 -0.0481 -0.2456
 7453W        W23262  19.104   5.408  15.217  0.1735 -0.0161 -0.0697
 7454W        W23263  12.380   6.349  12.091  0.1303 -0.1704  0.2835
 7455W        W23264  15.005  17.478   4.498 -0.0884  0.2091 -0.1532
 7456W        W23265   1.764   6.636   0.231  0.1458  0.2371 -0.1451
 7457W        W23266   1.190   1.368   2.425  0.2039  0.2140  0.2509
 7458W        W23267   1.908   2.155   1.485  0.0167  0.2637 -0.1836
 7459W        W23268  12.917   8.839  14.574  0.1099  0.2928  0.1616
 7460W        W23269   8.719   7.041  12.124  0.2870  0.2053  0.0148
 7461W        W23270  18.700  11.953  11.681 -0.1439 -0.1560 -0.2339
 7462W        W23271  14.760  18.620   4.616 -0.0656 -0.0955 -0.2041
 7463W        W23272   9.972   7.598  12.229  0.0770 -0.0998 -0.2722
 7464W        W23273   3.382  12.822   3.614  0.1788 -0.3187  0.1328
 7465W        W23274   1.204  10.962   4.758  0.1660  0.1443 -0.2769
 7466W        W23275  18.615   9.884   0.012  0.0940  0.0911  0.2361
 7467W        W23276   8.996   0.309   9.434 -0.1550 -0.2630 -0.1342
 7468W        W23277  12.762   3.400  15.261 -0.2760 -0.2394 -0.0137
 7469W        W23278  14.485  15.944   4.862  0.1682 -0.2375  0.1929
 7470W        W23279   7.576   8.219   1.316 -0.1811  0.1770 -0.3543
 7471W        W23280   4.460  14.205  15.161  0.0481  0.0979  0.0234
 7472W        W23281   9.278   0.042   2.565 -0.1781  0.0542  0.1471
 7473W        W23282   2.038   8.884  14.791 -0.3157  0.3235  0.1728
 7474W        W23283   1.529   2.651  13.446  0.3204 -0.2827 -0.1356
 7475W        W23284   5.947  10.981  12.440  0.1079 -0.0778 -0.2593
 7476W        W23285  13.529   1.171  15.181 -0.1471  0.1976  0.2107
 7477W        W23286  16.580  17.382  10.775 -0.0617 -0.0943  0.0522
 7478W        W23287  14.342  12.580   3.938  0.2691 -0.1538  0.3424
 7479W        W23288   7.538   8.557  12.504 -0.1680  0.2059  0.2017
 7480W        W23289  18.345   1.831  12.481  0.1205 -0.0783  0.0769
 7481W        W23290   9.206   4.251   2.417  0.0424 -0.0209 -0.0257
 7482W        W23291  13.200   0.057   3.696 -0.0056 -0.3431  0.1592
 7483W        W23292   9.818  14.288  10.531 -0.1232  0.1024  0.0863
 7484W        W23293   1.526   4.262  11.826 -0.1223 -0.0376  0.0014
 7485W        W23294  17.294  18.158  14.331  0.2431 -0.5074  0.1251
 7486W        W23295  16.449   0.226   3.048  0.0586 -0.3362  0.1083
 7487W        W23296   4.351   5.010   1.248 -0.1002 -0.0749 -0.1250
 7488W        W23297   0.582  11.666   0.188  0.0184 -0.1772  0.1324
 7489W        W23298  17.206   0.011   0.013  0.2052 -0.1031 -0.0615
 7490W        W23299  15.147   1.564  14.264  0.2455 -0.5194  0.0099
 7491W        W23300   3.731   7.129   3.331 -0.0875 -0.2464 -0.1074
 7492W        W23301   5.502  12.735   1.861 -0.1137 -0.1307 -0.2731
 7493W        W23302  14.902   2.728  13.394  0.0652  0.0788  0.2758
 7494W        W23303  13.259   4.169   0.436  0.0792 -0.1327 -0.0574
 7495W        W23304   3.664  16.684   2.824  0.0058  0.1565 -0.0041
 7496W        W23305   5.846  18.838   1.970 -0.3978 -0.1775 -0.1070
 7497W        W23306  11.369  17.916  10.274  0.1248  0.0757 -0.3518
 7498W        W23307   8.777  12.947   4.291 -0.0512 -0.3617 -0.2940
 7499W        W23308   6.737  10.226   3.087  0.0417  0.1193  0.2920
 7500W        W23309  10.957   4.018  11.781  0.1956  0.3738  0.1330
 7501W        W23310  17.343  15.752   2.008 -0.1702 -0.0596 -0.3785
 7502W        W23311   1.777  19.070   1.758 -0.1323  0.0030 -0.0006
 7503W        W23312   6.804   2.648   2.347 -0.3716 -0.2665  0.0433
 7504W        W23313  11.333   7.619   2.593  0.0081  0.2022 -0.0165
 7505W        W23314   8.239   0.867   1.673 -0.1329  0.3539 -0.1304
 7506W        W23315  10.456   2.510  15.063 -0.0435  0.3986  0.0936
 7507W        W23316   3.508  17.647  12.682 -0.0415 -0.0831 -0.1926
 7508W        W23317   1.692  14.124   9.428 -0.1360  0.1021 -0.0483
 7509W        W23318   5.649   6.049   1.647  0.7179 -0.4131 -0.1618
 7510W        W23319   6.153  18.010   2.253 -0.1384 -0.0751  0.2330
 7511W        W23320   7.422   8.607  10.121 -0.1681 -0.2493 -0.0059
 7512W        W23321  11.371  18.179   0.522  0.0262  0.1559 -0.0082
 7513W        W23322   3.608  10.594  15.101 -0.0910 -0.3663 -0.1219
 7514W        W23323   2.194  10.546  11.551  0.2023 -0.3327  0.2013
 7515W        W23324  13.899   3.331  11.498 -0.2874 -0.0916 -0.1063
 7516W        W23325  11.806  10.415   2.456  0.1517 -0.1465  0.1257
 7517W        W23326   0.429   9.692  14.810 -0.1534 -0.2172  0.0037
 7518W        W23327  13.207  13.573   0.417 -0.1581 -0.2782 -0.1970
 7519W        W23328  13.666  16.907   1.526 -0.1651 -0.2217  0.1028
 7520W        W23329   8.379   9.263   1.516  0.0199 -0.3750 -0.1675
 7521W        W23330   8.478   5.471  11.684  0.1548  0.1933  0.3045
 7522W        W23331   9.305   9.821   4.401 -0.3227 -0.0514  0.0972
 7523W        W23332  11.160  13.977   3.841  0.0119  0.2739  0.0564
 7524W        W23333  12.661  17.607   3.453 -0.1467  0.2976  0.0470
 7525W        W23334  12.035  13.305  14.458  0.1540  0.0499 -0.0376
 7526W        W23335   0.760  11.972   0.794 -0.2317 -0.0378 -0.1261
 7527W        W23336  17.847   9.797  10.728  0.2181 -0.0709 -0.1670
 7528W        W23337  18.096  18.894  10.479 -0.1407 -0.1408 -0.2034
 7529W        W23338   6.701  13.665   0.131 -0.1324  0.1469 -0.3163
 7530W        W23339  14.908  14.990  12.465 -0.1382  0.1979  0.2805
 7531W        W23340   0.065  14.796  14.942  0.2329 -0.2106  0.2749
 7532W        W23341  13.027   3.167   2.512  0.3301  0.3171 -0.4088
 7533W        W23342   9.961   9.607  11.822 -0.0095 -0.2202 -0.0267
 7534W        W23343   7.142   8.551  14.275 -0.2025  0.0273 -0.2267
 7535W        W23344   6.408  12.648   2.332 -0.0756 -0.2118  0.0672
 7536W        W23345  16.150  14.751  12.668  0.2850  0.1225  0.0718
 7537W        W23346   1.483   4.829  12.159 -0.0164  0.0360  0.1947
 7538W        W23347   4.050  12.088  11.852 -0.0055 -0.0865 -0.1713
 7539W        W23348   5.658   1.540   1.811  0.3388 -0.1356  0.1265
 7540W        W23349  14.862   4.061   2.784 -0.1005  0.1426  0.3166
 7541W        W23350   1.229   3.602   3.454  0.3729 -0.1554  0.3231
 7542W        W23351  16.489  12.752   3.337  0.4615 -0.2314 -0.0832
 7543W        W23352  16.983  11.783   3.766  0.0157  0.0442  0.0223
 7544W        W23353  15.491  12.240   9.927  0.0912 -0.0069 -0.0540
 7545W        W23354  17.397  14.948   3.712 -0.1151 -0.0883 -0.0466
 7546W        W23355  13.603  16.638   1.955 -0.4351  0.0599  0.0925
 7547W        W23356   1.563  11.257  11.221  0.0115 -0.0043  0.0872
 7548W        W23357  12.239  15.760   2.025 -0.1516  0.0443  0.1759
 7549W        W23358   7.970  12.979   4.689  0.1416  0.0217  0.0223
 7550W        W23359   2.268  12.703   2.367  0.1410 -0.1668 -0.3532
 7551W        W23360   5.020  18.480   2.205  0.0089 -0.0094  0.0740
 7552W        W23361  18.681   7.371  12.457 -0.1590 -0.1752  0.3515
 7553W        W23362  14.054  13.003   0.684 -0.1911  0.0120 -0.2409
 7554W        W23363  17.257  11.295   0.600  0.1216 -0.0680  0.0687
 7555W        W23364   0.789   9.293   4.817  0.0336  0.1686 -0.2891
 7556W        W23365  10.198   4.025  14.679  0.1572 -0.2972 -0.0848
 7557W        W23366   2.889   7.479  12.159  0.2209  0.2677 -0.3061
 7558W        W23367  18.793  17.351  13.182 -0.0591  0.2136 -0.0862
 7559W        W23368   4.731  16.739   3.520 -0.1299  0.0033  0.0795
 7560W        W23369  12.770   0.280   3.846  0.1056  0.0407 -0.4397
 7561W        W23370   7.077  14.357   2.271  0.0540  0.3026 -0.1153
 7562W        W23371   5.537  12.411  15.199  0.1208  0.0100  0.2460
 7563W        W23372   6.580  17.603  13.537 -0.1378 -0.1543  0.2059
 7564W        W23373   3.618   6.650  10.715  0.0424  0.1950 -0.1979
 7565W        W23374   7.801   7.726   1.290  0.1888 -0.0179 -0.0202
 7566W        W23375   6.234   4.955   3.567  0.0682 -0.2848 -0.2676
 7567W        W23376  14.945   5.108   5.024 -0.3047 -0.3723 -0.3084
 7568W        W23377  16.720   6.718  15.191 -0.3522  0.2694 -0.0556
 7569W        W23378  11.800   9.422   2.351  0.2041  0.0758  0.1773
 7570W        W23379  18.391   5.488   4.634 -0.1324 -0.1295 -0.1031
 7571W        W23380  16.243  10.138  14.911 -0.0978 -0.3071  0.0938
 7572W        W23381  13.039  18.165   4.818 -0.0737 -0.4008  0.1965
 7573W        W23382  15.601   9.409   9.994  0.1619  0.0288  0.0539
 7574W        W23383   0.282  17.442  13.122  0.0298  0.0064  0.2116
 7575W        W23384   2.665   0.648  13.333 -0.3697  0.3585  0.0732
 7576W        W23385  19.028   6.822  13.110  0.0290  0.1984  0.2291
 7577W        W23386   9.413   3.841  13.976  0.1874 -0.2184 -0.0037
 7578W        W23387  18.080  10.952  14.436  0.0798  0.3464  0.1244
 7579W        W23388   6.046   5.027   4.739  0.1370  0.0331 -0.0721
 7580W        W23389  15.335   8.797   0.565 -0.0534  0.0579 -0.0172
 7581W        W23390   7.242   2.967   4.530  0.0139  0.0021 -0.0781
 7582W        W23391  15.786   9.586   5.031  0.0992 -0.2178 -0.1410
 7583W        W23392   4.023  14.740  13.176  0.0303  0.2885  0.0943
 7584W        W23393  17.482   8.578   1.783 -0.0535  0.2155  0.0068
 7585W        W23394  12.519   0.074  10.777  0.4161 -0.0602 -0.1041
 7586W        W23395   0.435  12.127   2.069 -0.1172  0.1749  0.1673
 7587W        W23396   6.660  16.361  14.527  0.3719 -0.0273 -0.0213
 7588W        W23397   9.865   0.556  13.320  0.5701 -0.0648 -0.2071
 7589W        W23398   1.666   3.047   0.602 -0.1616 -0.3481 -0.0783
 7590W        W23399  11.322  15.973  14.094  0.2532 -0.0912 -0.1365
 7591W        W23400  14.798  18.976  15.055 -0.3689  0.0416 -0.1252
 7592W        W23401  14.049   2.762  15.261  0.0503  0.3776 -0.1729
 7593W        W23402   5.081  15.038   0.312 -0.0815 -0.0711 -0.0923
 7594W        W23403  18.497   3.900   0.201  0.3371  0.0947 -0.0178
 7595W        W23404  15.036  18.611   1.565  0.0430  0.0252  0.2612
 7596W        W23405   3.889   1.083  10.515  0.3164 -0.0461 -0.0551
 7597W        W23406   1.312  14.691   2.553  0.2240  0.3558  0.1035
 7598W        W23407  14.603   1.752   0.392  0.2657 -0.0500  0.2812
 7599W        W23408   2.471  13.060  11.524 -0.2838 -0.2967  0.0202
 7600W        W23409  15.566   2.258   1.577  0.3428 -0.1404 -0.2038
 7601W        W23410  16.172  13.638   2.979  0.1375 -0.3000  0.1421
 7602W        W23411   9.323   9.081   1.903  0.5765  0.0528 -0.1234
 7603W        W23412  10.011  18.880   5.237  0.0381  0.1522  0.0998
 7604W        W23413  12.357  17.077  14.175  0.1982  0.1621 -0.2392
 7605W        W23414   7.287  18.612   2.361  0.0797  0.2250  0.1044
 7606W        W23415  11.109  10.410   2.530 -0.1341 -0.0978 -0.4068
 7607W        W23416   8.676   7.614  12.976 -0.2404  0.1404 -0.0215
 7608W        W23417   0.495   0.609  14.482 -0.1258  0.3020 -0.1501
 7609W        W23418   7.457   7.651   5.696 -0.3282  0.0317  0.1527
 7610W        W23419   3.981   1.885  13.268  0.0086  0.0369 -0.0608
 7611W        W23420   7.849   2.080  10.713  0.0324 -0.1031  0.1028
 7612W        W23421  16.550   8.028  12.978  0.1630  0.0513  0.0841
 7613W        W23422   8.094  16.657  13.945  0.2124  0.0231 -0.1515
 7614W        W23423  19.069  17.612  11.044  0.0402  0.0052  0.2796
 7615W        W23424  18.637   2.514   2.785  0.1306  0.1014  0.0928
 7616W        W23425   2.167  14.364  10.732 -0.0140  0.2399  0.0023
 7617W        W23426  15.931   3.897   2.403 -0.1411  0.1377 -0.0508
 7618W        W23427   4.704   0.022  12.133 -0.3799  0.0651 -0.1518
 7619W        W23428   7.730  10.944   1.163  0.2061  0.0363 -0.1663
 7620W        W23429  18.476  17.251  11.434 -0.1848  0.1611 -0.3237
 7621W        W23430   2.597  10.554   5.411 -0.4348 -0.2586  0.0850
 7622W        W23431   1.921  18.433   3.340  0.1623 -0.1475 -0.0182
 7623W        W23432  18.411  12.775  10.846 -0.3428  0.0412 -0.3257
 7624W        W23433   0.001   6.240  13.040 -0.0085  0.1341  0.0750
 7625W        W23434  12.242  19.076   1.626 -0.2194  0.1416 -0.2819
 7626W        W23435  11.209   7.667   0.370  0.1045 -0.0987 -0.1410
 7627W        W23436   7.492  10.066  13.183 -0.1590 -0.0236 -0.0588
 7628W        W23437   0.986   3.645  11.508 -0.0494 -0.0729  0.0027
 7629W        W23438  13.570   2.880  12.690 -0.2048 -0.0690  0.1465
 7630W        W23439  18.360  12.112   3.582  0.0249 -0.2289  0.2677
 7631W        W23440   7.112  15.688  14.905  0.0990  0.1477  0.0676
 7632W        W23441   8.206  15.790  11.080  0.0489  0.2433  0.0499
 7633W        W23442  14.392   8.820   0.172  0.0256  0.0984 -0.1405
 7634W        W23443   0.924  10.457  14.352 -0.0973  0.0535  0.2192
 7635W        W23444  15.507  11.145   1.104 -0.0941  0.0244 -0.2211
 7636W        W23445   0.770  13.529   3.526 -0.1632  0.2142 -0.1799
 7637W        W23446  17.165   3.296   4.279 -0.2386 -0.1583  0.1081
 7638W        W23447   5.676   3.181  14.609  0.1335  0.0998  0.3151
 7639W        W23448  15.282   0.800  13.105 -0.1456 -0.2297  0.2905
 7640W        W23449  14.771   3.225  10.908 -0.0513 -0.1229 -0.0785
 7641W        W23450  19.033   5.909   2.995  0.1647 -0.1812  0.1584
 7642W        W23451  17.503  13.940   4.248 -0.1660 -0.1200  0.2065
 7643W        W23452   3.392   1.428  11.126 -0.3260 -0.1330  0.0952
 7644W        W23453   2.585   4.779   1.846 -0.0441 -0.0306 -0.1452
 7645W        W23454  16.703   2.958   4.331 -0.2741 -0.0540 -0.2662
 7646W        W23455  10.053  13.632  11.028 -0.0851 -0.1708  0.1519
 7647W        W23456  18.902  12.970   2.070  0.1404  0.0501 -0.2217
 7648W        W23457   5.569   5.007   4.641  0.2159  0.0282 -0.0162
 7649W        W23458  18.739   9.953   1.565 -0.0954  0.0262  0.1324
 7650W        W23459   4.805   4.538  14.464 -0.3616 -0.1964 -0.0586
 7651W        W23460  10.058   6.011  13.160  0.1243  0.0022  0.1772
 7652W        W23461   3.537   0.658   1.537 -0.0593 -0.0503 -0.1622
 7653W        W23462   4.360   8.725   4.472 -0.1596  0.1052  0.1660
 7654W        W23463  15.485  15.298   2.299  0.2346  0.0655  0.1391
 7655W        W23464   7.761  15.153   9.916 -0.0809  0.0384  0.0915
 7656W        W23465   6.391   0.472  14.936  0.3067 -0.3450 -0.0066
 7657W        W23466  16.260  16.991   2.470  0.3300  0.0106 -0.2240
 7658W        W23467   0.255   0.061  12.352 -0.1749  0.1500  0.0855
 7659W        W23468   4.135  14.161  10.940 -0.0449 -0.1282 -0.3516
 7660W        W23469  14.735  18.182   3.374 -0.0605  0.3848  0.0358
 7661W        W23470  15.488  15.738   3.004 -0.0641  0.0541 -0.0421
 7662W        W23471  12.073   8.390   3.580 -0.1907  0.2922 -0.1257
 7663W        W23472   7.456  16.461   3.323  0.1858  0.0827  0.0292
 7664W        W23473  19.021   3.215   9.928 -0.0495 -0.3155  0.4142
 7665W        W23474  10.592   1.915   4.121 -0.2981 -0.0309  0.2133
 7666W        W23475  13.794   2.841   3.166  0.0089  0.0120  0.1241
 7667W        W23476   1.384  16.555   2.644  0.0558  0.1612  0.0410
 7668W        W23477   6.394   7.224   5.830  0.0576 -0.1490 -0.1963
 7669W        W23478   8.300   4.597   3.819 -0.2613  0.2382  0.1832
 7670W        W23479  16.884  12.508   3.153  0.2369  0.1283  0.0772
 7671W        W23480   8.787  11.420  13.738 -0.1771 -0.0678 -0.0864
 7672W        W23481   7.467  10.615  12.906  0.2560  0.0660  0.0649
 7673W        W23482  14.243  13.399  11.303 -0.0702  0.2570  0.1064
 7674W        W23483   0.725  15.895   3.860  0.2290  0.0986 -0.0690
 7675W        W23484  11.650  17.600  13.825  0.0349  0.1212 -0.0756
 7676W        W23485   5.695  15.126  11.470  0.0197 -0.2662  0.2275
 7677W        W23486   4.606   7.716   2.520  0.0944 -0.2037 -0.1627
 7678W        W23487  14.714  18.124   0.203 -0.0185 -0.0239 -0.1878
 7679W        W23488   9.749   6.258  10.982  0.1362  0.1639  0.0779
 7680W        W23489  11.804   3.675  14.410 -0.0659  0.2630 -0.2063
 7681W        W23490   0.471   3.437  10.462 -0.2057  0.0485  0.1431
 7682W        W23491  15.338  14.926  14.578 -0.1776  0.0048 -0.1155
 7683W        W23492  12.453  13.279   3.215 -0.0156 -0.1152 -0.1724
 7684W        W23493  10.108  14.658   4.432 -0.1765  0.1507 -0.4122
 7685W        W23494  10.737  13.659   1.592 -0.3115  0.1491  0.0626
 7686W        W23495   5.879   2.353  12.111  0.2531 -0.3035 -0.3980
 7687W        W23496  14.774   1.432   2.057  0.2746  0.4355  0.1749
 7688W        W23497   6.218   9.813   1.490 -0.1984 -0.1690 -0.0802
 7689W        W23498   4.299   3.361  13.548  0.1388  0.3015 -0.1487
 7690W        W23499  15.031  12.405  15.246 -0.2110 -0.0198 -0.1071
 7691W        W23500   2.590  10.424  11.014  0.0843 -0.0911 -0.3320
 7692W        W23501  12.987  12.231  13.187  0.2720  0.1632 -0.0821
 7693W        W23502   9.587  11.308  12.527  0.2265 -0.0903  0.2668
 7694W        W23503   1.179   6.825   5.161  0.1080 -0.0821  0.3200
 7695W        W23504  16.897   7.171   3.221 -0.0787  0.0600  0.3050
 7696W        W23505  10.154   0.255  12.875  0.0780  0.2140 -0.0509
 7697W        W23506  15.577  11.870   3.293 -0.1209 -0.1929  0.2383
 7698W        W23507   6.814  14.443  13.399  0.1451  0.0674 -0.3450
 7699W        W23508  11.963   6.868  10.637  0.3132 -0.0113  0.4136
 7700W        W23509  11.666   4.910   4.673 -0.2796 -0.1042  0.1033
 7701W        W23510  11.273  13.748   0.335  0.4492  0.0823 -0.2695
 7702W        W23511   0.582   3.057   0.258 -0.1305  0.2284  0.0510
 7703W        W23512  17.939   9.546   0.880 -0.4911 -0.0653  0.1281
 7704W        W23513   4.055   3.307   1.269 -0.0418  0.0991 -0.1252
 7705W        W23514  11.193  13.868   1.362  0.0066  0.0043  0.2951
 7706W        W23515   8.980  16.802  11.755 -0.3330  0.1640  0.0168
 7707W        W23516   4.290  12.545  12.027  0.0720  0.4193  0.2381
 7708W        W23517  15.113   1.203   1.140 -0.1040 -0.1475  0.1573
 7709W        W23518   1.071   8.476  15.078  0.1257 -0.0120 -0.1868
 7710W        W23519   0.781  13.128   4.548  0.1229  0.0703  0.2325
 7711W        W23520  11.461  16.793  11.840 -0.1567  0.0650  0.0669
 7712W        W23521  14.973   2.574   4.668  0.1484  0.3352  0.1541
 7713W        W23522   2.412  16.076   3.119  0.0403  0.2099 -0.5745
 7714W        W23523   4.844   1.375   4.069 -0.2750 -0.0675  0.2135
 7715W        W23524   5.792   8.539  13.307 -0.1060  0.0799 -0.4723
 7716W        W23525   1.193   4.746   3.540  0.0375  0.0439  0.0772
 7717W        W23526   9.575   0.717  14.644 -0.0610  0.0157 -0.2064
 7718W        W23527  12.951  17.279   2.075  0.1571 -0.3798  0.2320
 7719W        W23528   4.434   2.387  11.414 -0.3252 -0.0135  0.4187
 7720W        W23529   5.952   4.863  13.587 -0.0292  0.1546  0.0534
 7721W        W23530  16.695   7.954   2.164  0.2638 -0.0608 -0.2218
 7722W        W23531   5.071   8.883   1.128  0.2690  0.1169 -0.1568
 7723W        W23532  12.317   6.668  10.862 -0.2711 -0.2086  0.0986
 7724W        W23533  11.113   0.319   3.370  0.4734 -0.0079  0.0301
 7725W        W23534  11.269   5.729   0.172 -0.1547 -0.2173 -0.0805
 7726W        W23535   7.742   0.008   0.756 -0.4100 -0.3179 -0.3813
 7727W        W23536  13.800  12.986   3.305 -0.1055  0.1269  0.2473
 7728W        W23537   7.281   2.130   2.214 -0.2586  0.1851 -0.0371
 7729W        W23538   1.950   8.307   3.076 -0.3726  0.1141  0.0213
 7730W        W23539  11.721  13.853  10.628 -0.2557  0.2217 -0.1438
 7731W        W23540  13.311   0.601  13.843  0.1947 -0.2247 -0.0057
 7732W        W23541  18.691  16.858   0.648 -0.3096  0.0186 -0.0891
 7733W        W23542  17.439  18.500  10.984 -0.0670  0.0866  0.0333
 7734W        W23543   7.693   4.134   5.014 -0.1288  0.3067 -0.1334
 7735W        W23544  15.560   0.532   1.911 -0.2691  0.3002  0.0668
 7736W        W23545   7.132  13.464   0.408  0.3072 -0.0307  0.0808
 7737W        W23546   9.652   7.770  12.572  0.4465  0.1178  0.2885
 7738W        W23547  12.507  16.167  10.697  0.0141  0.3422 -0.3228
 7739W        W23548  11.719  15.056   4.654 -0.0062 -0.0449 -0.1690
 7740W        W23549  10.759  15.621  14.083 -0.0873  0.0036  0.2159
 7741W        W23550   5.971   0.367   9.486  0.3897  0.1764 -0.2308
 7742W        W23551   3.672   0.132  13.592 -0.0732  0.2245 -0.0943
 7743W        W23552  17.221   6.026  13.133 -0.3001 -0.0086  0.1127
 7744W        W23553   3.841   7.304   0.382 -0.1256 -0.4642 -0.3276
 7745W        W23554   7.832  15.233   0.379  0.3955 -0.0276 -0.0857
 7746W        W23555  16.185   9.242   3.442 -0.0989  0.4779 -0.1951
 7747W        W23556  12.524  11.045   4.328 -0.0887 -0.0232  0.2438
 7748W        W23557   9.351   9.715  12.176 -0.1896 -0.1365 -0.0664
 7749W        W23558  12.766   1.431  11.505  0.0063 -0.2747  0.2855
 7750W        W23559   3.442   4.673   3.363  0.2703 -0.0483 -0.0062
 7751W        W23560   0.837  18.283   0.077  0.1260 -0.0459  0.1538
 7752W        W23561   7.236  18.155  13.843 -0.0985  0.1844 -0.1964
 7753W        W23562   0.780   7.025   6.105  0.2732 -0.4400 -0.0047
 7754W        W23563   7.113   1.735   0.610 -0.0374 -0.3293 -0.0572
 7755W        W23564   0.790  15.115  14.577  0.1548  0.2914  0.0934
 7756W        W23565   1.811  19.033   0.407  0.2983 -0.1118 -0.2790
 7757W        W23566   0.941  13.426   1.293  0.0386 -0.0233 -0.1754
 7758W        W23567  17.527   2.541  12.345 -0.1615  0.2645 -0.1462
 7759W        W23568  19.119  14.278  13.124  0.1425 -0.1616 -0.1060
 7760W        W23569   1.624   1.903   1.887 -0.0852 -0.0791  0.1997
 7761W        W23570   8.748   7.581   4.200 -0.0842  0.2404  0.1013
 7762W        W23571   1.142  18.376  10.663 -0.2293  0.0751  0.4070
 7763W        W23572  10.558   0.344   0.308  0.1992 -0.4998  0.2069
 7764W        W23573   9.701  10.205   1.364 -0.1312  0.0156 -0.0531
 7765W        W23574  16.554   5.180  10.188  0.0612 -0.0246 -0.0894
 7766W        W23575  14.367   7.368  10.600  0.2946 -0.0476 -0.1768
 7767W        W23576   3.247   3.549   1.656 -0.0374  0.1080  0.2433
 7768W        W23577   0.155   4.918  14.476 -0.2521  0.0919 -0.0530
 7769W        W23578  10.861   6.525  12.903 -0.0596  0.3015  0.3104
 7770W        W23579   4.816  12.649  11.049  0.1954  0.1193  0.1589
 7771W        W23580   3.886   4.540  12.384 -0.0189  0.1808  0.1519
 7772W        W23581  17.260   5.996  11.111  0.2807  0.0800 -0.1800
 7773W        W23582  18.622   6.974  13.374  0.0481  0.0342  0.0954
 7774W        W23583   3.482  12.418   5.152  0.2238  0.0089 -0.1416
 7775W        W23584   0.503  17.460  12.626  0.2765 -0.2845 -0.0587
 7776W        W23585  11.856   2.616   3.992 -0.3205  0.0550  0.5148
 7777W        W23586  15.963  19.031   1.411  0.1568  0.1143  0.1661
 7778W        W23587   0.085  18.062   1.993 -0.0463 -0.1650  0.0018
 7779W        W23588  15.203   6.938  10.561  0.2602  0.6086  0.0726
 7780W        W23589   5.938   4.334   2.545 -0.1351  0.0107 -0.6728
 7781W        W23590   6.007   3.877   0.466  0.1376  0.0476 -0.4127
 7782W        W23591   2.341  18.761   3.294  0.0777 -0.0827  0.1868
 7783W        W23592  14.449  18.243   1.592 -0.0997  0.0213 -0.1126
 7784W        W23593   2.284  12.028  11.526  0.3708  0.1710 -0.0714
 7785W        W23594  12.788  15.482   1.462  0.0229  0.0247  0.1215
 7786W        W23595  18.183   6.997   2.244 -0.2135 -0.1134 -0.1059
 7787W        W23596  14.921  16.561   4.346 -0.0552 -0.1761  0.1353
 7788W        W23597   8.189   2.322  10.354  0.0735 -0.1266  0.0026
 7789W        W23598   3.562   6.866  15.026 -0.2135 -0.0610 -0.1197
 7790W        W23599  18.378   5.254   2.168  0.4946  0.0456 -0.1074
 7791W        W23600  16.317  10.860  11.289  0.2607 -0.3567 -0.1363
 7792W        W23601  18.100  18.985   3.777 -0.2714  0.3797  0.1076
 7793W        W23602  18.077   7.123  10.739 -0.0180 -0.2951  0.0608
 7794W        W23603  18.630  18.269   4.941  0.0099 -0.1144  0.2935
 7795W        W23604  12.021   6.775  11.826  0.4453 -0.1821  0.0396
 7796W        W23605   7.991  19.090   3.245 -0.2682 -0.1049 -0.0041
 7797W        W23606   0.533  14.345   0.315 -0.1208  0.1216 -0.0831
 7798W        W23607  15.577   4.575   3.781  0.0360 -0.1057  0.0934
 7799W        W23608   0.662  16.817  11.104 -0.3013 -0.0237  0.2379
 7800W        W23609   1.651   4.511   0.864 -0.2086  0.2142  0.1111
 7801W        W23610   9.614  15.925   4.276  0.1671  0.2435 -0.0371
 7802W        W23611  15.008  18.930   5.323 -0.1869 -0.2585  0.1171
 7803W        W23612  13.296  18.319  14.868 -0.1061  0.0128  0.1853
 7804W        W23613  11.758  13.078  11.119  0.0904  0.0509 -0.1306
 7805W        W23614   1.281   2.892  12.869  0.1064 -0.1860  0.3005
 7806W        W23615  10.564  15.574   1.612 -0.3695  0.3774  0.1531
 7807W        W23616  13.479  14.626   2.434  0.1005  0.1476  0.3048
 7808W        W23617   7.142   5.345   1.451  0.4949  0.0016 -0.1425
 7809W        W23618   8.342   7.968   3.856  0.2145  0.1252  0.1845
 7810W        W23619   6.016  17.152   3.817 -0.0662 -0.1854 -0.2517
 7811W        W23620  15.251   4.961   4.543  0.0396 -0.1984 -0.1585
 7812W        W23621  18.274  17.133  15.047  0.3068 -0.0273 -0.4107
 7813W        W23622   5.493   0.136  14.824 -0.0472  0.2404  0.0700
 7814W        W23623  18.560  17.739   2.212  0.1447  0.1454  0.0459
 7815W        W23624   7.781   4.566   3.017  0.1835  0.2266  0.3575
 7816W        W23625  18.970  12.944  14.923 -0.0749 -0.1198 -0.1170
 7817W        W23626   6.099  16.060  12.524  0.0552 -0.1488  0.2316
 7818W        W23627  17.630  15.234   1.263 -0.2719 -0.0529 -0.2524
 7819W        W23628  14.788  16.891   5.865  0.0925 -0.3388  0.1792
 7820W        W23629  18.921  12.329  12.309  0.3512 -0.0734 -0.1572
 7821W        W23630  16.681  17.856  12.068  0.2945 -0.2783 -0.3364
 7822W        W23631   9.349   8.201   2.266  0.0336 -0.0075 -0.0245
 7823W        W23632  15.462   7.769   3.039 -0.2354 -0.1648 -0.1920
 7824W        W23633  12.106  15.524   1.514  0.0318 -0.0471 -0.2034
 7825W        W23634  14.301  10.436   0.438  0.2752  0.0410  0.1100
 7826W        W23635   4.603  12.116  11.799  0.0603 -0.2116 -0.2524
 7827W        W23636   1.096   5.514   2.591 -0.1040 -0.1869 -0.4495
 7828W        W23637   5.679   3.566   0.723  0.0647 -0.1790 -0.1969
 7829W        W23638   0.874  13.710   4.551  0.0366 -0.0494 -0.2352
 7830W        W23639   0.737  14.844  14.037 -0.1933  0.0163 -0.4600
 7831W        W23640   9.395  17.679   2.732 -0.0821  0.3381 -0.0515
 7832W        W23641  17.628   2.428  14.715  0.1048 -0.0862 -0.1723
 7833W        W23642   0.390   9.668  12.239 -0.2952 -0.0705  0.1462
 7834W        W23643   5.488   2.737  14.748 -0.0399  0.1003 -0.4364
 7835W        W23644   0.992  13.245   3.132 -0.0060  0.0414 -0.1042
 7836W        W23645  10.335   5.746  14.217 -0.0816 -0.2331 -0.2354
 7837W        W23646   8.706  15.608  14.613  0.3336  0.0518  0.1452
 7838W        W23647   2.144  12.135   5.413  0.1808  0.3175 -0.0478
 7839W        W23648   9.813  15.296  14.600  0.2685 -0.1073 -0.2898
 7840W        W23649  17.035  18.893  14.891  0.0187  0.2439  0.0138
 7841W        W23650  10.081   3.995  13.678 -0.0678  0.4614  0.3316
 7842W        W23651   5.757  16.383  13.151 -0.0456  0.0560 -0.0697
 7843W        W23652   3.351   0.877   1.118 -0.0152  0.0548  0.0972
 7844W        W23653   4.375   9.877   1.964 -0.2192  0.1888  0.0446
 7845W        W23654  10.212  16.992  11.402  0.1815 -0.0390 -0.0217
 7846W        W23655   8.034  16.470  12.034  0.0701  0.1186 -0.5359
 7847W        W23656  13.524   0.183   1.722 -0.5869 -0.0399 -0.1462
 7848W        W23657  10.222   6.644   3.937  0.1790 -0.1655  0.2429
 7849W        W23658   3.802   9.720  13.768 -0.0965 -0.0664  0.1774
 7850W        W23659  12.347   7.471  14.609 -0.1080  0.0059 -0.1522
 7851W        W23660  10.299   2.646   1.115  0.0488 -0.1405  0.0731
 7852W        W23661   9.498   3.922   2.673 -0.0981  0.1667 -0.4091
 7853W        W23662  11.866  12.018  10.515 -0.2881  0.0104  0.2719
 7854W        W23663   8.941  16.020  14.803  0.1843  0.0270  0.2731
 7855W        W23664  12.995   8.928   1.777 -0.0951 -0.0531 -0.1491
 7856W        W23665   7.547   3.535   1.751  0.0599 -0.2408 -0.0014
 7857W        W23666   9.120   7.710  12.808 -0.1298  0.0925 -0.2545
 7858W        W23667  18.832  19.027  10.146  0.0646 -0.0278 -0.2320
 7859W        W23668  11.431   0.944   4.463  0.4632  0.0462 -0.0190
 7860W        W23669  11.170   0.322  10.831  0.0319  0.3752 -0.0899
 7861W        W23670   3.365  11.940  14.339 -0.1557 -0.1810 -0.3193
 7862W        W23671   8.613   3.618   0.983 -0.2579 -0.0149  0.0292
 7863W        W23672  15.691  11.048  13.349  0.1208  0.0367 -0.1018
 7864W        W23673   4.884   0.415   0.595  0.1902 -0.0407  0.0081
 7865W        W23674  16.418  12.050   4.603  0.3175  0.2387 -0.2326
 7866W        W23675  10.974   4.265   0.927 -0.0412 -0.0079  0.3421
 7867W        W23676   9.949  16.790   4.575 -0.0588 -0.2777 -0.4119
 7868W        W23677  17.975  14.612   5.603 -0.0020 -0.0573  0.2441
 7869W        W23678  14.737   4.886  13.167  0.0713 -0.2012  0.0857
 7870W        W23679  17.192   2.459  11.936  0.0046  0.0022 -0.1578
 7871W        W23680  12.610   8.634   4.754 -0.0354 -0.1396  0.0013
 7872W        W23681   9.819   4.785   0.030 -0.0030  0.1100 -0.3141
 7873W        W23682   7.237   9.336   2.212  0.1544 -0.2725  0.1883
 7874W        W23683  14.146   3.618  10.731  0.0486 -0.0717 -0.4483
 7875W        W23684  13.209   9.488  11.422  0.1681 -0.0179 -0.0284
 7876W        W23685  10.265  10.454  11.463  0.1522  0.0667  0.0716
 7877W        W23686  17.409  13.743   3.211 -0.1797  0.2033 -0.1665
 7878W        W23687   1.898   5.051  12.446  0.0960 -0.0834  0.2772
 7879W        W23688  14.211   4.806  11.841 -0.3131  0.0669  0.2270
 7880W        W23689   0.493   4.197  13.552 -0.1707  0.1871  0.0610
 7881W        W23690  15.280  17.313   2.968  0.0097  0.2276 -0.0704
 7882W        W23691  16.917   7.701   3.504  0.2850  0.4608 -0.0448
 7883W        W23692  18.720   9.917  14.211  0.1505  0.1396 -0.1145
 7884W        W23693   7.591  12.264  12.635 -0.0676  0.1126  0.1838
 7885W        W23694  13.491   6.931   2.799 -0.0025 -0.3084  0.0339
 7886W        W23695  14.700   1.744  15.162 -0.1409 -0.0406 -0.1434
 7887W        W23696  14.779  11.755   5.362 -0.1600  0.1114  0.0210
 7888W        W23697   3.480  13.309   3.494  0.0578  0.1359  0.0995
 7889W        W23698  14.667   0.272  15.205 -0.4445  0.1478 -0.1162
 7890W        W23699   8.370   4.461  11.698 -0.3467  0.2355  0.3306
 7891W        W23700  18.139  10.561   1.034 -0.2697  0.0901 -0.0933
 7892W        W23701  13.838  12.577   4.085  0.2575 -0.0341 -0.1058
 7893W        W23702   6.344   1.192  13.789  0.1020 -0.2081  0.1337
 7894W        W23703   3.271   2.733   3.662 -0.1184 -0.1130  0.1232
 7895W        W23704  11.777   7.091  12.136  0.1211  0.0551  0.2997
 7896W        W23705   6.576   2.783  10.634 -0.1635  0.0099  0.1657
 7897W        W23706   0.100   8.177  11.132 -0.0544 -0.1846 -0.0443
 7898W        W23707  11.905   6.654   1.752  0.1347  0.1605  0.2657
 7899W        W23708   6.869   3.557  12.974  0.1837  0.2742 -0.0584
 7900W        W23709   8.210   1.740   0.310  0.0562 -0.0285  0.0869
 7901W        W23710   2.775  12.094  11.735  0.0465 -0.0593 -0.1156
 7902W        W23711  14.784  16.798   3.725 -0.0004  0.0104 -0.1837
 7903W        W23712   0.023   1.612  10.159  0.2263  0.3661  0.1397
 7904W        W23713  14.969  13.979  11.266  0.1339 -0.1934 -0.1964
 7905W        W23714  14.347   8.263   0.991  0.0901  0.2519  0.0024
 7906W        W23715   7.381  12.728  12.461 -0.1690  0.1362 -0.0924
 7907W        W23716  12.228  15.639   5.962  0.3636  0.1849  0.0008
 7908W        W23717  12.904  17.272  14.479  0.1516 -0.0359 -0.2466
 7909W        W23718  10.811  17.143   4.256  0.0518  0.5470 -0.1148
 7910W        W23719  12.564   5.002   2.093 -0.1831 -0.0407 -0.2482
 7911W        W23720  12.149   9.964  15.092 -0.4091  0.1278  0.1325
 7912W        W23721   5.064   0.124  11.710 -0.0503 -0.2467  0.1805
 7913W        W23722   8.471   7.527   2.642  0.2017  0.1079  0.0886
 7914W        W23723  12.474   2.871   3.196 -0.1145 -0.1045 -0.1736
 7915W        W23724   1.232  13.661   1.595  0.0052  0.2633 -0.2516
 7916W        W23725   4.545  14.214   3.612 -0.0015 -0.0043 -0.0017
 7917W        W23726  11.238  13.709   5.185  0.0474  0.0591 -0.1960
 7918W        W23727  14.229   8.374   9.493 -0.1599 -0.1568 -0.0454
 7919W        W23728   0.766  10.133   0.689  0.1276 -0.0428 -0.0244
 7920W        W23729   6.933   9.246   5.285 -0.1112  0.0377  0.3728
 7921W        W23730   6.056   6.982   4.011 -0.0564  0.0507  0.0899
 7922W        W23731   8.794   3.732  11.161  0.1436  0.1259 -0.3385
 7923W        W23732  16.339   7.100   1.745 -0.2019 -0.1368 -0.1192
 7924W        W23733   9.208  11.750  13.394  0.0530  0.1013  0.0638
 7925W        W23734  16.305   6.538   4.252 -0.0345  0.0954  0.3392
 7926W        W23735  16.234  15.479   5.268 -0.3882  0.1488  0.2868
 7927W        W23736  13.081  14.997   3.548 -0.3080  0.1166  0.2025
 7928W        W23737  14.389  13.382   5.479 -0.1131  0.2930 -0.0676
 7929W        W23738   9.887   9.484  11.346  0.0602  0.1130 -0.1528
 7930W        W23739  13.313  16.032   4.622 -0.1193 -0.0945 -0.0079
 7931W        W23740   3.220   0.249   1.709  0.1441 -0.3221  0.0204
 7932W        W23741   8.704  17.119   3.164  0.0897 -0.3262  0.0996
 7933W        W23742   9.790  17.695   0.895 -0.3050 -0.0650  0.1014
 7934W        W23743   4.511  10.758  13.043  0.0351 -0.0562 -0.4172
 7935W        W23744   9.619   7.229  11.473 -0.3324  0.0511 -0.2604
 7936W        W23745  10.871   8.324   5.470  0.5005  0.1471 -0.1009
 7937W        W23746   0.924   0.579   5.287  0.2314 -0.0426 -0.1226
 7938W        W23747  15.338  17.063   3.570 -0.0310 -0.0891  0.2110
 7939W        W23748   7.974   1.426   2.278  0.2482  0.2477  0.1169
 7940W        W23749  15.061  10.280   2.596 -0.1535  0.0882  0.0365
 7941W        W23750  12.846   6.708  12.838 -0.2374 -0.4859  0.0890
 7942W        W23751  17.712   3.074   4.258 -0.0942  0.0727  0.1256
 7943W        W23752   4.554   7.604  14.577 -0.4533 -0.0793 -0.0428
 7944W        W23753  18.070  17.765   2.343  0.3929 -0.0715  0.1910
 7945W        W23754  13.324  15.473  12.425 -0.1354 -0.0246 -0.3432
 7946W        W23755  16.839  10.368   0.003  0.2352  0.1129 -0.0418
 7947W        W23756   9.219  14.393   4.515 -0.1423  0.0311 -0.2388
 7948W        W23757   4.049   2.880  10.728  0.1957 -0.1299 -0.2595
 7949W        W23758   4.954  17.522  12.718  0.0335  0.0007  0.3180
 7950W        W23759  14.955  18.124  13.337  0.1153 -0.1822  0.3192
 7951W        W23760   5.049  17.258  10.929 -0.1570  0.1960 -0.2058
 7952W        W23761   4.248  13.651   5.432  0.2866  0.1751 -0.1226
 7953W        W23762   7.343  15.599  13.541 -0.1956  0.2213 -0.0015
 7954W        W23763   7.996   3.608   2.761  0.0402 -0.2161  0.0634
 7955W        W23764  13.762   2.794   2.691  0.1364  0.1782 -0.0302
 7956W        W23765   2.759   9.290   0.227 -0.1559  0.1692  0.2636
 7957W        W23766   1.362   2.402  12.769 -0.0143  0.1556 -0.2269
 7958W        W23767   6.571  14.611   5.355 -0.1360  0.1229 -0.1085
 7959W        W23768  18.291  14.676  11.413 -0.4471  0.3036 -0.1140
 7960W        W23769  18.437   7.111   4.132  0.2309  0.2040 -0.2905
 7961W        W23770  10.564  17.710  13.934  0.1193  0.0168 -0.1478
 7962W        W23771  10.853  11.547  11.989  0.1437 -0.0095  0.0927
 7963W        W23772   7.578   8.531   2.303 -0.0061  0.1251  0.0385
 7964W        W23773  16.298  14.372   1.476 -0.1301  0.2041 -0.2093
 7965W        W23774   2.362  16.925  14.287  0.1064  0.1354  0.0958
 7966W        W23775  12.840   5.230  15.078 -0.1464  0.0397 -0.2020
 7967W        W23776  11.733   0.737  10.691 -0.1199  0.1109 -0.0962
 7968W        W23777   7.941  12.724  12.516  0.1585  0.1418  0.1622
 7969W        W23778  16.892  13.182  13.510 -0.0527  0.0732  0.1717
 7970W        W23779   3.017  11.838   4.020 -0.2792  0.0400 -0.3357
 7971W        W23780  18.451   4.125  10.894  0.1274 -0.1519  0.1024
 7972W        W23781  13.735  13.228   1.494  0.0231 -0.1413  0.2197
 7973W        W23782  19.071   3.666   2.066  0.1236 -0.0633  0.2077
 7974W        W23783  18.705  18.692  14.629  0.1207 -0.1480  0.1067
 7975W        W23784  16.303   1.460  14.513  0.0033  0.2561  0.0003
 7976W        W23785   3.758  18.797  14.437  0.0325  0.1832 -0.0262
 7977W        W23786   9.754   7.952  14.689 -0.1737  0.0872  0.1567
 7978W        W23787   8.645  11.066  12.861 -0.0587  0.2138  0.0186
 7979W        W23788   0.923  16.463   1.378 -0.3768 -0.2328  0.2249
 7980W        W23789  12.843  12.623   1.343  0.1491  0.1275  0.0950
 7981W        W23790   4.456  18.149   4.717 -0.3105  0.0705 -0.1398
 7982W        W23791   8.841   9.844   4.429 -0.3105 -0.1951  0.0869
 7983W        W23792  19.079  13.760   4.775 -0.3703  0.0150  0.0836
 7984W        W23793   2.437  14.922   4.333 -0.2915  0.1901  0.0787
 7985W        W23794  14.647  10.623   6.174 -0.0188 -0.1923  0.2546
 7986W        W23795  14.669  13.656  13.009  0.2458  0.0971  0.1090
 7987W        W23796  10.487   8.289   0.411 -0.0165  0.2859 -0.3250
 7988W        W23797   4.370   3.849   2.866 -0.1027  0.0406 -0.3505
 7989W        W23798   7.852  16.318   2.229  0.0965  0.1696  0.0457
 7990W        W23799   2.339   9.648  15.226  0.2257  0.1716  0.2192
 7991W        W23800   2.831   2.577  14.832  0.2809 -0.4882 -0.1692
 7992W        W23801   8.217  11.145  10.139  0.2835  0.0794 -0.1732
 7993W        W23802   0.309   6.654   2.350 -0.0517  0.1256 -0.2250
 7994W        W23803  12.964   6.992   4.043 -0.2813 -0.2270 -0.1313
 7995W        W23804   8.189  10.334  14.962  0.1479 -0.0022 -0.0848
 7996W        W23805   5.279   5.666  12.316 -0.1366  0.4281  0.1060
 7997W        W23806  15.279  18.811  15.002  0.0383 -0.2994 -0.0309
 7998W        W23807  15.643   5.832   4.756 -0.0758  0.2921  0.1096
 7999W        W23808  13.736  10.106   9.766  0.3122  0.1718  0.0163
 8000W        W23809  11.529   0.145   3.194 -0.1734 -0.3324  0.1617
 8001W        W23810  11.532   3.214   9.689 -0.1384 -0.2191  0.0726
 8002W        W23811   7.222  14.298   4.379  0.0958  0.3575  0.1261
 8003W        W23812  18.237   2.904  11.425  0.0683  0.4619 -0.0356
 8004W        W23813  17.464   3.147  15.146 -0.3660  0.2516  0.0034
 8005W        W23814  15.699   4.007  11.163  0.5160 -0.0426  0.2583
 8006W        W23815   6.598   4.922   3.944 -0.0131  0.2057  0.0103
 8007W        W23816  11.539   2.078   1.352  0.2129  0.2643  0.0726
 8008W        W23817  15.598   5.039  11.853  0.2733  0.2983 -0.1028
 8009W        W23818   8.677   8.813   0.686  0.0800 -0.4771 -0.1636
 8010W        W23819   9.308   1.805   4.129 -0.4799  0.0717  0.1863
 8011W        W23820   7.996  13.357  13.273  0.0090 -0.0070  0.0598
 8012W        W23821   8.589  11.114  12.203 -0.1155  0.3055 -0.0349
 8013W        W23822   5.749   2.276  14.073 -0.2822 -0.0179  0.3157
 8014W        W23823  12.586   1.287   1.967  0.1098  0.2932  0.1735
 8015W        W23824  15.950   4.914   5.036  0.0068 -0.0455 -0.6761
 8016W        W23825   8.678   9.009   3.065 -0.1001  0.2653  0.0817
 8017W        W23826   6.280   7.341   4.362  0.0928 -0.0152  0.0058
 8018W        W23827  11.875   8.050   1.527  0.2717  0.1097  0.0652
 8019W        W23828  11.995  15.079  13.632 -0.2503  0.1858 -0.3493
 8020W        W23829   2.856   6.268  11.175  0.0537  0.0226  0.3430
 8021W        W23830   8.277  11.224  13.949 -0.1543 -0.0800 -0.0880
 8022W        W23831   1.556   8.414   0.328 -0.1440 -0.2035 -0.0461
 8023W        W23832   0.740  14.121  11.081  0.1659  0.1939  0.0922
 8024W        W23833   7.248  12.760  11.968 -0.0292 -0.3690  0.0372
 8025W        W23834   0.267  11.423  12.465  0.2485  0.0329  0.0223
 8026W        W23835  12.968   9.526   5.230 -0.0783  0.2160 -0.0659
 8027W        W23836   2.345   6.367  13.565 -0.0777  0.4459  0.1228
 8028W        W23837   0.586  17.409   3.208  0.1631 -0.0002  0.0669
 8029W        W23838   4.123   7.782   1.399  0.2111 -0.4693 -0.1904
 8030W        W23839   1.065   4.765  11.357  0.2464  0.2168 -0.1413
 8031W        W23840  12.506  12.129   3.042 -0.1161 -0.4212  0.2114
 8032W        W23841   0.536   3.035   2.440 -0.3001 -0.0977 -0.0947
 8033W        W23842   7.110   7.561   3.162  0.1799  0.4186  0.1581
 8034W        W23843  12.005  10.392  11.194  0.1074  0.0603  0.4712
 8035W        W23844   9.871   0.473   2.474 -0.0223 -0.2608  0.0833
 8036W        W23845  17.094  10.416   3.687  0.1213 -0.2096 -0.1147
 8037W        W23846  15.498   3.068   2.247  0.2618 -0.2007 -0.1138
 8038W        W23847  13.757   6.370   4.818  0.0237  0.1467  0.4199
 8039W        W23848   8.675  17.269   1.676  0.0673  0.0909  0.1176
 8040W        W23849  17.933  11.290  13.395 -0.0551  0.2040 -0.0491
 8041W        W23850   4.037  12.605   4.499  0.0292  0.0525  0.0946
 8042W        W23851   3.890   4.961   1.470  0.3786 -0.2411 -0.2682
 8043W        W23852  14.903  14.068  12.766  0.2755  0.2133 -0.1599
 8044W        W23853   7.370   5.149  14.230 -0.4663 -0.1247  0.1370
 8045W        W23854  12.951   6.684   2.154 -0.1022  0.1793  0.1166
 8046W        W23855  14.780  15.038  14.500 -0.0661 -0.0729 -0.2021
 8047W        W23856   3.207   6.932   1.874 -0.1832  0.2839 -0.0349
 8048W        W23857  12.330  17.106  14.688 -0.0971 -0.0897  0.1612
 8049W        W23858   1.674  12.108   5.730 -0.2779 -0.1158  0.1209
 8050W        W23859  15.097   2.688   2.438 -0.0178  0.1999 -0.3093
 8051W        W23860   2.887  16.342   0.146  0.3852  0.2631  0.4152
 8052W        W23861   2.111  12.556   1.886 -0.1875 -0.1577 -0.1202
 8053W        W23862  10.504   9.180  13.077 -0.2004  0.0265 -0.3033
 8054W        W23863  17.978  16.161  12.425 -0.1349  0.1266 -0.3679
 8055W        W23864   8.953   7.357  15.268 -0.2878  0.0272  0.0567
 8056W        W23865  13.385   8.456   0.836  0.0761 -0.0947  0.0955
 8057W        W23866   8.730  16.894  10.507  0.1514 -0.4250 -0.3874
 8058W        W23867  16.538  18.709   5.059  0.2812  0.1343  0.0201
 8059W        W23868  16.182   2.309  12.133 -0.2884 -0.3180 -0.0144
 8060W        W23869   6.570   3.445   9.413  0.1325  0.1175 -0.1639
 8061W        W23870   2.262   1.591  15.048  0.0515  0.2624 -0.0966
 8062W        W23871   9.903   2.438  12.024 -0.0583  0.1939 -0.4672
 8063W        W23872  10.998  15.778  14.444 -0.0642  0.0462  0.1557
 8064W        W23873  18.916   3.595  14.647  0.1866  0.0362 -0.1963
 8065W        W23874  12.802   9.863  14.077  0.0643  0.1756  0.1423
 8066W        W23875   4.406  18.493   2.939  0.0127  0.3557  0.0052
 8067W        W23876  12.024   8.541  14.583 -0.0980  0.1379  0.2497
 8068W        W23877   2.722  16.841   3.731  0.0570  0.0122  0.1813
 8069W        W23878   1.396  12.284   2.078  0.0498 -0.1229  0.3011
 8070W        W23879   2.038   2.851  10.858 -0.4439 -0.4586  0.1289
 8071W        W23880   3.385  10.455  12.385 -0.0459 -0.3033  0.2454
 8072W        W23881  17.840   1.406   3.221 -0.2091  0.1613  0.0793
 8073W        W23882  16.537   9.943  10.649  0.0147  0.1743 -0.1613
 8074W        W23883   6.422  11.762  10.920  0.2579  0.1154 -0.1272
 8075W        W23884  11.287   2.711   1.932  0.2158  0.2056  0.3309
 8076W        W23885  13.189   9.855   1.069  0.1890  0.0144 -0.1394
 8077W        W23886   8.420  11.658  14.988  0.4676  0.1159 -0.2470
 8078W        W23887   0.468   0.723  11.037  0.0297  0.0043 -0.2908
 8079W        W23888   7.460  10.623   1.524 -0.0470 -0.2254 -0.1343
 8080W        W23889  15.416   4.562  10.561  0.1921 -0.5367 -0.0683
 8081W        W23890   8.682  13.935  13.488  0.1354 -0.2184 -0.0141
 8082W        W23891  12.670   3.810  11.577 -0.0270  0.2737 -0.0602
 8083W        W23892  12.037  12.499   1.919  0.1726 -0.0930  0.1298
 8084W        W23893   3.050   0.208   2.184  0.1416  0.1102 -0.1465
 8085W        W23894  11.220   2.021   3.964  0.2294  0.1967  0.3838
 8086W        W23895   4.538   9.652   0.514  0.1815 -0.1613 -0.0686
 8087W        W23896   8.691  14.356   4.422  0.0492 -0.0013 -0.0786
 8088W        W23897   7.004   2.331  11.955  0.6097  0.0647 -0.2600
 8089W        W23898   5.865  13.662  13.958  0.0716 -0.0183  0.2562
 8090W        W23899   1.402  18.125   1.299 -0.1665  0.0145 -0.3466
 8091W        W23900   1.668   8.053  13.594  0.0177 -0.2666  0.0077
 8092W        W23901   4.188  18.744   2.139  0.1751 -0.2664 -0.0523
 8093W        W23902   9.394  15.231  13.560  0.0784 -0.0158  0.0594
 8094W        W23903   2.240  13.814  12.108  0.2056 -0.4375  0.0840
 8095W        W23904   5.049  11.991   2.776 -0.1068 -0.0017  0.3643
 8096W        W23905  11.493  12.411   0.060  0.1759  0.4148 -0.3715
 8097W        W23906   1.017   9.837  11.753  0.0493  0.2029  0.0069
 8098W        W23907  15.950  13.928   4.091 -0.0142  0.0550 -0.3190
 8099W        W23908  13.078  16.193   3.466  0.1127 -0.1758  0.1604
 8100W        W23909   8.669   9.969  12.491  0.0695  0.3273 -0.0809
 8101W        W23910  14.495   4.259  14.853  0.0693 -0.1965 -0.2465
 8102W        W23911  14.615  14.438   3.755 -0.0156 -0.0814  0.0649
 8103W        W23912   8.220   3.289   3.728 -0.3678 -0.1366  0.1281
 8104W        W23913  19.124   7.441   4.674  0.4684 -0.0247  0.0163
 8105W        W23914   0.337  11.161   2.234 -0.0665 -0.0534  0.0754
 8106W        W23915  12.980   0.560  13.390 -0.1095 -0.0839 -0.3565
 8107W        W23916   3.274  10.075  10.873  0.0444  0.1152  0.0649
 8108W        W23917  11.784  15.610   2.002 -0.2757 -0.1480 -0.1030
 8109W        W23918  15.517  13.111  13.476  0.0785  0.3248  0.1068
 8110W        W23919   7.346   3.531  12.718  0.1345  0.2171 -0.1873
 8111W        W23920   1.606   6.033   5.185  0.0376 -0.1172 -0.1690
 8112W        W23921   4.091   9.955  13.231  0.2433 -0.0518 -0.2298
 8113W        W23922  16.118  12.979   1.413 -0.1653  0.2908 -0.2711
 8114W        W23923   8.275  10.553  10.938  0.2217 -0.3224  0.1286
 8115W        W23924  16.007   8.990   1.789  0.1221 -0.0761  0.1120
 8116W        W23925  15.641  15.264   2.922  0.0113  0.1715 -0.0738
 8117W        W23926   2.899  15.051  14.841 -0.3621 -0.0404 -0.0746
 8118W        W23927   7.321  12.934   0.257 -0.1850 -0.3918 -0.0832
 8119W        W23928  14.905  15.359   0.115 -0.0912  0.0675 -0.0119
 8120W        W23929  11.546   0.687  14.527  0.0241 -0.0376  0.0212
 8121W        W23930   3.661   7.641   3.493 -0.0147 -0.0979  0.1812
 8122W        W23931   4.410  17.794   3.363  0.0678  0.1841  0.2160
 8123W        W23932  13.516   7.809   3.143 -0.0824 -0.0834  0.1460
 8124W        W23933  18.994   7.681  13.457  0.1242 -0.1695 -0.2245
 8125W        W23934   3.645   2.949   4.542 -0.2341 -0.1574  0.1971
 8126W        W23935  14.568  12.878  11.767  0.0568  0.0040  0.1175
 8127W        W23936   8.549   4.078  13.404  0.1764 -0.0934  0.4270
 8128W        W23937   9.057   5.909   4.316  0.2485  0.0240  0.1368
 8129W        W23938  14.816   3.019   3.619 -0.1446 -0.1773 -0.0745
 8130W        W23939   9.197   1.029  12.625 -0.2119 -0.1640  0.1881
 8131W        W23940  15.079   3.141   2.696  0.0785  0.0322 -0.1004
 8132W        W23941  14.636   0.437  10.906 -0.0231  0.0810 -0.4475
 8133W        W23942   3.175  10.405  13.958 -0.2500  0.0966 -0.0022
 8134W        W23943  17.934  15.280  13.326  0.0091  0.0449  0.0006
 8135W        W23944   6.115  14.026   0.004 -0.0369  0.2504  0.1302
 8136W        W23945   8.283  15.354   3.808  0.1622  0.1082  0.0913
 8137W        W23946  13.991  14.681   1.601  0.2235  0.2367  0.1267
 8138W        W23947   2.779  12.674   2.544  0.1251  0.0785 -0.1219
 8139W        W23948   4.895   7.087   1.761 -0.0023  0.0157 -0.4107
 8140W        W23949   0.522  17.041  12.857 -0.2061 -0.1398  0.0410
 8141W        W23950   6.389   2.251  10.841 -0.4244 -0.1756 -0.1156
 8142W        W23951  17.564   6.683  13.855  0.0263  0.2639 -0.2789
 8143W        W23952   9.862   9.773   1.648 -0.2692 -0.0803  0.2953
 8144W        W23953  10.059   5.637   0.436  0.1944 -0.1077  0.0904
 8145W        W23954   9.793  13.118   4.037 -0.1649  0.3031 -0.2348
 8146W        W23955   4.185   6.496   3.120 -0.1233 -0.3614 -0.0101
 8147W        W23956  11.595  12.272   4.415 -0.1146 -0.2264  0.0322
 8148W        W23957   2.723  18.667  10.013 -0.0467  0.0315 -0.2080
 8149W        W23958   2.937   2.790   2.036  0.0288  0.0276 -0.3063
 8150W        W23959  16.771   8.521   1.991  0.3901  0.1482  0.0637
 8151W        W23960  17.647   5.795   1.750 -0.3747  0.0772 -0.0372
 8152W        W23961  15.188  12.622   4.483 -0.0210  0.2807 -0.1066
 8153W        W23962   5.090   6.725  12.089 -0.1660  0.2634 -0.2060
 8154W        W23963   8.023   0.550   0.146 -0.2512 -0.2147  0.0880
 8155W        W23964  12.135  17.885   2.582 -0.1993  0.1045 -0.1640
 8156W        W23965   6.062   1.973  12.771 -0.2055 -0.0060 -0.0795
 8157W        W23966   5.801   0.534   1.244  0.0777  0.1562 -0.0098
 8158W        W23967   8.364   7.333   1.200  0.1659 -0.0476  0.1634
 8159W        W23968   5.910   1.846  13.275  0.0160  0.1565 -0.0822
 8160W        W23969   3.343  11.951   5.008  0.0101  0.2929  0.0875
 8161W        W23970   3.993   6.630   4.111  0.0694  0.1145 -0.2921
 8162W        W23971   6.774   6.239  14.423 -0.2735 -0.1370  0.3418
 8163W        W23972  14.612  13.374   2.938 -0.0684  0.3621 -0.1000
 8164W        W23973   9.351  14.809  13.215 -0.2095  0.0031 -0.0873
 8165W        W23974   3.863   0.527   2.410  0.0933  0.0052 -0.0078
 8166W        W23975  16.258  13.323  14.751  0.4390 -0.2103 -0.1908
 8167W        W23976  10.483  10.916  11.433 -0.1538 -0.2624  0.1364
 8168W        W23977  14.953   5.000   0.721  0.2838  0.1683 -0.0791
 8169W        W23978   1.666  16.315  10.452  0.0744 -0.1021  0.1624
 8170W        W23979   2.740   3.628  10.677 -0.0149 -0.1035  0.1947
 8171W        W23980   6.217   8.178  15.163  0.1466 -0.0479 -0.1901
 8172W        W23981  18.263  15.273  12.341  0.0785 -0.2877  0.1296
 8173W        W23982  14.200   7.937  10.816 -0.0243 -0.0981  0.2447
 8174W        W23983  17.857  13.841  14.146 -0.1831  0.1830 -0.1651
 8175W        W23984   3.867   2.157   2.346 -0.0524  0.0120 -0.1326
 8176W        W23985  15.247   2.913  14.391  0.2097  0.0704 -0.1149
 8177W        W23986  12.124   7.725   1.764 -0.0340 -0.0385 -0.1753
 8178W        W23987   6.804  11.534  11.821  0.1650 -0.0892 -0.0777
 8179W        W23988   6.717   3.397  14.498 -0.2545 -0.0724  0.4447
 8180W        W23989   0.891   6.605   5.562  0.0659 -0.0424 -0.1066
 8181W        W23990  17.862   1.795  12.328 -0.2177  0.0403 -0.1253
 8182W        W23991   4.110  16.101  12.812 -0.1321  0.4808 -0.3163
 8183W        W23992  14.501   8.079  12.215 -0.3718 -0.1955  0.0166
 8184W        W23993  14.261   6.248   9.521  0.1609  0.3601  0.1636
 8185W        W23994  10.653   4.176   2.558  0.0684 -0.1006 -0.0338
 8186W        W23995   4.760  13.979   1.289 -0.5140 -0.0740  0.2611
 8187W        W23996   3.970   4.008   2.230  0.0730 -0.1809 -0.0390
 8188W        W23997   5.287   9.048  11.612  0.1981 -0.0659  0.2568
 8189W        W23998  12.788   1.040  12.418  0.3625  0.0163 -0.0462
 8190W        W23999   4.036  10.185  14.129  0.3200 -0.0233  0.0416
 8191W        W24000  16.038   6.360   1.517 -0.2103  0.3290  0.3032
 8192W        W24001   3.112  15.523   1.902  0.2529  0.0545 -0.0426
 8193W        W24002  17.687  12.076   0.763 -0.4882  0.3255 -0.1500
 8194W        W24003   1.381  17.800   3.071 -0.0743 -0.1139  0.1023
 8195W        W24004  16.708   3.233  12.320  0.0619 -0.0677 -0.2916
 8196W        W24005   2.403  16.746  11.586 -0.2968 -0.0315  0.0427
 8197W        W24006  18.944   5.775  11.578 -0.2555 -0.0968 -0.1782
 8198W        W24007  13.464  14.814  11.074  0.0659  0.0064 -0.0158
 8199W        W24008  11.587  14.365   0.057  0.0253 -0.1238  0.1445
 8200W        W24009   0.759   3.278   3.126 -0.0909  0.2174 -0.2800
 8201W        W24010  17.689  18.953   5.024 -0.2336  0.0948 -0.1078
 8202W        W24011  13.500  14.865  13.368  0.1115  0.3790 -0.1738
 8203W        W24012  11.836   7.626  11.115 -0.1359 -0.0923  0.0427
 8204W        W24013  13.937  10.396   4.656  0.0252 -0.0678 -0.4085
 8205W        W24014  15.506   1.124  11.875  0.0079 -0.5420 -0.1543
 8206W        W24015  14.270  18.498   4.764 -0.0846  0.0936 -0.2444
 8207W        W24016  16.783   3.681   2.489  0.0410 -0.0239  0.2244
 8208W        W24017   3.833  11.136  11.087 -0.5135 -0.0286  0.3157
 8209W        W24018   2.055   0.066   4.917  0.2205 -0.0791 -0.1173
 8210W        W24019   9.394  16.948  14.846  0.0227 -0.0541  0.0178
 8211W        W24020  18.502   6.591   2.425 -0.0620 -0.1274  0.0162
 8212W        W24021  13.636   0.652   1.774  0.2363  0.2262 -0.0964
 8213W        W24022   3.118  17.999   2.266 -0.4438 -0.0871  0.1065
 8214W        W24023   0.756  18.998   0.291  0.0050  0.1765  0.0084
 8215W        W24024   0.094  12.924   5.205 -0.0008  0.1462  0.2056
 8216W        W24025   2.000  12.112  14.675 -0.1710 -0.2051 -0.2043
 8217W        W24026   3.031   5.199   1.601  0.0513  0.2063  0.1127
 8218W        W24027   6.696  18.953  15.181 -0.2184  0.3583 -0.1033
 8219W        W24028  15.251  15.175   1.855  0.2470  0.0192 -0.0545
 8220W        W24029   9.533   8.277  14.418  0.3175 -0.0708  0.3772
 8221W        W24030  14.685   4.407  13.823 -0.1807  0.2336  0.0361
 8222W        W24031  18.351  12.753   4.279  0.0885  0.0288 -0.0552
 8223W        W24032   3.813  18.667   5.077  0.1065 -0.0038  0.1729
 8224W        W24033  18.039   0.575  11.828 -0.0937 -0.7206  0.1579
 8225W        W24034   5.771   1.289  13.669  0.3267 -0.0120 -0.0921
 8226W        W24035   1.003  13.056  13.283  0.1210 -0.3180  0.0363
 8227W        W24036  17.856   9.190  14.059  0.2477 -0.2710 -0.1606
 8228W        W24037  16.998   7.271  12.353  0.0770 -0.0685 -0.0104
 8229W        W24038   5.116   4.345   3.559 -0.0795  0.1105  0.2017
 8230W        W24039   7.861   6.071  14.736  0.0602  0.0116 -0.0846
 8231W        W24040  15.165   2.107  13.093  0.0381  0.1187 -0.3020
 8232W        W24041   2.788   2.162  13.414  0.1935 -0.1147  0.1155
 8233W        W24042   6.185   4.697   2.847 -0.2227  0.1342 -0.4578
 8234W        W24043  15.823  10.761  14.545  0.0119  0.1890  0.2198
 8235W        W24044  17.313  13.469  10.455  0.0709  0.2102 -0.2488
 8236W        W24045   4.618  14.488   5.090 -0.2285 -0.0291 -0.1349
 8237W        W24046  18.746   8.818   5.278 -0.1536  0.1241  0.2164
 8238W        W24047  16.156  15.907   5.478  0.2639  0.1814 -0.4289
 8239W        W24048  15.331   6.329   2.321  0.1843  0.2404  0.0562
 8240W        W24049   2.534   8.606  11.804 -0.2758  0.6261 -0.1324
 8241W        W24050  15.883  15.903  14.501  0.1528  0.1168 -0.1782
 8242W        W24051   9.423  14.527   3.087  0.1982  0.1830  0.1094
 8243W        W24052  12.159   4.358   4.130  0.3002 -0.0523 -0.0146
 8244W        W24053  17.354  12.663  13.543 -0.1307 -0.0344 -0.0602
 8245W        W24054  11.505   8.359  14.276  0.1316 -0.0592  0.1853
 8246W        W24055  18.242  18.075  11.076  0.0993  0.3344 -0.2168
 8247W        W24056   3.250   9.217   0.112  0.1748  0.1577 -0.2186
 8248W        W24057  12.537  14.176   3.656  0.5556 -0.1238 -0.2808
 8249W        W24058   5.539  18.849  14.596  0.1451 -0.0977  0.1532
 8250W        W24059  16.322  16.805   1.237  0.0471  0.1025  0.0317
 8251W        W24060   3.426   5.550  12.201 -0.4642  0.1916 -0.1319
 8252W        W24061   1.141   6.332   1.931 -0.2121 -0.2462 -0.0141
 8253W        W24062   9.363  15.249  13.020  0.0645 -0.2660  0.1127
 8254W        W24063   3.908   4.152  14.005  0.1977  0.1241  0.0527
 8255W        W24064   3.677   4.267   3.614  0.0085  0.0189 -0.1571
 8256W        W24065   1.280  11.446  12.626 -0.1815 -0.1176  0.2005
 8257W        W24066   1.109  11.485  14.764  0.4051 -0.1774  0.0694
 8258W        W24067   5.776   6.815   3.613 -0.3023 -0.3113  0.1527
 8259W        W24068  17.291   3.439   0.899  0.0279 -0.0154 -0.3889
 8260W        W24069   7.650  16.368   0.333 -0.0178  0.2633  0.4058
 8261W        W24070  10.876   6.648  14.179 -0.1501  0.1639  0.0765
 8262W        W24071  16.486  13.270   3.235 -0.0598  0.1240  0.1789
 8263W        W24072  10.737  10.011  13.365 -0.0105 -0.1179 -0.0374
 8264W        W24073   3.382   9.380   5.740  0.1117 -0.1376  0.0611
 8265W        W24074   5.422  15.238  14.451  0.1224 -0.0556 -0.0903
 8266W        W24075   9.308  14.830   4.825 -0.0229 -0.1259 -0.6111
 8267W        W24076   9.357   1.152  14.990 -0.0509  0.2478  0.1879
 8268W        W24077   1.830   3.260  10.649 -0.0232  0.0124  0.1908
 8269W        W24078   6.374   1.976   2.858  0.1188 -0.0805  0.3096
 8270W        W24079   7.682  16.103   3.618 -0.1074  0.0972  0.1760
 8271W        W24080   0.579   5.414   0.622  0.1557 -0.0308  0.0076
 8272W        W24081  12.914  11.750   0.341 -0.1269 -0.1858  0.1126
 8273W        W24082  11.866   1.098  13.598  0.0275  0.2208  0.0233
 8274W        W24083   7.407   6.278  11.190 -0.1878 -0.0180  0.0596
 8275W        W24084   4.241  15.796  14.012 -0.1678  0.1302 -0.0093
 8276W        W24085   9.509   3.184   2.481 -0.4801 -0.1453  0.0244
 8277W        W24086   7.887   9.038  14.116  0.0720  0.1563 -0.1293
 8278W        W24087   8.632   0.681   9.992 -0.2387 -0.1719 -0.0215
 8279W        W24088   3.837  18.839   4.184 -0.2092 -0.1524  0.2813
 8280W        W24089  12.931  10.052   5.153 -0.0831 -0.2888  0.0457
 8281W        W24090   9.367  10.644  11.795  0.0013  0.0163  0.0297
 8282W        W24091   5.482   0.711  14.549 -0.2717 -0.0597 -0.4544
 8283W        W24092   9.242  10.304   3.709  0.1320  0.0262  0.0128
 8284W        W24093  19.118  13.395   2.499  0.2709 -0.1855  0.0055
 8285W        W24094  12.921  17.809  10.397  0.0736 -0.0469  0.1422
 8286W        W24095  11.487  18.153   0.002 -0.1807 -0.1290  0.1490
 8287W        W24096   3.756   6.788  13.912  0.2811  0.0548 -0.2042
 8288W        W24097   6.741  11.704   2.615 -0.2902 -0.1079 -0.0684
 8289W        W24098  12.865   2.965  10.236  0.1747 -0.1768 -0.0297
 8290W        W24099  12.054  16.795   2.435  0.3387  0.1372  0.2200
 8291W        W24100   0.122   3.513   3.419  0.1893  0.3534  0.0120
 8292W        W24101  15.441  12.216   2.571 -0.0284  0.0801  0.1231
 8293W        W24102   1.357   3.064  10.629  0.2863  0.1801 -0.2215
 8294W        W24103  17.858   5.727  10.940  0.0769 -0.1746 -0.2778
 8295W        W24104  12.254  17.482   4.417 -0.0446  0.2106  0.3801
 8296W        W24105  17.964   8.981   4.649 -0.1254  0.1050 -0.1181
 8297W        W24106   9.483  12.400   9.574 -0.0341  0.0793 -0.0124
 8298W        W24107  11.291   4.640  12.268  0.3322  0.4562 -0.0174
 8299W        W24108   9.322  17.495   3.613 -0.1552  0.0399 -0.1379
 8300W        W24109   7.790  18.558   5.164 -0.1005 -0.1489 -0.3783
 8301W        W24110   9.822   4.227   3.128 -0.0776 -0.3725  0.0924
 8302W        W24111  11.533   3.841  12.792  0.2115  0.2878 -0.1318
 8303W        W24112  13.185  18.969   5.409 -0.0787  0.2173  0.2935
 8304W        W24113   4.950  11.837   3.269  0.2027 -0.2419 -0.0570
 8305W        W24114  16.983   8.486   5.128 -0.2284  0.0358  0.1468
 8306W        W24115  12.110   0.593   1.302 -0.2819 -0.0053  0.2463
 8307W        W24116  11.158   2.508  12.186 -0.0890  0.0163 -0.2944
 8308W        W24117  16.287   3.235  11.234 -0.0158 -0.2378  0.2818
 8309W        W24118   0.467   9.861   0.355 -0.1692 -0.0415 -0.2948
 8310W        W24119   3.653   7.231  13.720 -0.0925 -0.0481 -0.0235
 8311W        W24120   9.220   0.991   2.963  0.4660  0.0536  0.1653
 8312W        W24121  17.617   7.971  13.286 -0.1724  0.0275 -0.0036
 8313W        W24122   6.487  11.259  13.970  0.2832 -0.1755  0.1398
 8314W        W24123   0.035   5.382  14.679 -0.0209  0.2049  0.3083
 8315W        W24124   7.601   4.500  11.939  0.3365  0.2377 -0.3350
 8316W        W24125  17.442   4.711  10.415 -0.1048  0.2766 -0.2971
 8317W        W24126   5.929  13.444  13.371 -0.2812  0.1194  0.0894
 8318W        W24127  14.723  16.258  11.003 -0.2289  0.1684  0.2427
 8319W        W24128   7.010   4.486  11.086 -0.2028  0.1540  0.0935
 8320W        W24129  16.805   7.105  12.915  0.2082  0.0393  0.2857
 8321W        W24130   9.509   9.622   2.079  0.0667  0.1733  0.1779
 8322W        W24131   2.411   6.673   5.639  0.2198  0.0100  0.1471
 8323W        W24132   8.959  14.726  13.465  0.2120  0.1466 -0.2615
 8324W        W24133   8.761   0.375   3.018 -0.1412 -0.0002  0.0945
 8325W        W24134   1.718  17.720   3.879 -0.0431  0.1758 -0.2357
 8326W        W24135   7.773  15.338  12.205  0.0494 -0.2240  0.1907
 8327W        W24136   2.710  17.312   1.618  0.0836  0.2692 -0.1793
 8328W        W24137   3.727   4.594  13.234  0.2209  0.1547 -0.1233
 8329W        W24138  15.093   8.751   2.075 -0.2144  0.0199  0.0114
 8330W        W24139   1.267   3.124   3.246  0.2626  0.1296  0.0359
 8331W        W24140  18.746   9.519  12.354 -0.0083 -0.1007 -0.2119
 8332W        W24141   4.953  15.653  13.148  0.2231 -0.0147  0.2255
 8333W        W24142   1.095  18.067  12.763 -0.0168  0.0140 -0.2616
 8334W        W24143  11.315   9.558   6.072 -0.4968 -0.0157 -0.1734
 8335W        W24144   0.260   4.400  14.616 -0.4019  0.1452  0.0041
 8336W        W24145  11.701   9.270   4.808 -0.3306  0.2136  0.1613
 8337W        W24146  16.193  16.326  13.920  0.0231 -0.0196 -0.0002
 8338W        W24147   5.634  14.758  14.367 -0.4551  0.2764  0.2251
 8339W        W24148   5.942   8.999   0.799  0.2468 -0.1276  0.1219
 8340W        W24149   8.897  12.063  12.077  0.2199 -0.1255 -0.0211
 8341W        W24150   2.686  17.900   2.967 -0.2410  0.3406 -0.2632
 8342W        W24151  14.199  14.634   4.672  0.1928 -0.0625  0.1661
 8343W        W24152   3.426  18.479   4.160 -0.0785  0.0936 -0.2482
 8344W        W24153   2.913   3.022   1.058  0.0787  0.1831 -0.1181
 8345W        W24154   2.063   3.143  10.177  0.0554 -0.0423 -0.0460
 8346W        W24155  12.378   5.135   3.433 -0.1363  0.1556 -0.2713
 8347W        W24156  11.758   5.139   5.173  0.0654  0.1335 -0.1855
 8348W        W24157   3.605   1.938  15.092 -0.3441  0.0667  0.4101
 8349W        W24158  16.455  16.172   3.379  0.1100  0.0156 -0.0205
 8350W        W24159   0.474   0.950   5.557  0.0704 -0.3134 -0.1021
 8351W        W24160  11.916  18.324   0.935  0.0377  0.0902 -0.1875
 8352W        W24161  10.171  15.624  14.844 -0.0365  0.0785  0.0185
 8353W        W24162   5.215   8.899   2.991 -0.0712  0.3507 -0.0308
 8354W        W24163  15.433   8.970  10.176  0.3321  0.0011  0.0995
 8355W        W24164  17.155   7.334  14.681 -0.0705 -0.1675 -0.3770
 8356W        W24165  13.814   2.720   2.223 -0.0233  0.1383  0.3234
 8357W        W24166   3.744   2.773   0.420 -0.3882 -0.2455 -0.0631
 8358W        W24167   1.746  14.786  12.775 -0.2469 -0.3619 -0.2834
 8359W        W24168  12.477  15.290   0.577  0.1643  0.2318 -0.1123
 8360W        W24169   0.920   9.894  13.703  0.0956 -0.1736 -0.0603
 8361W        W24170  17.072   7.553  14.188  0.0157 -0.2453  0.1347
 8362W        W24171   3.044  13.631   3.275  0.0979 -0.3861 -0.0403
 8363W        W24172   4.260   0.337  10.136 -0.0866  0.1172  0.0572
 8364W        W24173   1.951   3.082   2.637 -0.1453 -0.0963 -0.0712
 8365W        W24174   0.926  15.942  10.941 -0.0145 -0.0389 -0.1131
 8366W        W24175   9.096  10.403   3.195  0.4038 -0.1117  0.0763
 8367W        W24176  12.017   1.240  13.003  0.2356  0.2124  0.1117
 8368W        W24177   4.768  11.853  12.193 -0.0890  0.0951 -0.3599
 8369W        W24178   2.436   8.328   3.477 -0.1526 -0.2207 -0.0387
 8370W        W24179  12.901   4.964  11.535  0.1629  0.0277  0.0064
 8371W        W24180  12.926   4.767   3.497  0.0791 -0.0327  0.3667
 8372W        W24181   8.838  10.583   1.843 -0.1132 -0.1448 -0.1739
 8373W        W24182   6.118  11.102  10.345 -0.2448  0.0744  0.0060
 8374W        W24183   3.638   0.502  11.199  0.0591  0.0387 -0.3467
 8375W        W24184  17.321   3.444   9.985 -0.2332  0.2138 -0.0908
 8376W        W24185   1.869  12.083   1.911  0.0969 -0.0132 -0.1546
 8377W        W24186   5.018   3.948  12.148  0.0265 -0.1325  0.1048
 8378W        W24187  14.365   5.689   1.331 -0.2390 -0.0839 -0.1060
 8379W        W24188   2.035   8.212   4.527 -0.0147 -0.1677 -0.0320
 8380W        W24189   8.278   6.049  10.911 -0.0164 -0.0595  0.2219
 8381W        W24190   9.592   8.598   1.162 -0.2137 -0.3033 -0.3196
 8382W        W24191  11.012  10.773   2.081 -0.2283 -0.2981 -0.0369
 8383W        W24192  14.419  13.134  14.780 -0.1291 -0.0179  0.2037
 8384W        W24193  15.155   8.768  12.384  0.2166  0.2632 -0.2086
 8385W        W24194  16.923   6.494   3.764 -0.4173  0.0597  0.2148
 8386W        W24195  12.255   4.469  11.020 -0.2866 -0.3582 -0.0402
 8387W        W24196   1.820   1.687   0.831  0.1826  0.1905 -0.2138
 8388W        W24197  14.261  11.249  12.179  0.2600  0.1839 -0.0434
 8389W        W24198   1.497   6.413  13.060 -0.2873  0.0883  0.0989
 8390W        W24199   7.340   5.965   3.930 -0.0465  0.2078 -0.0770
 8391W        W24200  13.783  14.769  14.783  0.2512  0.1093  0.0951
 8392W        W24201   5.866  18.824   8.723  0.0812 -0.2520  0.0234
 8393W        W24202   7.648   3.331  14.122  0.2629 -0.2314  0.0096
 8394W        W24203   7.159  14.652   3.871  0.1358 -0.1158 -0.1056
 8395W        W24204  17.087   2.215  10.386 -0.1082 -0.1826  0.2067
 8396W        W24205   5.176   4.136  12.622  0.2594  0.1746 -0.1199
 8397W        W24206  10.681   3.365  13.069  0.2111  0.1112 -0.0813
 8398W        W24207   1.819  16.103   0.266 -0.1512  0.0604 -0.1527
 8399W        W24208   7.632   3.503   0.694  0.1919  0.0315 -0.0920
 8400W        W24209  14.428   5.922  12.740 -0.1109  0.2506 -0.2827
 8401W        W24210   6.367  13.492   3.379 -0.2479  0.2071 -0.3929
 8402W        W24211   3.221  18.163  11.583  0.0357 -0.0573  0.0495
 8403W        W24212  15.895  10.008  11.215 -0.0995 -0.1322 -0.3555
 8404W        W24213   8.108   6.530  14.399  0.2400  0.1594  0.1531
 8405W        W24214   9.276   0.813   0.131 -0.1340 -0.0733  0.1078
 8406W        W24215   4.098   2.528   0.819 -0.2197 -0.1846  0.0040
 8407W        W24216   5.770  15.599  11.261 -0.0977 -0.1368  0.1837
 8408W        W24217   1.867  14.533   0.036 -0.0939 -0.2879  0.2443
 8409W        W24218   1.323   3.982   0.323  0.1306  0.0550  0.1990
 8410W        W24219   4.301  15.901   3.255 -0.1238 -0.3977  0.2828
 8411W        W24220   6.110  17.587   3.634 -0.2894  0.0146 -0.1072
 8412W        W24221  11.636  11.848   1.068  0.1930  0.0017  0.2814
 8413W        W24222  16.668   7.733  12.170  0.1903  0.1362 -0.0112
 8414W        W24223  11.975   0.139   0.953 -0.2831 -0.0934  0.1164
 8415W        W24224   8.578   6.055   4.508 -0.1588 -0.0895  0.0781
 8416W        W24225  13.074   1.151   1.973 -0.2516 -0.1765 -0.2403
 8417W        W24226   4.927   1.036  10.094  0.3066  0.1200  0.3319
 8418W        W24227  15.498  19.040   2.610 -0.1066 -0.0011  0.1516
 8419W        W24228   8.791   5.267   3.204 -0.2007 -0.0011 -0.0283
 8420W        W24229  14.055  18.748  15.148  0.2078  0.1944 -0.1297
 8421W        W24230  19.003  16.942  14.266 -0.0329  0.0900  0.2223
 8422W        W24231  17.252  14.792   0.761  0.2443 -0.2060 -0.0560
 8423W        W24232   7.756   8.108   2.140 -0.0510 -0.3399 -0.1352
 8424W        W24233  18.957   4.392   1.779 -0.1730 -0.0949  0.0373
 8425W        W24234  15.867   2.885  12.631  0.2060  0.2107 -0.0208
 8426W        W24235  11.068  16.620  12.127 -0.1322  0.1539 -0.2592
 8427W        W24236  16.990  18.723   0.131  0.0836  0.1840  0.3688
 8428W        W24237  12.843  19.008   2.306 -0.3365  0.3723 -0.1248
 8429W        W24238   4.314  15.670  15.207  0.0727  0.0318 -0.4170
 8430W        W24239  16.017   1.313   9.639  0.1153 -0.5683 -0.0180
 8431W        W24240  14.726  14.361  14.336  0.0783 -0.2166 -0.0710
 8432W        W24241  17.991  15.705   1.240  0.0803 -0.1751 -0.0525
 8433W        W24242  15.913   4.651  15.030 -0.0182 -0.2979 -0.1028
 8434W        W24243   3.016  11.825   5.679  0.0697 -0.1618 -0.0082
 8435W        W24244  17.747  13.501   4.607 -0.2716 -0.0132  0.0044
 8436W        W24245  16.086   3.334   3.273 -0.4307  0.1541 -0.0473
 8437W        W24246  16.360   2.877  14.416  0.1381  0.3443 -0.0006
 8438W        W24247   4.031  11.259  12.498 -0.1294 -0.0460 -0.2219
 8439W        W24248  11.231  14.607  13.128  0.2917  0.1456  0.0360
 8440W        W24249   1.385  15.873  13.176 -0.2947  0.0200  0.0746
 8441W        W24250  10.128   2.103  10.304 -0.1669 -0.1118  0.3873
 8442W        W24251   2.755   3.619   1.782  0.4340 -0.1984  0.2895
 8443W        W24252  16.977  16.937   2.947 -0.0071  0.1232 -0.1832
 8444W        W24253   2.643   6.207  13.138  0.3919  0.0289 -0.2709
 8445W        W24254   9.007  18.630  15.021  0.1318 -0.0015  0.1082
 8446W        W24255  16.745   9.635   0.652  0.0652 -0.0957 -0.3289
 8447W        W24256  13.030  11.329   0.539 -0.0970 -0.2922  0.1606
 8448W        W24257   5.991   3.672   2.252 -0.0818  0.0273  0.0971
 8449W        W24258   4.379   3.121  12.016 -0.3763  0.0451 -0.1811
 8450W        W24259   3.389  15.187   0.167 -0.3138 -0.1502 -0.1488
 8451W        W24260   0.484  18.087   3.672 -0.0651  0.1544  0.0883
 8452W        W24261   6.202  12.951   6.061 -0.0521  0.0972 -0.1440
 8453W        W24262  17.622   9.346   3.758  0.4063 -0.0906 -0.0677
 8454W        W24263  15.202   1.069   4.035 -0.5550 -0.2036  0.0756
 8455W        W24264  19.002  11.416   3.721  0.0878  0.0267 -0.0386
 8456W        W24265   7.750   9.852  11.292  0.4185  0.0040  0.5796
 8457W        W24266  17.521   7.771   2.121 -0.2895  0.1806  0.0872
 8458W        W24267   5.126  18.634  14.571 -0.0407  0.0897 -0.2114
 8459W        W24268   6.262  15.597  12.691 -0.0556 -0.0540  0.0694
 8460W        W24269   1.052   1.647   1.607  0.3812 -0.3075  0.1719
 8461W        W24270   0.790   7.562   4.632 -0.2844 -0.2238  0.0101
 8462W        W24271  11.943  11.811  13.000  0.2038 -0.1371  0.3053
 8463W        W24272  11.436  10.313   2.882 -0.3462 -0.0616  0.3434
 8464W        W24273  13.915  17.075   0.733  0.2530 -0.0450  0.1304
 8465W        W24274  13.332  13.192   3.266  0.1599  0.0671  0.1452
 8466W        W24275   5.836   6.941   1.538  0.1358  0.0809  0.1805
 8467W        W24276   3.804   7.864   0.502 -0.1683 -0.1922  0.2860
 8468W        W24277   7.552   5.105   2.705 -0.1685  0.0303 -0.0852
 8469W        W24278   1.384  18.910   4.333  0.3047 -0.2219 -0.0053
 8470W        W24279   1.060   3.286   4.561  0.0480  0.1824 -0.3872
 8471W        W24280   7.051   2.585  13.561 -0.1514 -0.2220  0.1299
 8472W        W24281   0.274  14.003   1.103 -0.0095 -0.2600 -0.0915
 8473W        W24282   2.511  18.134  11.522  0.0131 -0.1496  0.1335
 8474W        W24283  15.475   0.229  13.176  0.2421 -0.0100 -0.1665
 8475W        W24284   1.794   3.082  14.003  0.1123  0.2078  0.2853
 8476W        W24285  17.194   6.187  14.552 -0.0123 -0.1242 -0.4861
 8477W        W24286  14.836  15.033   4.601  0.3749 -0.2968  0.2518
 8478W        W24287  12.681   3.139   4.453 -0.0265 -0.1335  0.0165
 8479W        W24288   0.234  16.731   1.304 -0.1743  0.0803  0.3245
 8480W        W24289   4.844   9.065   1.970  0.2887  0.2536 -0.2058
 8481W        W24290  12.896  19.105  12.119 -0.1729 -0.0367  0.1815
 8482W        W24291  16.412  16.486  13.498  0.2159 -0.3029  0.2567
 8483W        W24292   4.304   0.350  14.337 -0.0718 -0.0566  0.1109
 8484W        W24293  10.021   8.455   2.539  0.1466 -0.2992  0.1248
 8485W        W24294   8.647  10.558  12.478  0.2447 -0.0839  0.1816
 8486W        W24295  12.123   7.139   1.745 -0.0257 -0.2399  0.0763
 8487W        W24296   8.282   6.574  13.351  0.0793 -0.1543  0.0050
 8488W        W24297   7.821   8.595   4.260  0.2667 -0.1256  0.1751
 8489W        W24298   0.215  11.135   1.722  0.1311 -0.3010 -0.1436
 8490W        W24299   7.533  16.117  10.768 -0.1495 -0.1123 -0.5511
 8491W        W24300  15.849  11.048   4.267 -0.0069 -0.0513 -0.1586
 8492W        W24301  11.245   1.739  10.926 -0.0854 -0.0032  0.1451
 8493W        W24302  11.508   0.755   1.462  0.0957 -0.3263  0.1246
 8494W        W24303   6.198   1.637   1.793 -0.3402  0.3562  0.0532
 8495W        W24304   8.583   4.252   0.232 -0.0118  0.2627 -0.1878
 8496W        W24305  12.506   9.427   2.437  0.2009 -0.1099  0.0023
 8497W        W24306   6.789  15.653   1.352  0.2396  0.0473 -0.4256
 8498W        W24307   9.852  18.396   1.200  0.1810  0.0852 -0.1383
 8499W        W24308  10.874  14.557   1.419  0.0535  0.2578 -0.1924
 8500W        W24309  16.842   5.915  15.127 -0.2195 -0.2114  0.3611
 8501W        W24310   0.918   3.637  10.588  0.1826  0.3555  0.0372
 8502W        W24311  18.034  19.060   2.904  0.1504 -0.0325  0.1656
 8503W        W24312   3.853   3.563   3.388 -0.7346 -0.0333  0.0361
 8504W        W24313   7.577   8.968   2.116 -0.0688 -0.2707  0.1506
 8505W        W24314   0.506  15.212   0.292  0.0775 -0.0658  0.2775
 8506W        W24315  18.116   2.867  12.415 -0.1120  0.1586 -0.0281
 8507W        W24316   3.944   3.293  11.692 -0.0737  0.3261 -0.2211
 8508W        W24317  18.700  16.651   4.072 -0.3266  0.1670 -0.0728
 8509W        W24318   2.214   1.373   3.257 -0.2524 -0.0813 -0.2030
 8510W        W24319   6.098   4.128  12.180 -0.0547  0.2446  0.1251
 8511W        W24320  14.000  11.364   1.922 -0.0371  0.0098 -0.0974
 8512W        W24321  13.353  17.302   5.069  0.0441  0.0505 -0.3312
 8513W        W24322   0.099  14.049   0.245 -0.1183 -0.1446  0.1324
 8514W        W24323   8.055  17.522  14.768  0.1297  0.1676 -0.2773
 8515W        W24324  10.213   5.351   1.578  0.1425 -0.3344  0.1764
 8516W        W24325  12.719  10.254   2.152 -0.1255 -0.0068 -0.1486
 8517W        W24326  12.855   3.681   4.272 -0.1661 -0.3189 -0.2796
 8518W        W24327  17.647   7.507  14.634  0.2552 -0.0379 -0.2684
 8519W        W24328  15.097  17.352  10.630  0.1371  0.0095  0.2201
 8520W        W24329   5.152   9.812   5.075  0.3849  0.1730 -0.1240
 8521W        W24330   3.295  12.851  11.130  0.0422 -0.0309 -0.2663
 8522W        W24331   7.935  10.049   4.048 -0.0270 -0.0953 -0.2204
 8523W        W24332  12.285   5.379  12.600 -0.1899 -0.3105 -0.0189
 8524W        W24333   5.432  16.886   4.498  0.2361  0.2589  0.0967
 8525W        W24334  17.234   0.654   5.388 -0.1135  0.1006 -0.0679
 8526W        W24335   5.373   5.754   3.931 -0.1063 -0.2961  0.0770
 8527W        W24336  13.281   4.915   3.846  0.1744 -0.0259 -0.0988
 8528W        W24337   7.177   6.832   0.132  0.0289  0.4308 -0.3167
 8529W        W24338   5.008   1.794   0.195  0.0658 -0.0631  0.2503
 8530W        W24339  15.484   5.026   0.685  0.1010  0.0401  0.1664
 8531W        W24340   4.175   0.226   2.683 -0.1892 -0.2414 -0.0713
 8532W        W24341   8.052   5.205   0.074 -0.1501  0.1472 -0.0931
 8533W        W24342   2.115   6.584   2.132 -0.1706  0.1300 -0.3628
 8534W        W24343   5.526  17.311   0.656 -0.1058 -0.1198  0.1114
 8535W        W24344   3.861  16.778   0.700  0.4141  0.1497 -0.3303
 8536W        W24345   1.916  16.595  11.910 -0.0381 -0.1588  0.1044
 8537W        W24346  15.507   9.603  10.980  0.5186  0.2582 -0.2216
 8538W        W24347   8.393   2.185   0.650  0.0180 -0.0177 -0.0694
 8539W        W24348  13.852   8.391   1.783 -0.3052  0.0442  0.0171
 8540W        W24349  10.842   3.587  14.156  0.1188  0.2450  0.3315
 8541W        W24350   2.951  15.905  14.733 -0.1294  0.3525  0.2647
 8542W        W24351   3.532   7.168   1.010 -0.2238 -0.0846 -0.1697
 8543W        W24352   9.181  16.835  11.317 -0.1436 -0.2199 -0.0695
 8544W        W24353   2.918  16.620  12.259 -0.1102 -0.1335 -0.0699
 8545W        W24354   9.122   6.354  13.225  0.1227 -0.1227  0.1730
 8546W        W24355  18.305   2.653  12.800 -0.3597 -0.4353 -0.1836
 8547W        W24356  14.268   2.074   4.413 -0.0311 -0.0040  0.1096
 8548W        W24357  15.071   5.735   2.604  0.1502 -0.3409 -0.0226
 8549W        W24358  17.276   0.113  14.320  0.0299  0.2231  0.0823
 8550W        W24359   6.327  17.833  13.990 -0.0363 -0.2847 -0.2875
 8551W        W24360  15.275   0.469   4.040 -0.0486  0.0672  0.1736
 8552W        W24361   0.069   8.634   5.068  0.0918  0.0718 -0.4777
 8553W        W24362  15.896  17.284  11.780  0.1512  0.2734  0.2263
 8554W        W24363  13.708  11.681   3.109 -0.0398 -0.0113  0.4779
 8555W        W24364   4.344   8.238   0.344  0.2227  0.1105  0.0415
 8556W        W24365  15.713  16.297   2.693  0.0142 -0.0401  0.0557
 8557W        W24366  16.003  11.777   2.858 -0.0093  0.0974 -0.1721
 8558W        W24367  10.811   9.877   0.735  0.1316 -0.0861 -0.1697
 8559W        W24368   9.198  12.389  14.450 -0.0003 -0.0197 -0.1835
 8560W        W24369   2.791   3.687   0.276 -0.1662 -0.0511  0.0586
 8561W        W24370   5.746   6.135   1.144 -0.1326  0.6200 -0.0261
 8562W        W24371   2.334   0.526  13.818 -0.4162  0.3095 -0.2780
 8563W        W24372  15.603   2.270  11.906  0.0902 -0.3083  0.0271
 8564W        W24373   9.703   4.224   2.217 -0.0513  0.0305 -0.3304
 8565W        W24374  17.609   4.559   4.296 -0.1016  0.1228  0.1645
 8566W        W24375  15.448   6.416   3.255 -0.3041  0.0876  0.2115
 8567W        W24376   1.281   4.157  13.531 -0.1734  0.0447 -0.0591
 8568W        W24377  11.147  13.875   0.867 -0.1814  0.0421  0.3215
 8569W        W24378   9.606  13.909  12.498  0.0799  0.0411  0.1417
 8570W        W24379   1.491  14.709   4.499 -0.2829  0.0623 -0.2360
 8571W        W24380  17.039   0.264  11.664 -0.1428  0.3818 -0.2005
 8572W        W24381  17.286  13.703  11.754 -0.2224  0.2227  0.0901
 8573W        W24382   4.504  17.179  11.109  0.1715 -0.0214  0.3955
 8574W        W24383  16.669  12.442  10.289 -0.2611  0.1610  0.1881
 8575W        W24384   4.729   9.942   2.540  0.0134 -0.1533  0.3003
 8576W        W24385   4.761  11.037  10.453 -0.0405  0.1943 -0.0730
 8577W        W24386   6.703   7.544   1.615  0.0363 -0.2978 -0.0450
 8578W        W24387  17.478   9.897  13.917  0.1690  0.0049  0.0904
 8579W        W24388   5.101  16.301   2.508  0.1672 -0.0052 -0.2545
 8580W        W24389   4.747   8.433   0.612  0.1285 -0.1893 -0.0818
 8581W        W24390   8.359  14.764   0.027  0.3728 -0.0677 -0.1391
 8582W        W24391  18.250   1.962  10.671 -0.3035 -0.4504  0.3473
 8583W        W24392   3.785  11.181  14.240 -0.0490  0.2303 -0.1610
 8584W        W24393  11.809  10.723  12.241 -0.2751  0.0020 -0.0599
 8585W        W24394   3.293   6.074  15.222 -0.1660 -0.1555  0.0485
 8586W        W24395   9.019   9.767  14.184 -0.4243  0.0587 -0.0601
 8587W        W24396   6.790   7.773  10.384  0.2010 -0.0624  0.1150
 8588W        W24397   9.689   3.404   1.967  0.0242  0.3732 -0.1633
 8589W        W24398   7.121   7.294   1.988  0.1572  0.0501  0.0521
 8590W        W24399   5.240  18.478  10.110 -0.1492  0.2203  0.2685
 8591W        W24400   9.178  14.961   4.345  0.1261  0.1484  0.0207
 8592W        W24401  13.847  11.190  11.964  0.0242  0.0834  0.3455
 8593W        W24402   2.093   8.639   0.540  0.2042  0.0223 -0.1038
 8594W        W24403  15.948  13.591   2.551  0.0352  0.2324  0.1019
 8595W        W24404   7.284  10.264  14.003  0.0585 -0.3828  0.2559
 8596W        W24405  14.480   1.288   1.662  0.2922 -0.3087 -0.0578
 8597W        W24406  12.159  15.073   5.365 -0.0076 -0.1551  0.0221
 8598W        W24407   0.140  17.007   0.387 -0.2948  0.2058  0.1397
 8599W        W24408  17.003  13.500   0.082 -0.2319  0.0235  0.0368
 8600W        W24409   4.276   8.290   1.318  0.0043  0.0078 -0.1032
 8601W        W24410   9.279   4.442  11.549  0.1157 -0.1012  0.0437
 8602W        W24411  16.821   4.334   5.208 -0.1652  0.0019  0.1454
 8603W        W24412   6.028   6.397  12.834  0.1120  0.1303  0.1321
 8604W        W24413   4.307   2.240  12.461  0.3701 -0.0177  0.2861
 8605W        W24414   9.064  18.432   3.046  0.2195  0.0802 -0.1005
 8606W        W24415  18.809  13.850  10.947 -0.1833  0.3195  0.3355
 8607W        W24416   7.039   0.366   2.100  0.1454  0.0405 -0.1245
 8608W        W24417   7.567  11.523   5.050  0.1513  0.0332 -0.0343
 8609W        W24418   8.544   6.859  12.611 -0.0198 -0.1166 -0.0339
 8610W        W24419   9.991   3.283   1.501 -0.1587 -0.3332 -0.1546
 8611W        W24420   0.889  12.159  11.089  0.0167  0.0129  0.3548
 8612W        W24421   5.031   4.492  12.078 -0.0764  0.0995  0.3052
 8613W        W24422  11.361   1.806   0.538 -0.0554 -0.4672 -0.2943
 8614W        W24423   2.692   6.731  10.398 -0.2416  0.0956  0.1714
 8615W        W24424   7.027  13.632   1.789  0.0844  0.0333 -0.2168
 8616W        W24425   5.002   1.675  14.383  0.0378 -0.1356  0.1303
 8617W        W24426   4.529   1.667  14.023  0.1443 -0.3032  0.1192
 8618W        W24427  18.637  10.836  13.815 -0.2371  0.4869 -0.0377
 8619W        W24428  11.194   3.464  14.788 -0.2604 -0.0426  0.2394
 8620W        W24429  18.556   7.146  14.208  0.1595 -0.3593  0.2949
 8621W        W24430  13.071   0.998  13.072  0.1899  0.2046 -0.2493
 8622W        W24431   4.619   6.110  11.535  0.5629 -0.0238  0.0621
 8623W        W24432   0.828  15.322   5.058  0.0691 -0.3494  0.0926
 8624W        W24433   7.608  16.409  14.518 -0.0657 -0.1004 -0.1463
 8625W        W24434   0.929  16.746  11.546  0.2031 -0.0217 -0.0763
 8626W        W24435  13.073  17.849   3.734  0.0571 -0.2046 -0.1111
 8627W        W24436   9.174   6.270  11.005 -0.1139  0.0733 -0.2144
 8628W        W24437  14.941   6.665  15.260 -0.0364 -0.3591  0.4913
 8629W        W24438  17.548   7.007   0.672 -0.1805  0.3556 -0.0415
 8630W        W24439  15.201   2.868  13.826 -0.0178 -0.1033  0.1456
 8631W        W24440   3.705   3.949   0.939  0.0534  0.0292  0.1279
 8632W        W24441   9.615  15.404   3.551  0.0781  0.1638 -0.0165
 8633W        W24442  15.160   7.656  14.478  0.1097 -0.1481 -0.1221
 8634W        W24443  10.987  15.392   1.870 -0.1665 -0.1215 -0.1303
 8635W        W24444  18.176  13.707  11.748  0.0927  0.1328  0.2262
 8636W        W24445   7.545  18.264   4.002 -0.2133  0.0373  0.1379
 8637W        W24446  13.389  14.211   0.500 -0.1018  0.2290 -0.0490
 8638W        W24447   0.053   8.427   2.932  0.1460 -0.1962  0.0339
 8639W        W24448   7.177  12.233  12.053 -0.0446 -0.2032  0.1546
 8640W        W24449  18.231  11.050   1.001  0.0985 -0.0106 -0.0511
 8641W        W24450  15.764   8.160   2.101  0.0194  0.1246 -0.3468
 8642W        W24451   6.270   4.858   0.291  0.1330  0.3627 -0.2275
 8643W        W24452  15.752  18.680  13.662  0.0497 -0.1649 -0.0606
 8644W        W24453  18.404  13.647  11.285  0.0182  0.2132  0.1495
 8645W        W24454   3.795   1.498  15.136  0.0185 -0.2831  0.0507
 8646W        W24455   7.325   3.964  14.899  0.2303  0.1322  0.0057
 8647W        W24456  14.941   1.663  12.454  0.0076 -0.0887 -0.1683
 8648W        W24457   8.322  15.235  15.169  0.0661 -0.1043 -0.0816
 8649W        W24458  18.852   9.110   0.653 -0.1154 -0.1676  0.2972
 8650W        W24459   4.017   5.437   1.133 -0.0089 -0.1322  0.1148
 8651W        W24460   4.227  10.763   5.432  0.1651  0.1164  0.2166
 8652W        W24461  11.192  15.764  12.227  0.0850 -0.0442  0.0311
 8653W        W24462   0.606  15.635  13.674  0.0854 -0.0448  0.0446
 8654W        W24463   3.215   4.195   4.937  0.1991 -0.1072 -0.1507
 8655W        W24464   2.317   4.701  14.203  0.2946  0.0333 -0.3498
 8656W        W24465  13.375  14.092  15.238 -0.0303  0.1493  0.1236
 8657W        W24466  12.715   7.390  14.176 -0.1279  0.0680  0.4143
 8658W        W24467  13.820  15.692   2.422  0.0155  0.0964  0.0556
 8659W        W24468   7.647   1.283   3.211 -0.1557  0.1973  0.1501
 8660W        W24469   6.934  11.763  13.633  0.0689  0.2121  0.1685
 8661W        W24470   6.333   0.158   0.099 -0.3517  0.2820  0.2286
 8662W        W24471   2.967  13.968   4.324  0.2184 -0.0481  0.0695
 8663W        W24472  15.953  11.351  11.890 -0.0014 -0.0209 -0.2026
 8664W        W24473  11.479   6.296  11.736  0.0487  0.2641  0.1324
 8665W        W24474  14.639  11.598   3.631 -0.0233  0.1580  0.0755
 8666W        W24475   0.553  13.534  11.738  0.0026  0.0728  0.0899
 8667W        W24476   0.191   6.989   4.476  0.0810 -0.0450  0.0131
 8668W        W24477  10.855  11.720   4.419 -0.0542  0.2431 -0.1447
 8669W        W24478  12.566  18.854  10.418 -0.1442 -0.0664  0.2183
 8670W        W24479  13.711  13.295  14.863 -0.2721  0.1366  0.0718
 8671W        W24480   6.187   5.673  12.389 -0.3995 -0.0724  0.2068
 8672W        W24481  12.922   0.614  11.035 -0.0578  0.0220  0.2441
 8673W        W24482   8.805   3.044  14.178  0.4491 -0.1558  0.1156
 8674W        W24483   9.785   1.582  11.205 -0.3054  0.1990  0.0756
 8675W        W24484   7.273  15.704   3.330 -0.0397  0.2729 -0.1520
 8676W        W24485   1.768   0.115  12.981 -0.0582  0.1648 -0.2361
 8677W        W24486   0.467   4.136   3.917  0.0163 -0.0479  0.3349
 8678W        W24487  10.150   2.714   2.573 -0.0119  0.1285  0.0953
 8679W        W24488   1.018   9.421  12.539  0.3830 -0.0854  0.0652
 8680W        W24489   8.057  16.535   1.831 -0.5667 -0.0830 -0.0297
 8681W        W24490   5.868   3.112  13.756 -0.1669 -0.0364  0.3716
 8682W        W24491  18.223  18.302   0.525 -0.0525 -0.1518  0.0191
 8683W        W24492  15.322   9.344  12.187  0.0695 -0.3387 -0.1773
 8684W        W24493  12.679   0.891  14.883  0.0566 -0.1071 -0.0062
 8685W        W24494  17.655   6.118   1.248  0.0483 -0.0852  0.1153
 8686W        W24495   2.086   8.361  11.619  0.0933  0.1988 -0.1183
 8687W        W24496   8.174   6.278   0.950  0.4369  0.1297  0.0378
 8688W        W24497  13.074   3.367   1.019 -0.0581 -0.3953  0.3177
 8689W        W24498   5.700  10.280   5.921 -0.0784  0.1968 -0.1405
 8690W        W24499  15.072   0.634   0.845 -0.2755 -0.3511 -0.0025
 8691W        W24500  18.372  18.237   2.512 -0.0534  0.0638 -0.1894
 8692W        W24501  17.497   4.284   0.385 -0.0871  0.2759 -0.2579
 8693W        W24502  15.650  12.555   4.249  0.0928  0.1047  0.1854
 8694W        W24503   2.394   1.309  12.283  0.2611 -0.0863  0.2603
 8695W        W24504  12.823   2.816   4.141  0.0396  0.1164  0.0121
 8696W        W24505   6.540  12.304   0.455 -0.1190 -0.0099 -0.0877
 8697W        W24506   3.332   4.109  14.017  0.0914 -0.1504  0.1520
 8698W        W24507  10.943  15.280  13.650  0.1972  0.1670  0.3415
 8699W        W24508   0.502  16.466  11.734  0.0787 -0.1163  0.1060
 8700W        W24509  18.761  16.842  11.233 -0.2898  0.0898 -0.0427
 8701W        W24510  13.250   7.851   2.325 -0.0833 -0.1235  0.1063
 8702W        W24511   4.082   1.960   4.910 -0.1489 -0.1609 -0.0731
 8703W        W24512   4.910  18.147  12.631  0.3239 -0.3032 -0.3877
 8704W        W24513  18.082   1.490  13.324 -0.0783  0.0602  0.3199
 8705W        W24514  16.197  18.257  11.367 -0.1445  0.0702  0.2409
 8706W        W24515   6.411  15.914   1.120 -0.0474  0.5223 -0.0263
 8707W        W24516   3.612  13.102   3.965 -0.3921 -0.2007  0.0379
 8708W        W24517  16.308  12.671  14.478  0.0530  0.1053  0.0797
 8709W        W24518   6.606   6.830   2.099 -0.2833  0.2079  0.0977
 8710W        W24519  10.630   1.188   2.577  0.0324 -0.3161  0.0995
 8711W        W24520   9.047   8.404  14.523  0.0534 -0.0637  0.4404
 8712W        W24521   1.558   3.032  10.153 -0.1849  0.0555 -0.0137
 8713W        W24522   2.433   9.126  12.697  0.0047 -0.3148 -0.0368
 8714W        W24523   6.478   3.248   8.826  0.2856 -0.0965 -0.0146
 8715W        W24524  17.017   8.648   1.573 -0.2588 -0.0413 -0.1737
 8716W        W24525  12.228  16.640  14.889  0.1482 -0.3714 -0.0318
 8717W        W24526   8.473  12.712   2.207 -0.0206 -0.1656  0.0975
 8718W        W24527  17.590  12.699   4.946 -0.2296  0.0659 -0.2041
 8719W        W24528  11.635  17.327  14.663  0.1999 -0.2960 -0.1226
 8720W        W24529  11.061   3.809  15.083 -0.1102  0.1142 -0.2386
 8721W        W24530   3.536   0.895   5.000  0.1640 -0.0363  0.0188
 8722W        W24531  13.433   1.277  12.532 -0.2775  0.1521 -0.0556
 8723W        W24532   9.146   1.218  14.468 -0.1860  0.0091  0.0849
 8724W        W24533  18.222  16.602   4.417 -0.0719 -0.1083 -0.2656
 8725W        W24534  16.455  10.365   3.806  0.1553  0.1965  0.0640
 8726W        W24535  11.866   2.824  11.072  0.0443 -0.2619 -0.1391
 8727W        W24536  16.811   5.962   1.171  0.1088  0.0063  0.0878
 8728W        W24537  10.274   1.860  13.225  0.2101  0.2903  0.1117
 8729W        W24538  13.312  15.003   2.139  0.0338  0.0783 -0.1290
 8730W        W24539  17.809   0.018   3.366  0.5050 -0.4022  0.2198
 8731W        W24540  17.432  13.573  13.514 -0.4890 -0.1387 -0.1764
 8732W        W24541   1.442   0.354  12.227  0.0883 -0.1110  0.0178
 8733W        W24542   0.500  13.492   1.081  0.0447 -0.0088  0.3661
 8734W        W24543  12.431   8.364  11.220  0.1399 -0.3393 -0.1923
 8735W        W24544   0.227   3.604  14.850  0.3279  0.1558  0.2798
 8736W        W24545   6.841  10.801   1.256 -0.0084  0.1773  0.1451
 8737W        W24546  18.788  12.294   4.972 -0.0649 -0.1319 -0.1669
 8738W        W24547  12.868   9.720  11.055 -0.0823  0.0247  0.1178
 8739W        W24548  16.731  13.398  11.305  0.1294  0.2605  0.0793
 8740W        W24549  13.911   6.692   2.349 -0.0983  0.0100  0.1302
 8741W        W24550  13.457  14.895   3.898  0.0179  0.3076 -0.0076
 8742W        W24551  15.705   9.908  11.732  0.2790 -0.1153  0.2107
 8743W        W24552   4.439   3.404   1.601 -0.2858 -0.0563 -0.1193
 8744W        W24553   9.147   6.788   9.556 -0.1521  0.3694 -0.0481
 8745W        W24554   8.286   2.463  14.338 -0.0555 -0.3647  0.1245
 8746W        W24555  13.632   8.831  13.353 -0.2280  0.2874  0.2685
 8747W        W24556  11.436  14.202   0.531  0.1902  0.1944  0.0553
 8748W        W24557  14.063   0.338   1.736 -0.3963 -0.0111  0.0102
 8749W        W24558   3.471  17.947   5.358  0.3366 -0.2404  0.3566
 8750W        W24559   5.119  13.521   2.691  0.1513  0.1137 -0.1256
 8751W        W24560  17.400  13.932   5.163  0.2131 -0.0261  0.0827
 8752W        W24561  17.506   2.798   0.200 -0.3440  0.2468  0.3950
 8753W        W24562  12.836  16.791   3.879  0.2975  0.0681  0.3963
 8754W        W24563   5.911   1.127   2.431  0.0212  0.0868  0.1853
 8755W        W24564   5.701   2.783   3.085 -0.1589 -0.1887 -0.1994
 8756W        W24565   0.092  13.174  12.855 -0.0668 -0.1371  0.1649
 8757W        W24566   6.118   4.936  10.989 -0.5088  0.2961 -0.3085
 8758W        W24567  12.545  10.422   1.059  0.2225 -0.1712  0.1172
 8759W        W24568   6.266   0.049  13.979  0.1258  0.2418 -0.1945
 8760W        W24569   5.511   3.677  10.929  0.1658  0.0428 -0.4495
 8761W        W24570  17.660  12.561  11.017  0.0082  0.0429  0.0005
 8762W        W24571  15.103  14.063   0.616  0.1670  0.2182 -0.0799
 8763W        W24572   4.657   5.170   3.798  0.0753 -0.0800  0.0169
 8764W        W24573  15.225   1.053   0.281  0.0085 -0.1619  0.2976
 8765W        W24574  12.010  12.422  12.812  0.1350  0.0622 -0.0335
 8766W        W24575   1.478   9.276  12.376  0.3003 -0.2537 -0.0365
 8767W        W24576   3.032   0.051   3.478  0.3630 -0.2736 -0.0473
 8768W        W24577  15.359  17.927  10.586 -0.0492 -0.0569 -0.0580
 8769W        W24578  11.988  15.621  12.378 -0.0043 -0.1976 -0.1549
 8770W        W24579   5.585   2.586   0.978  0.2918 -0.0262  0.0710
 8771W        W24580   1.742   4.289   9.972  0.1287 -0.1904 -0.2519
 8772W        W24581  13.246  15.869  10.454  0.0101  0.1300  0.0548
 8773W        W24582  18.992  14.112  12.549  0.0581 -0.1530  0.0261
 8774W        W24583   8.454  11.189   0.174  0.2280 -0.2314  0.4174
 8775W        W24584   9.353   5.427  12.884  0.0558  0.1478 -0.2315
 8776W        W24585  12.330   8.796   3.521  0.0524  0.0818  0.2199
 8777W        W24586  14.825   4.922   2.462 -0.0114  0.0341  0.1315
 8778W        W24587   7.508   8.153   4.103  0.3238  0.0585 -0.0546
 8779W        W24588   8.528  15.861   2.513 -0.1223 -0.2325  0.1319
 8780W        W24589   2.065   8.363  14.918  0.3208 -0.0021  0.1016
 8781W        W24590   3.454  12.004   4.182  0.0164  0.0630  0.0647
 8782W        W24591   1.242  12.071   0.660  0.3092  0.0783 -0.2115
 8783W        W24592   4.347   6.027  12.715  0.1667  0.3471 -0.1604
 8784W        W24593  10.141   2.619  14.321  0.2041  0.0640 -0.2023
 8785W        W24594  15.339  17.003   0.374 -0.2117 -0.0003 -0.0980
 8786W        W24595  14.266   3.730  11.630 -0.2350 -0.0250 -0.2551
 8787W        W24596  15.611   1.381   0.194 -0.2199  0.0300  0.3734
 8788W        W24597  15.662   7.735  11.746  0.0592 -0.0875 -0.0197
 8789W        W24598  15.378   8.433  10.970 -0.1773  0.1070  0.2303
 8790W        W24599   1.620  12.144  11.587 -0.2358  0.0622  0.1244
 8791W        W24600  10.154  13.531   2.743 -0.2602  0.1560 -0.0651
 8792W        W24601  10.309   9.672  13.489  0.1495  0.2862 -0.1772
 8793W        W24602  15.385  12.235   1.241  0.2543 -0.0952 -0.3754
 8794W        W24603   9.185  10.005   1.051  0.1619 -0.1071 -0.0384
 8795W        W24604   5.692  14.246   1.818  0.1441 -0.5535 -0.2164
 8796W        W24605   0.589   4.325  10.776 -0.0762 -0.1746 -0.2501
 8797W        W24606   6.843  12.372   4.109  0.0434 -0.0828  0.1059
 8798W        W24607  18.511   1.969   3.994  0.4070 -0.1440 -0.0779
 8799W        W24608  18.428   2.657   0.822 -0.1418 -0.2693  0.0227
 8800W        W24609  17.968   5.542  13.731 -0.3591  0.4390 -0.2723
 8801W        W24610  11.772   4.852  14.276  0.2631 -0.0215  0.0199
 8802W        W24611   8.374   2.879   0.839  0.2879 -0.1509 -0.0033
 8803W        W24612   7.490  14.328   1.446 -0.2031 -0.0614  0.0599
 8804W        W24613   2.028  12.521   4.732  0.4058 -0.3462  0.1843
 8805W        W24614  13.878  16.563  13.167  0.0489 -0.0470  0.1947
 8806W        W24615   6.298   3.151  12.249  0.2279  0.4093  0.1372
 8807W        W24616   4.942  17.644   1.256 -0.3051  0.0772 -0.1016
 8808W        W24617   2.060  17.983  13.305 -0.1206 -0.1935  0.2756
 8809W        W24618   2.570   8.419   4.579  0.2615 -0.0034 -0.0227
 8810W        W24619  18.612   5.341  15.003  0.2477 -0.0189 -0.2812
 8811W        W24620   2.456  10.758   3.792 -0.1580 -0.0498  0.1964
 8812W        W24621   6.830   0.399   2.649  0.1000  0.0638  0.0712
 8813W        W24622  18.702   8.409  11.403  0.4304 -0.0294 -0.0300
 8814W        W24623   2.094  10.673   3.495  0.3059  0.2785  0.3154
 8815W        W24624  13.946   7.196  14.470 -0.1933 -0.0321 -0.0196
 8816W        W24625  14.211   2.233   0.238  0.2404  0.1403  0.0643
 8817W        W24626   8.967  10.997   4.238 -0.3722  0.1658 -0.2556
 8818W        W24627   9.105  17.519  14.288 -0.2259 -0.1068  0.0757
 8819W        W24628  14.966  13.776   1.150  0.0436 -0.2882 -0.0837
 8820W        W24629  15.416   7.531   0.132  0.0605  0.1981 -0.1084
 8821W        W24630   4.430  13.355   1.363  0.3697  0.3072  0.1351
 8822W        W24631  16.267  18.070   0.690 -0.1669  0.0055 -0.0024
 8823W        W24632   6.142   6.691  11.275 -0.0664  0.3634  0.1471
 8824W        W24633   9.720  12.770   1.984 -0.1693 -0.1713  0.1867
 8825W        W24634   6.196  15.306   2.234 -0.0785 -0.0635  0.1943
 8826W        W24635  12.231   3.313   2.012 -0.2281 -0.0752  0.1012
 8827W        W24636  10.005   3.259  11.105 -0.0026 -0.0460  0.0758
 8828W        W24637   8.911   0.945   2.446  0.0442  0.4895 -0.1197
 8829W        W24638   3.855  12.862   0.527 -0.2099  0.3502  0.0803
 8830W        W24639   6.838   2.382  12.428  0.2489 -0.1312 -0.1890
 8831W        W24640  10.025   3.177   0.445  0.0951 -0.0044 -0.0835
 8832W        W24641   7.837  15.681  12.551  0.0724 -0.0199  0.1410
 8833W        W24642  10.432  12.705  11.800 -0.2701  0.0058  0.1587
 8834W        W24643  13.216   3.988  14.646  0.0928 -0.1475  0.1917
 8835W        W24644  14.683   1.913   0.938  0.1044  0.1354  0.1415
 8836W        W24645   0.340   9.929   0.842 -0.5325  0.2560 -0.0688
 8837W        W24646   6.010   5.670   1.037 -0.0825  0.2270 -0.1453
 8838W        W24647   9.951   5.025   5.713  0.0674  0.1178 -0.3409
 8839W        W24648  13.832   5.825  15.164  0.0980 -0.2151  0.0514
 8840W        W24649   2.227   1.198   5.201 -0.0568  0.3088  0.1479
 8841W        W24650  16.823   1.133  13.750  0.3282 -0.0663  0.3182
 8842W        W24651  17.875   2.568   2.524  0.1258  0.4334 -0.1537
 8843W        W24652  18.126   7.318  11.218 -0.0741 -0.1182  0.1029
 8844W        W24653  14.755   8.437  14.639 -0.1198 -0.3072  0.1429
 8845W        W24654  15.210  14.651   1.654 -0.1151  0.1159  0.1556
 8846W        W24655   2.755  18.384   1.237  0.1419 -0.0270  0.2586
 8847W        W24656   6.277   9.439   4.530 -0.3438  0.2922 -0.0574
 8848W        W24657  12.373   6.217   4.398  0.1916  0.3403 -0.3882
 8849W        W24658   6.467   0.141  12.198  0.2558 -0.1825 -0.0225
 8850W        W24659   6.940   9.889   0.870 -0.1859  0.0961  0.0471
 8851W        W24660  14.155  10.399   2.935  0.0265 -0.0135 -0.1807
 8852W        W24661  17.779  18.876   4.525  0.0960 -0.0600 -0.0900
 8853W        W24662  12.021   9.595  13.725  0.0688 -0.3915 -0.0850
 8854W        W24663   2.062  12.844   3.474  0.2095  0.2298  0.3223
 8855W        W24664  10.814   7.422   3.702 -0.1981  0.0920 -0.0706
 8856W        W24665  12.663   0.300   1.359  0.1227  0.0965  0.0254
 8857W        W24666  12.062   5.301  11.007 -0.2452  0.1559  0.1130
 8858W        W24667  16.878   7.587  12.796  0.0520  0.0574 -0.0838
 8859W        W24668  17.732  12.759   2.204  0.3435  0.1991  0.1941
 8860W        W24669   4.900  11.217  11.734  0.0390 -0.1901 -0.2890
 8861W        W24670   4.237  18.973  10.279  0.1326 -0.2424  0.0572
 8862W        W24671  15.956   8.753  14.685  0.2210 -0.0840 -0.1384
 8863W        W24672   2.983   4.190  10.359  0.0157 -0.0337  0.1390
 8864W        W24673  17.424   9.001   4.853 -0.0426 -0.0409  0.2159
 8865W        W24674  15.988  18.209  15.091 -0.3913  0.0608 -0.1065
 8866W        W24675   7.646  12.769   5.022 -0.1560  0.0821 -0.0892
 8867W        W24676  18.775   0.248   4.189 -0.1538 -0.2072  0.0837
 8868W        W24677  11.533  13.434  12.115 -0.2845  0.0324 -0.0723
 8869W        W24678   1.052   4.163  11.639 -0.1305 -0.1108 -0.1729
 8870W        W24679   2.870  13.742   4.813 -0.0735 -0.1713  0.2913
 8871W        W24680   7.042   0.141  13.356 -0.1199  0.0518  0.0562
 8872W        W24681  13.529   4.936  13.660  0.1659 -0.1925  0.1808
 8873W        W24682  18.745  18.162   0.454  0.2557  0.1934 -0.2334
 8874W        W24683  12.798   6.129  14.298 -0.1212  0.2265  0.1513
 8875W        W24684  13.872   5.008   3.313 -0.0805  0.0057  0.0085
 8876W        W24685  11.595   0.103  15.050 -0.1344  0.0197  0.1284
 8877W        W24686   0.673   5.636   5.363  0.0675 -0.1277 -0.2168
 8878W        W24687  19.044  11.594   0.835 -0.0010 -0.0794  0.0513
 8879W        W24688   3.335  14.275   1.713 -0.3859 -0.0089  0.2428
 8880W        W24689   2.154   0.097   0.746  0.2612 -0.3225  0.0979
 8881W        W24690   9.376  12.293   4.558 -0.1060  0.2753 -0.0668
 8882W        W24691   8.518  17.876   2.654  0.0543 -0.4904 -0.1081
 8883W        W24692   3.826   6.560  12.325  0.0164  0.0349  0.3061
 8884W        W24693  14.632   8.628  10.113  0.0562 -0.0581 -0.0979
 8885W        W24694   1.434  10.052  15.039  0.0992 -0.3082  0.0257
 8886W        W24695   3.044  17.518  12.525  0.1100 -0.1211  0.1232
 8887W        W24696  15.621   0.580  12.726 -0.3661  0.1786 -0.3474
 8888W        W24697   6.588  12.169   1.533  0.1933  0.1948 -0.3703
 8889W        W24698  11.564  10.965  14.232 -0.2693  0.3172 -0.2989
 8890W        W24699  12.309  10.116  13.959  0.2184  0.0927 -0.0112
 8891W        W24700   3.345   5.493   4.554 -0.1626 -0.0218  0.0584
 8892W        W24701   2.638  18.595  13.397  0.0689 -0.1098  0.0146
 8893W        W24702   0.553  13.383   2.948  0.1745 -0.2095  0.1220
 8894W        W24703  12.470   2.199   1.369 -0.4906  0.2769 -0.1159
 8895W        W24704   3.847   4.453   2.359  0.1745  0.1883 -0.0352
 8896W        W24705  14.128  10.145   3.426 -0.0861 -0.0577  0.0502
 8897W        W24706  10.519  17.488  12.415 -0.1545  0.2491 -0.1721
 8898W        W24707   3.566  14.880   3.496 -0.2017  0.2333  0.0373
 8899W        W24708  10.141  13.635   2.183  0.1820 -0.2211  0.1900
 8900W        W24709   3.349  13.002  10.618  0.1187  0.4203 -0.2815
 8901W        W24710  12.528   3.744  12.593 -0.0995 -0.0464 -0.1809
 8902W        W24711  18.686  17.389   4.611 -0.0004 -0.2728  0.1562
 8903W        W24712   9.714   2.852  12.446  0.1025 -0.0810  0.3546
 8904W        W24713   8.384  10.618  12.054 -0.1314 -0.0191  0.0161
 8905W        W24714  16.883   9.474  11.166  0.1891 -0.0340 -0.2533
 8906W        W24715   5.940  18.032  13.007 -0.0842  0.0976 -0.3234
 8907W        W24716   1.134   4.456  10.076 -0.2590 -0.0503  0.1117
 8908W        W24717  16.329  17.487  13.836  0.0599 -0.2411 -0.0774
 8909W        W24718   1.878   2.195  14.388  0.2522  0.1095 -0.1517
 8910W        W24719  11.398  13.300   3.085  0.2172  0.0627  0.1461
 8911W        W24720   8.008   3.839   1.732  0.0207 -0.3955 -0.0654
 8912W        W24721  10.944  15.803  13.647 -0.1933  0.0255 -0.1650
 8913W        W24722   4.603   1.837  12.537 -0.1145  0.3435 -0.0320
 8914W        W24723   1.610   3.261  13.055 -0.2530 -0.0740 -0.0114
 8915W        W24724   5.612  15.900  12.365 -0.2140 -0.2173 -0.3199
 8916W        W24725  10.279   4.947  11.401 -0.0238 -0.0577 -0.0640
 8917W        W24726   3.896  15.851  13.600 -0.2382 -0.0887  0.0969
 8918W        W24727   9.468   3.433   4.153 -0.1174 -0.4311 -0.1450
 8919W        W24728   2.218   9.690   4.567  0.0907 -0.0341  0.3510
 8920W        W24729   4.303  10.227  14.969  0.1691 -0.1384 -0.1950
 8921W        W24730  18.812   3.641  11.828  0.1790 -0.0018 -0.0738
 8922W        W24731  16.276  17.559   2.562  0.0568  0.3874  0.0827
 8923W        W24732   7.022   6.177  15.239 -0.3313 -0.1484  0.1545
 8924W        W24733   5.115  10.545   3.644  0.2304 -0.3614  0.3747
 8925W        W24734  18.814   4.461  12.040 -0.0482 -0.0558 -0.1826
 8926W        W24735  18.943  15.951   2.704 -0.3547  0.0657 -0.1154
 8927W        W24736   5.691   3.895   3.975 -0.3098  0.2153  0.1344
 8928W        W24737   3.242   8.029   1.219  0.0966  0.0279  0.2344
 8929W        W24738   6.250  12.505  12.359 -0.1928  0.1579 -0.0608
 8930W        W24739  16.848  16.340  10.690 -0.4710 -0.0056 -0.0704
 8931W        W24740  10.699   0.533  14.382 -0.0050 -0.1942 -0.1634
 8932W        W24741  16.756  13.182   5.016 -0.2458 -0.3239  0.0827
 8933W        W24742   9.292  14.194   1.911 -0.4128 -0.1603 -0.0974
 8934W        W24743  14.008  18.854   2.701  0.3120 -0.0053 -0.2788
 8935W        W24744   8.751   3.799   5.433  0.0194  0.0213 -0.2210
 8936W        W24745   3.776   5.019   3.295  0.0960 -0.1786  0.1209
 8937W        W24746  16.745  17.556   2.830 -0.0298 -0.5569  0.2711
 8938W        W24747   6.641  10.564   1.615 -0.0113 -0.1241  0.3713
 8939W        W24748   8.485  13.078  10.292 -0.1978  0.1055 -0.1626
 8940W        W24749   9.916   6.540   2.999  0.0243  0.0811  0.3996
 8941W        W24750  19.059  17.649   2.335  0.1988 -0.1627  0.2919
 8942W        W24751   0.795   0.483   0.104  0.0702  0.2361 -0.3900
 8943W        W24752   4.273   4.466  11.555 -0.0418  0.1657 -0.2248
 8944W        W24753  17.542   5.746   3.592  0.3929  0.0470 -0.0339
 8945W        W24754  16.079   0.906  15.082  0.3058  0.3827  0.1956
 8946W        W24755   8.972   2.962  10.379 -0.0009 -0.3975 -0.0325
 8947W        W24756   7.740   2.028  10.195 -0.0227 -0.3681  0.0047
 8948W        W24757   3.484   5.016  11.672  0.0641 -0.2613 -0.1874
 8949W        W24758  15.326  18.062  11.860 -0.3900  0.2925 -0.1197
 8950W        W24759   1.878  12.180   2.708  0.2443 -0.2301  0.0739
 8951W        W24760  18.163  11.306   3.693 -0.4470  0.0351 -0.1885
 8952W        W24761   5.245   7.050   2.726  0.1074 -0.1907  0.1116
 8953W        W24762   1.270  13.039   1.036  0.0080 -0.1285  0.2192
 8954W        W24763   1.321  10.878   0.000  0.1954 -0.1085  0.2543
 8955W        W24764   5.908   5.450   1.926 -0.1555 -0.5460 -0.0061
 8956W        W24765   5.781  13.349   5.099  0.0057  0.2767  0.0414
 8957W        W24766  17.689  15.197  12.519  0.3157  0.2181  0.0739
 8958W        W24767  11.055   4.229  11.355 -0.0250  0.0942 -0.1082
 8959W        W24768   0.534   1.979   0.278 -0.0667  0.2364 -0.0477
 8960W        W24769   8.208  14.760  14.167  0.1650 -0.2254  0.1916
 8961W        W24770   5.403  10.900   1.878 -0.4541 -0.3689  0.1550
 8962W        W24771  15.212   3.453   5.244 -0.2732  0.0310 -0.1770
 8963W        W24772   0.367  17.370  10.923 -0.1427 -0.1266 -0.3418
 8964W        W24773   8.168   3.019   2.324  0.2298  0.1068 -0.3552
 8965W        W24774   2.426  12.646  14.562  0.0561  0.0274  0.0507
 8966W        W24775   7.176   2.686  15.116  0.4002  0.0599 -0.1415
 8967W        W24776   5.827  17.033   5.582  0.2159  0.1123 -0.0314
 8968W        W24777   4.221  15.419   5.139 -0.0819  0.1844  0.0724
 8969W        W24778  17.748   1.986   3.093 -0.3293  0.0443 -0.0332
 8970W        W24779  17.126   6.791   0.806 -0.0764  0.0479  0.0328
 8971W        W24780  16.631   0.500  11.681 -0.0699 -0.1856 -0.0291
 8972W        W24781  18.531  14.239  11.271  0.1394 -0.0126  0.3953
 8973W        W24782   2.713  13.654  14.492  0.0810 -0.2266 -0.1035
 8974W        W24783   8.418  15.948  14.391 -0.1402 -0.0668  0.0278
 8975W        W24784   9.852   5.248  11.401 -0.3566 -0.1966 -0.1281
 8976W        W24785  10.818   6.473   4.450  0.3425  0.1311 -0.1441
 8977W        W24786  17.329   7.331   2.173  0.0677  0.0835  0.0376
 8978W        W24787  17.917  17.171  10.762  0.0200  0.0591 -0.1666
 8979W        W24788  13.583   2.039   1.894 -0.0021  0.0590  0.1913
 8980W        W24789   4.331  12.695   2.689 -0.3146 -0.0316 -0.3543
 8981W        W24790   0.330   6.869  15.051 -0.2534  0.0050  0.3066
 8982W        W24791  13.905   5.012  10.287  0.1520 -0.0864  0.2932
 8983W        W24792   4.429  10.842  11.751 -0.0395  0.3170 -0.0024
 8984W        W24793   7.533   6.180  12.847  0.1826  0.0056  0.2209
 8985W        W24794  16.744   5.843  11.340  0.0824  0.1336  0.2231
 8986W        W24795   0.576   3.357   4.592 -0.0810  0.0615  0.0873
 8987W        W24796   2.579  16.989   4.443  0.3243 -0.0573  0.0253
 8988W        W24797  11.566  11.611  12.547  0.1934 -0.2289 -0.0565
 8989W        W24798   2.535   5.825  14.028  0.3287 -0.3400 -0.6378
 8990W        W24799   2.216   3.645   1.376 -0.1806  0.2403  0.1094
 8991W        W24800   7.571  14.947  12.489 -0.3755  0.0488 -0.1703
 8992W        W24801  18.904   6.147   1.648  0.4199  0.0166  0.0582
 8993W        W24802  16.097   4.954   1.271  0.3746  0.0110  0.2737
 8994W        W24803  17.097   8.980  10.239 -0.0303 -0.2189 -0.1048
 8995W        W24804   2.849   8.473   5.710  0.1424 -0.5058  0.0671
 8996W        W24805  17.458  12.287   1.567  0.3619  0.0335 -0.1551
 8997W        W24806   3.391   3.997   1.298 -0.0814  0.2069 -0.2766
 8998W        W24807  11.715   9.404  11.050  0.0973 -0.3618 -0.1494
 8999W        W24808   0.750  11.869   2.600 -0.0738 -0.0095 -0.0552
 9000W        W24809  10.492  17.568   1.639  0.3041 -0.1761 -0.1244
 9001W        W24810  18.073  10.833  13.224 -0.1054 -0.2679 -0.1303
 9002W        W24811   8.137   0.988   4.411 -0.0484 -0.1696  0.0158
 9003W        W24812   8.280   0.605  12.780  0.1402  0.1108  0.0534
 9004W        W24813  10.276   1.556  14.869  0.0081  0.0842  0.5186
 9005W        W24814  14.694  18.401  12.345  0.1739 -0.4473 -0.2587
 9006W        W24815   8.213  13.898   2.672  0.1719  0.0013  0.0025
 9007W        W24816   0.114  18.746  14.456  0.1138  0.1909 -0.4107
 9008W        W24817  10.736  16.713   0.900 -0.2092 -0.0182 -0.0098
 9009W        W24818   8.600  12.965  12.072 -0.0928  0.1618  0.2702
 9010W        W24819  13.771   3.602  10.412 -0.1753  0.2753 -0.0085
 9011W        W24820  13.621  14.127   2.314 -0.0425  0.0914  0.0114
 9012W        W24821  16.043  11.446  14.880 -0.1610 -0.2109  0.0044
 9013W        W24822  11.781  10.174  13.747 -0.0333 -0.1881 -0.0257
 9014W        W24823  17.940  10.315   2.880 -0.3161 -0.0569  0.1478
 9015W        W24824  16.041  13.079   3.318  0.3284 -0.1332  0.0647
 9016W        W24825   9.450   0.588  13.652 -0.1077  0.0096  0.1837
 9017W        W24826  15.833   6.253  11.417 -0.2447  0.0566 -0.1089
 9018W        W24827  10.014   3.251  13.400  0.0146 -0.1185 -0.4113
 9019W        W24828  17.657   5.304   0.153 -0.2659 -0.3003  0.1748
 9020W        W24829  10.089  17.685   0.493 -0.3352 -0.2901  0.1653
 9021W        W24830   3.799  15.938   4.033  0.2271 -0.0034  0.1746
 9022W        W24831   1.977  16.303  12.342  0.2029  0.1453  0.0956
 9023W        W24832   9.010  14.286   2.356  0.1348  0.2829  0.0568
 9024W        W24833  13.387   3.009   0.681  0.1851 -0.0598  0.0949
 9025W        W24834   4.727  15.680   3.315  0.1955  0.1623  0.2171
 9026W        W24835   9.693  16.449  12.078 -0.1741 -0.0369 -0.0944
 9027W        W24836   4.116  12.966  12.289  0.1505  0.1002  0.2046
 9028W        W24837  12.302   4.115  12.861 -0.1137  0.1497 -0.2164
 9029W        W24838   1.133  12.667  14.601 -0.0671 -0.4294 -0.4243
 9030W        W24839   2.953   1.389  10.912 -0.2520 -0.1383  0.0583
 9031W        W24840  13.646   4.568  13.088  0.3072 -0.1322  0.0351
 9032W        W24841   8.925  10.089  10.621  0.4817  0.1307 -0.2956
 9033W        W24842  15.497   3.613   2.324  0.0001  0.0114 -0.0242
 9034W        W24843   7.113   7.362  14.727  0.0295 -0.3517  0.1574
 9035W        W24844   8.300  10.793  14.598 -0.1637 -0.0111 -0.3501
 9036W        W24845   3.112   9.208   3.362  0.0288  0.0584 -0.1834
 9037W        W24846   1.554  18.728  12.440  0.1406  0.1560 -0.0409
 9038W        W24847  13.700  14.301   0.912  0.0956  0.1869  0.0196
 9039W        W24848  11.299  15.770   2.153  0.1531  0.3390 -0.3070
 9040W        W24849  13.805   2.545  12.375  0.3422  0.1999  0.3301
 9041W        W24850   8.316   0.670   2.174  0.0218  0.1264  0.1215
 9042W        W24851   8.213  18.072   3.413  0.2205  0.1706  0.0459
 9043W        W24852   8.855  12.372   4.513  0.2449 -0.1465 -0.1171
 9044W        W24853   0.722  10.831   5.095 -0.1837  0.3341 -0.0193
 9045W        W24854  11.912   0.502  10.093  0.2953  0.1390  0.0638
 9046W        W24855  10.118   6.776   2.187  0.2820 -0.0455 -0.0041
 9047W        W24856   2.346   3.865   4.699  0.0955 -0.2280 -0.1601
 9048W        W24857   0.479   1.711   3.015  0.0618 -0.4206  0.0232
 9049W        W24858   6.780  15.428  12.591  0.0710 -0.0218  0.0798
 9050W        W24859   2.846  17.427   2.847 -0.0224  0.4707 -0.3473
 9051W        W24860   7.535  12.536   4.120 -0.2338 -0.2403 -0.3636
 9052W        W24861  11.567  11.303   4.073 -0.0085 -0.0514  0.0745
 9053W        W24862   0.654  11.360  12.918  0.0731 -0.0151  0.1636
 9054W        W24863  17.298  10.154  13.041  0.3562  0.0252  0.3328
 9055W        W24864   8.453  13.706   0.279 -0.2671  0.0333 -0.0471
 9056W        W24865  13.459   3.456  14.549  0.0580  0.0054  0.0606
 9057W        W24866  12.477  12.685  13.484  0.3611 -0.0271  0.0902
 9058W        W24867   4.018   7.035   0.799 -0.2357  0.2641 -0.2087
 9059W        W24868  12.783  15.311  12.412  0.0051  0.3871 -0.3246
 9060W        W24869  19.041   0.799  15.239  0.0843  0.1401  0.1855
 9061W        W24870  18.893   3.183  12.064  0.1489 -0.1103  0.1074
 9062W        W24871   9.929  14.106   0.747  0.0659 -0.1200  0.0870
 9063W        W24872   9.519   2.269   3.920  0.3009 -0.0257  0.0411
 9064W        W24873  15.194  16.251  14.469 -0.2643 -0.0586 -0.0133
 9065W        W24874   4.388   0.677  10.537 -0.1718 -0.3393 -0.0913
 9066W        W24875  14.343  17.161   0.381  0.3029  0.0465  0.1513
 9067W        W24876   1.464  17.847   2.225  0.0293 -0.1809  0.0148
 9068W        W24877   8.393  16.479  13.453 -0.0944  0.5425 -0.0281
 9069W        W24878   4.724   0.807   4.157  0.0547  0.0990 -0.0564
 9070W        W24879   2.822  11.924   5.044 -0.2033 -0.3064 -0.1387
 9071W        W24880   3.021  10.209   5.969  0.3648 -0.1513  0.2550
 9072W        W24881  18.698  14.435  11.704  0.1864  0.4045  0.0535
 9073W        W24882   1.041   0.685   1.399 -0.0274 -0.0206 -0.2503
 9074W        W24883   0.599  16.395   3.106  0.0620  0.0853 -0.0464
 9075W        W24884   5.783  13.986   4.376  0.1173  0.0404 -0.0037
 9076W        W24885  18.658  14.953   1.799 -0.0039 -0.0125  0.1873
 9077W        W24886   6.935   6.289   0.442 -0.1415  0.2350 -0.1248
 9078W        W24887   3.047  16.172  12.086 -0.0850  0.1904  0.1291
 9079W        W24888   4.031  10.041   0.568  0.3202 -0.2600 -0.0686
 9080W        W24889  15.305  19.049  11.456  0.0398  0.2866  0.0805
 9081W        W24890  17.138   3.996  10.698 -0.3737  0.1497  0.2385
 9082W        W24891   3.527   3.709   9.827 -0.0781  0.5093  0.0596
 9083W        W24892   7.540   9.157  12.195  0.3657 -0.1094 -0.3140
 9084W        W24893  18.157  15.128  14.112 -0.0676 -0.1452 -0.2562
 9085W        W24894   8.664  14.077   5.505  0.1892 -0.0145  0.3158
 9086W        W24895   8.429   3.128  12.024  0.1400  0.1208  0.3715
 9087W        W24896  12.782  11.213   3.894 -0.1385 -0.0949 -0.0523
 9088W        W24897   3.643   1.466   2.804 -0.2343 -0.1041 -0.1801
 9089W        W24898   6.557   0.000   1.346  0.1315  0.3122  0.2677
 9090W        W24899  17.186   8.393   0.872  0.0750 -0.3262 -0.3250
 9091W        W24900  18.052   4.013   1.977 -0.0210 -0.1888 -0.2357
 9092W        W24901  17.395   8.649   4.429  0.1002  0.2360  0.0655
 9093W        W24902   7.289  18.453   5.107  0.5573 -0.1132 -0.1147
 9094W        W24903   6.918  12.093  13.963 -0.2334  0.1157  0.1735
 9095W        W24904   2.645  14.335   4.421 -0.0177  0.2092  0.3064
 9096W        W24905   3.119  10.417   4.739 -0.0450  0.3808  0.1718
 9097W        W24906   4.593   2.431   2.649 -0.2686 -0.1659  0.3817
 9098W        W24907   0.023  11.190  15.080  0.0376 -0.3661  0.1697
 9099W        W24908  15.255  11.478   0.714 -0.0565 -0.0140 -0.1559
 9100W        W24909  11.083   4.426   3.774  0.3479  0.2023 -0.0152
 9101W        W24910  16.837   4.654  12.262 -0.0280 -0.0869 -0.0575
 9102W        W24911   6.604  15.366   4.117 -0.6449 -0.0993  0.0295
 9103W        W24912  14.960  18.951   3.449  0.0853 -0.4049 -0.1622
 9104W        W24913  14.538   6.381  13.161  0.1848 -0.1657 -0.0449
 9105W        W24914  18.478  17.741  14.488 -0.0683 -0.1266 -0.3293
 9106W        W24915  17.686   5.450  14.924  0.2461  0.0914  0.0275
 9107W        W24916   1.173  13.703  13.371 -0.0071 -0.0177  0.1414
 9108W        W24917   5.507  10.863  13.755  0.3013 -0.0843  0.1427
 9109W        W24918   7.814  18.520  10.310 -0.0768  0.0205 -0.1447
 9110W        W24919   9.744   1.222   3.644  0.0043 -0.0617 -0.2941
 9111W        W24920   2.973   2.163  11.645  0.3422 -0.1520 -0.0482
 9112W        W24921  15.379  18.251   4.912 -0.2298  0.1355 -0.0179
 9113W        W24922   0.969  10.644   0.971 -0.2248  0.1981  0.0438
 9114W        W24923   5.796  18.720  13.647  0.2988 -0.2336 -0.3369
 9115W        W24924   8.855   4.415  13.709  0.0944  0.2175  0.0782
 9116W        W24925   0.307   8.046  15.172 -0.0986 -0.0117 -0.0559
 9117W        W24926  11.223   8.579   0.521 -0.2682 -0.3873  0.1885
 9118W        W24927  15.758   7.080  14.908 -0.0632 -0.1591 -0.0965
 9119W        W24928   5.898  13.823  14.875 -0.0867  0.2173  0.0348
 9120W        W24929   2.922   2.097   5.593 -0.2396 -0.1563  0.4928
 9121W        W24930  12.317  19.065  13.031  0.1259  0.2373  0.0595
 9122W        W24931   4.150   1.097   1.060  0.1646 -0.1121 -0.0911
 9123W        W24932  11.592   6.033  12.772  0.0221  0.2401  0.1670
 9124W        W24933   5.589   5.242  13.375  0.1333  0.2378 -0.0633
 9125W        W24934   8.532   2.165  12.176  0.0738 -0.0834 -0.0237
 9126W        W24935  15.428   4.969   2.836  0.0174  0.2337  0.0656
 9127W        W24936   1.243   9.642   3.020  0.1019 -0.3421 -0.1359
 9128W        W24937  18.892   2.038  14.082  0.0839  0.0363  0.1022
 9129W        W24938  14.841   3.539  11.433 -0.0252 -0.1041  0.0956
 9130W        W24939  18.406  15.937   1.465 -0.0819 -0.1408 -0.0576
 9131W        W24940  12.510   9.633  15.177  0.1859 -0.3003 -0.2241
 9132W        W24941  11.882   8.189  12.230  0.2831  0.3217 -0.1419
 9133W        W24942  18.553  18.527   0.165  0.0953  0.0432 -0.0606
 9134W        W24943  12.861   3.909   2.347 -0.1485  0.0633  0.0150
 9135W        W24944  15.607   4.226   1.066 -0.1384  0.0245 -0.0444
 9136W        W24945   8.634  14.936  11.055  0.2429 -0.2036  0.3490
 9137W        W24946   2.961  13.565  13.709 -0.0160 -0.5007 -0.0641
 9138W        W24947  17.179  12.662  10.886 -0.0446  0.0425  0.1710
 9139W        W24948   7.369   2.169  11.001 -0.1310  0.0573  0.2699
 9140W        W24949  12.652  17.563  10.901 -0.1299  0.0035 -0.0182
 9141W        W24950   6.489   5.644   1.229  0.0531  0.1252  0.2777
 9142W        W24951   5.330  11.520  11.631  0.0486  0.0411  0.0212
 9143W        W24952   5.391   3.228   1.619  0.3586 -0.1086 -0.1905
 9144W        W24953   7.404   6.440   4.236  0.1784  0.1053  0.2310
 9145W        W24954   4.658  10.571   0.830 -0.0317 -0.4096  0.3281
 9146W        W24955   1.873   2.751  14.516  0.1263 -0.1374 -0.2481
 9147W        W24956  16.214  18.606   0.164 -0.1442 -0.1176  0.0729
 9148W        W24957  10.943   9.181   5.360 -0.0488  0.1472 -0.2349
 9149W        W24958  12.341   9.591  10.977 -0.0199 -0.0779 -0.1038
 9150W        W24959  15.950  11.677  10.683  0.1046 -0.2301  0.1268
 9151W        W24960  15.506  13.866   4.527 -0.0659  0.2706  0.2358
 9152W        W24961  18.849   8.937  12.633 -0.1505 -0.0020  0.1476
 9153W        W24962  14.289   9.947  12.341 -0.2658 -0.3554  0.0454
 9154W        W24963  10.728   3.679  14.772  0.3422  0.1281  0.2979
 9155W        W24964  13.715   8.377   2.813 -0.0974  0.1138  0.1682
 9156W        W24965   1.220   5.837  13.629  0.0320  0.0380  0.2022
 9157W        W24966   8.741  12.095   0.435 -0.2764  0.1060  0.4746
 9158W        W24967   4.689   5.247  12.446  0.2411  0.2136  0.0513
 9159W        W24968  18.071  10.379  13.582  0.0796 -0.0296  0.1889
 9160W        W24969  18.818  14.717  11.271  0.0225  0.1499  0.1725
 9161W        W24970   6.447   0.689   4.260  0.0408  0.0526  0.3901
 9162W        W24971  15.666  15.652   0.491  0.1199  0.1498  0.0711
 9163W        W24972  11.824   0.491  14.953  0.4444 -0.1886 -0.0431
 9164W        W24973  14.748   9.845   1.976 -0.0839  0.3435 -0.0768
 9165W        W24974   0.603   6.962   0.488 -0.0356 -0.0441 -0.0985
 9166W        W24975   8.095   2.169   1.575 -0.1885  0.3729 -0.2629
 9167W        W24976   3.863  15.482   0.122 -0.0247  0.1284  0.3392
 9168W        W24977   3.335  12.360   9.753  0.2693  0.1602 -0.3360
 9169W        W24978   4.372   0.482  11.055 -0.0237 -0.1279  0.1537
 9170W        W24979  18.175   3.815  14.120 -0.2542 -0.0161  0.0914
 9171W        W24980  14.327   2.953   3.393  0.0938 -0.3368 -0.1007
 9172W        W24981   5.705  12.705   2.699  0.2163  0.0349 -0.0030
 9173W        W24982  11.497   5.693   5.222  0.0677 -0.1000  0.2906
 9174W        W24983   0.709  15.884   5.481 -0.0209  0.2254 -0.0573
 9175W        W24984   0.464  10.911  12.945 -0.3903 -0.3451  0.0093
 9176W        W24985   8.851  17.000  12.247  0.3065  0.2210 -0.0296
 9177W        W24986  14.647   5.171  10.559 -0.0109  0.1588 -0.0326
 9178W        W24987  14.901   5.699  12.861  0.2550 -0.1650  0.0841
 9179W        W24988   0.368  13.367   2.060 -0.2186  0.1510 -0.0732
 9180W        W24989   3.198  18.583   1.166 -0.0001  0.1298  0.1192
 9181W        W24990   1.287   2.084   4.957  0.2453 -0.0601 -0.3747
 9182W        W24991  12.458  15.323   2.489  0.1011 -0.1076 -0.1494
 9183W        W24992   2.735   9.151  13.679  0.4397  0.2816 -0.1653
 9184W        W24993   7.370   9.341   9.610 -0.0242 -0.1297 -0.0948
 9185W        W24994  17.397  13.218   3.174  0.2662 -0.3495 -0.0715
 9186W        W24995   1.089   8.394  12.536 -0.3247  0.2325 -0.0431
 9187W        W24996  14.553  13.793   4.144 -0.1822  0.1182 -0.2173
 9188W        W24997  15.130   8.576   0.979  0.1902  0.4128  0.1818
 9189W        W24998   0.891  11.029   0.518  0.0714 -0.0961  0.1808
 9190W        W24999   7.881   1.080  10.569 -0.3236  0.0693  0.0926
 9191W        W25000  10.094  17.317   1.817  0.1550  0.0781  0.1285
 9192W        W25001  11.614   4.213  10.774  0.2228 -0.0903 -0.0275
 9193W        W25002   2.444  12.599   3.314  0.0204  0.0424 -0.1295
 9194W        W25003   6.529   1.036   1.561 -0.1534  0.2608  0.2556
 9195W        W25004  17.817  13.701   5.076 -0.1612 -0.1627  0.0338
 9196W        W25005   6.357  10.583   4.720 -0.0526 -0.4975 -0.2561
 9197W        W25006   0.200  16.951   4.739  0.4940  0.2089  0.3183
 9198W        W25007   8.426   7.340  12.603 -0.3449 -0.2775  0.2272
 9199W        W25008  14.295  15.796  14.761  0.1850 -0.0017 -0.1786
 9200W        W25009   1.607   7.185   4.267 -0.1697  0.0969 -0.0229
 9201W        W25010   5.231  13.568   0.014  0.1962 -0.2484 -0.4922
 9202W        W25011  10.650   7.862  11.030 -0.2576  0.0328 -0.1116
 9203W        W25012  12.499   1.979  13.961  0.1635 -0.0889  0.0749
 9204W        W25013   2.542  17.348   1.129 -0.0400 -0.2747 -0.2579
 9205W        W25014   7.732   2.496  10.489 -0.0564  0.1078  0.0658
 9206W        W25015   2.932   8.379   1.013 -0.1417  0.0012 -0.0243
 9207W        W25016   3.994   1.520  11.831  0.1654 -0.0199 -0.1205
 9208W        W25017   4.504   3.256  10.946 -0.2680  0.1043  0.1916
 9209W        W25018  18.966   7.796   5.095 -0.1001  0.5083 -0.3662
 9210W        W25019  15.371  14.673   4.243  0.4015 -0.1235 -0.0901
 9211W        W25020   8.652   7.310   2.020 -0.4182 -0.1524  0.0686
 9212W        W25021  16.355  10.407   0.575 -0.0641  0.3369  0.3770
 9213W        W25022   5.818   3.676  13.082 -0.0076 -0.1586 -0.0730
 9214W        W25023  18.765  11.580  14.248  0.2085 -0.0378 -0.5023
 9215W        W25024  14.929  14.872   5.922  0.0698 -0.1666  0.4383
 9216W        W25025   3.954  18.455  11.623  0.0037 -0.0276 -0.1664
 9217W        W25026  13.925   5.295   0.750  0.1953 -0.1033 -0.0521
 9218W        W25027   4.945   8.672   0.179  0.1294  0.2307  0.2886
 9219W        W25028   3.204  16.813  13.836 -0.3383 -0.1816  0.0001
 9220W        W25029  18.977  12.849   2.575  0.1389 -0.0368 -0.3451
 9221W        W25030   0.999   5.858   2.223 -0.1468 -0.2695  0.0513
 9222W        W25031   0.027   3.247  14.467 -0.0835  0.0640  0.0354
 9223W        W25032   5.344   3.724  12.872 -0.0213  0.2348  0.0197
 9224W        W25033  16.677  18.977   1.015 -0.3391  0.0919  0.0171
 9225W        W25034  13.515   7.802  12.573  0.0078  0.1799 -0.0541
 9226W        W25035   8.114   8.304   0.469  0.1654  0.3474 -0.4736
 9227W        W25036  12.760  18.226   1.620 -0.1717  0.4425  0.0420
 9228W        W25037  10.687   1.053   5.342  0.2894 -0.1686  0.0627
 9229W        W25038  16.165  12.293   0.010 -0.1556 -0.2335  0.0625
 9230W        W25039   8.894   9.072  12.706 -0.0455  0.0678  0.2058
 9231W        W25040  12.683   0.926   0.168 -0.0425 -0.1910  0.0289
 9232W        W25041  14.623  17.981   1.998 -0.0488  0.1736  0.0222
 9233W        W25042   3.644  17.629   3.055  0.1404 -0.1979  0.0291
 9234W        W25043  17.426  14.852  12.027 -0.1016 -0.0632  0.4769
 9235W        W25044   8.312   6.913   5.076  0.0894  0.1784 -0.1722
 9236W        W25045  11.565   6.705  11.468 -0.1879  0.0581  0.0357
 9237W        W25046   1.513  11.472  15.248  0.2023 -0.0138 -0.0484
 9238W        W25047   2.018  13.505  11.153  0.0745 -0.2207 -0.1702
 9239W        W25048  13.053   1.815   4.004  0.1749  0.1123 -0.3941
 9240W        W25049   9.161  16.134   1.909 -0.1475 -0.1990 -0.0912
 9241W        W25050  17.030   2.644   2.521  0.3163  0.0141 -0.0225
 9242W        W25051  18.982  12.017   2.580 -0.1865  0.1338  0.2455
 9243W        W25052  11.302  11.732   4.216 -0.2342 -0.0602  0.1745
 9244W        W25053  15.176  18.631   4.363  0.2036  0.1642 -0.1485
 9245W        W25054   7.349   7.271  15.228 -0.0867 -0.3466  0.2902
 9246W        W25055  12.979   7.887  10.775 -0.3342  0.3517 -0.2198
 9247W        W25056   1.991  17.339   3.555  0.1340 -0.0925  0.1486
 9248W        W25057  10.253   8.056   2.000  0.1704 -0.2619  0.1263
 9249W        W25058  12.673   7.052  10.941  0.0579 -0.0358 -0.4524
 9250W        W25059  10.105   3.096   3.630 -0.2596  0.1950 -0.2231
 9251W        W25060  14.205   8.205   4.660 -0.1949  0.1722  0.1838
 9252W        W25061   7.380   4.881   1.293 -0.1176  0.0282 -0.1215
 9253W        W25062   1.530   2.248   0.086 -0.0158  0.0303 -0.1798
 9254W        W25063   6.780   4.080  10.536  0.1262  0.0014 -0.0161
 9255W        W25064   6.099   7.329  14.089 -0.0811  0.0204 -0.1263
 9256W        W25065  18.371   5.912  10.905  0.3407 -0.0419  0.0486
 9257W        W25066   9.013   6.848   0.692 -0.1070 -0.0344 -0.0700
 9258W        W25067   5.235  12.748   0.288 -0.2186 -0.0440  0.0412
 9259W        W25068  10.176   0.121  11.985  0.0279  0.0599 -0.1703
 9260W        W25069  11.776  15.567  13.963  0.1935 -0.1826  0.1456
 9261W        W25070  14.427   6.830  11.635 -0.1581 -0.3627 -0.1243
 9262W        W25071   5.082  13.606   1.770 -0.0510  0.1397  0.0388
 9263W        W25072   0.336  16.519  14.555 -0.0657  0.0552  0.0106
 9264W        W25073  11.215  10.501  14.505  0.0696  0.0487 -0.0239
 9265W        W25074   2.536  13.273   3.605  0.0487 -0.0028 -0.1535
 9266W        W25075   5.761  18.025   1.854  0.0661  0.2897  0.0111
 9267W        W25076  12.125   9.123  11.124  0.1019 -0.1672 -0.1834
 9268W        W25077   0.659  16.293  10.200 -0.0688  0.1279 -0.1928
 9269W        W25078   7.150   9.880   2.339 -0.1313 -0.2143 -0.0862
 9270W        W25079  16.499  17.870   3.900 -0.0417  0.3246 -0.3518
 9271W        W25080   0.320   0.176  11.848  0.0976  0.1401  0.2707
 9272W        W25081  12.394  10.339   4.998 -0.3368 -0.2860 -0.4725
 9273W        W25082  15.309  16.704  14.768  0.3491 -0.0250 -0.2874
 9274W        W25083  12.699   9.655   5.620  0.1551 -0.1058 -0.1022
 9275W        W25084   2.599   3.683   2.811 -0.2516 -0.1145  0.1105
 9276W        W25085  18.770   9.762  10.096 -0.2965 -0.3163  0.0986
 9277W        W25086   9.143   8.987   3.980  0.1364 -0.1084  0.0467
 9278W        W25087  17.864   7.081  13.864 -0.0279  0.0772  0.0766
 9279W        W25088   5.762  11.526  14.431  0.0157 -0.0838  0.1525
 9280W        W25089   9.260  18.698   3.923 -0.1157 -0.1001 -0.3662
 9281W        W25090  15.871  10.514  15.091 -0.1495  0.0259  0.2568
 9282W        W25091  18.233  17.297   2.267  0.0602 -0.0900 -0.3333
 9283W        W25092   5.817  12.836  10.436 -0.0296 -0.2393  0.1118
 9284W        W25093   4.805   4.378  12.917 -0.3172 -0.0028  0.1433
 9285W        W25094  16.653  14.996  13.439 -0.2456 -0.1605  0.1295
 9286W        W25095  18.352   4.616  13.801  0.0351 -0.0303  0.5002
 9287W        W25096  15.184   6.765  11.939  0.0327  0.2453 -0.2148
 9288W        W25097   9.411  12.520   1.646  0.1067  0.1209 -0.1609
 9289W        W25098   9.108  17.175   0.488  0.1581  0.1783 -0.1813
 9290W        W25099  12.928  11.734  12.114 -0.1410 -0.1637 -0.2370
 9291W        W25100   1.575  12.559  14.265 -0.3123  0.0447 -0.1921
 9292W        W25101   2.752   3.212   4.867  0.1141  0.0912 -0.0099
 9293W        W25102  18.921  17.677  14.265  0.1379  0.0149 -0.1111
 9294W        W25103   8.994  12.810  14.614 -0.2048 -0.1309  0.0636
 9295W        W25104   0.366  16.316   4.029 -0.0328 -0.0291 -0.1203
 9296W        W25105   7.798  15.803   0.893  0.3164 -0.0238 -0.1049
 9297W        W25106   8.019   8.521   1.955  0.0973  0.1114  0.1236
 9298W        W25107   8.281  15.567  10.546 -0.2444  0.0105 -0.1848
 9299W        W25108  10.622  13.516  12.404 -0.3432 -0.2198 -0.2981
 9300W        W25109   0.742  18.132   4.580  0.0044  0.3219  0.1600
 9301W        W25110  10.789   5.685  14.723  0.1011 -0.2513  0.3606
 9302W        W25111  16.013   6.541  14.728 -0.0920 -0.0415 -0.4034
 9303W        W25112   9.024  19.017  11.969  0.2136  0.2563 -0.0396
 9304W        W25113   3.450   1.669  11.560  0.3657 -0.3363  0.0536
 9305W        W25114  14.370   0.366  11.389  0.2268  0.0141 -0.6335
 9306W        W25115  12.423  11.547  12.240 -0.3533  0.2902 -0.1297
 9307W        W25116   4.362   0.483  13.476 -0.0154 -0.1108  0.0481
 9308W        W25117  14.838   8.625   2.567  0.1448  0.3610  0.1381
 9309W        W25118   1.046   7.143   1.373  0.0533  0.0001 -0.2144
 9310W        W25119  18.707   5.701   2.153  0.0126 -0.2709 -0.2407
 9311W        W25120   8.956   1.996  10.409 -0.1795  0.4481  0.2806
 9312W        W25121   8.429   0.180   3.980 -0.0786 -0.2676 -0.0472
 9313W        W25122   3.102  18.343   3.064  0.0664 -0.0358 -0.1617
 9314W        W25123  11.571  10.144   3.675  0.0818 -0.0318 -0.0540
 9315W        W25124  11.756  16.260   4.690 -0.1052  0.2653  0.0855
 9316W        W25125  15.362  16.834  10.483 -0.0905  0.0899  0.1441
 9317W        W25126   1.041  18.805   3.722 -0.1692 -0.0331 -0.0862
 9318W        W25127   4.239   7.578  11.873  0.1589  0.0795 -0.2465
 9319W        W25128   8.223  10.197  12.372  0.1653 -0.3952 -0.0889
 9320W        W25129   1.608   5.138   1.911  0.4548 -0.0477  0.2254
 9321W        W25130  10.599   3.923  13.813  0.0995  0.2107 -0.1191
 9322W        W25131  12.413  11.632   9.916  0.3513  0.0869  0.3324
 9323W        W25132   7.268   5.427  14.664 -0.1646 -0.1730  0.0465
 9324W        W25133  17.035  12.013   3.285 -0.4393  0.0169 -0.1451
 9325W        W25134  12.400   3.812  14.657 -0.1087 -0.0931  0.0230
 9326W        W25135  13.886   6.896   4.031  0.2086  0.3910 -0.2004
 9327W        W25136  12.553  12.672   0.615  0.2554  0.3258 -0.0923
 9328W        W25137   9.686  10.864  12.683 -0.0261 -0.1075  0.4254
 9329W        W25138  12.085   8.629   0.801  0.0910  0.2091 -0.0990
 9330W        W25139   8.394   0.123   0.818 -0.1864 -0.1065 -0.1022
 9331W        W25140  10.198  16.455  12.695 -0.0169 -0.1784 -0.1548
 9332W        W25141   0.129   0.385  10.859  0.0240 -0.2251 -0.0191
 9333W        W25142   6.981  18.051   3.898  0.0073 -0.0532  0.2267
 9334W        W25143   8.124  11.902  14.502 -0.0842 -0.1016  0.0170
 9335W        W25144  16.331  11.842  14.960  0.0446 -0.3474  0.1279
 9336W        W25145   8.898  17.054  14.508  0.1301  0.3473 -0.2690
 9337W        W25146   2.794   2.686   0.035  0.3144 -0.1334  0.1702
 9338W        W25147   1.347   0.885   3.944  0.2255  0.3566 -0.0048
 9339W        W25148   3.705   1.196   0.818 -0.4179 -0.0993 -0.0877
 9340W        W25149   9.277  19.057   1.542 -0.5334 -0.1634 -0.2807
 9341W        W25150   9.834  18.128  14.336  0.2608 -0.3687  0.1793
 9342W        W25151  10.495   6.006   0.538 -0.0754 -0.5099 -0.2708
 9343W        W25152  16.214   9.538  12.286 -0.0632  0.4523 -0.0201
 9344W        W25153   2.215   0.246   4.481  0.1154  0.1736 -0.3743
 9345W        W25154   8.299   5.626   0.796  0.4774 -0.0703 -0.0080
 9346W        W25155   5.800   9.941  14.411 -0.0563  0.0076 -0.2212
 9347W        W25156  15.666   2.686   2.589  0.1427 -0.2287  0.1713
 9348W        W25157  10.974   3.271   4.596  0.2645 -0.0800  0.0527
 9349W        W25158   4.597   4.634   3.595 -0.3160  0.0820 -0.1517
 9350W        W25159  17.455  10.837  15.179 -0.0564  0.0254 -0.0903
 9351W        W25160  13.800  14.763   2.097  0.0831  0.1996 -0.0963
 9352W        W25161   8.990  18.557   4.960  0.0360  0.2055  0.1505
 9353W        W25162  15.477  16.426  12.641 -0.2317 -0.1694 -0.0712
 9354W        W25163   8.815  15.085  14.264 -0.1951 -0.0870 -0.0632
 9355W        W25164   4.892  18.757  14.129  0.2306 -0.1501  0.1784
 9356W        W25165   3.398  14.009   2.989  0.1379  0.1557 -0.0339
 9357W        W25166  15.530   1.308   4.399 -0.0609  0.2521  0.0143
 9358W        W25167   2.396   7.327   1.717 -0.0893 -0.0371  0.2054
 9359W        W25168  10.860   6.069   5.170 -0.1254 -0.0119 -0.2079
 9360W        W25169   8.784  14.502  10.757 -0.0849  0.2739  0.2505
 9361W        W25170   3.540   3.208   2.697 -0.3795 -0.0844  0.5040
 9362W        W25171  10.459  13.668   4.116  0.0466 -0.1286 -0.1655
 9363W        W25172   2.931  18.168  14.648  0.0163  0.0366 -0.1839
 9364W        W25173   3.845  15.055  15.071  0.2086 -0.2790  0.4700
 9365W        W25174  14.142   6.161   1.276  0.0719  0.2531 -0.0407
 9366W        W25175   4.626   5.113   3.213 -0.1609  0.2169 -0.2579
 9367W        W25176   2.213   0.835   2.617  0.2496  0.2006  0.2189
 9368W        W25177  12.456  14.773   0.937 -0.1391  0.2194 -0.2285
 9369W        W25178  12.532  13.624   1.091  0.1198  0.0215 -0.0687
 9370W        W25179   0.610   6.113  13.665 -0.4686 -0.2202  0.0780
 9371W        W25180   3.381   7.269   3.745 -0.0881  0.3023 -0.0990
 9372W        W25181  16.884  14.381  14.147  0.1097  0.1123 -0.0453
 9373W        W25182  11.018  17.030   3.760 -0.2825 -0.0723 -0.0513
 9374W        W25183  10.653   5.451   4.005  0.0013 -0.3125  0.0825
 9375W        W25184  14.065   8.811   0.518 -0.2911  0.0344  0.0184
 9376W        W25185  10.667   7.747   1.821 -0.1917  0.2462 -0.0453
 9377W        W25186  12.764   7.622  11.674 -0.0032  0.1593 -0.2445
 9378W        W25187   7.096   9.370  13.476 -0.0920  0.3306  0.3664
 9379W        W25188   3.924  16.167   4.418 -0.0391 -0.0316  0.0229
 9380W        W25189   5.674   4.096   0.779 -0.0673  0.2992  0.0511
 9381W        W25190   6.648   2.753  15.157 -0.0792  0.1002  0.3198
 9382W        W25191   5.062  14.247  12.081  0.2443  0.0354  0.3442
 9383W        W25192   8.487   1.060   4.850 -0.3961  0.1245 -0.2224
 9384W        W25193  16.624   9.154  12.158  0.3074  0.1885  0.1338
 9385W        W25194  14.587   2.065  14.743 -0.2744  0.0509  0.0556
 9386W        W25195  15.779   4.738  14.526  0.0083  0.2204 -0.0886
 9387W        W25196  16.344   9.581   3.104 -0.2168  0.3381  0.1380
 9388W        W25197   2.445   7.349  14.429 -0.1889 -0.0130 -0.1492
 9389W        W25198   4.106  10.183   4.454 -0.0552  0.0910 -0.0899
 9390W        W25199  17.065  12.971  11.316 -0.0441  0.2889  0.3846
 9391W        W25200  10.377   7.925   0.084 -0.0982  0.2724 -0.1999
 9392W        W25201   0.623  14.811   0.489  0.2490 -0.1288  0.1009
 9393W        W25202   0.506   4.124   1.965 -0.0077  0.2814  0.0578
 9394W        W25203  11.613   5.936  14.569 -0.2340  0.3000 -0.2591
 9395W        W25204   4.247   4.227  12.645  0.1523 -0.0435 -0.0280
 9396W        W25205   6.314   7.029  12.388  0.0035 -0.4529  0.1366
 9397W        W25206  13.910   6.172   2.485  0.1834  0.4168 -0.1272
 9398W        W25207  13.901   4.994   4.635 -0.1275 -0.0703  0.3620
 9399W        W25208   7.911  16.487  12.565 -0.0845 -0.1094 -0.0407
 9400W        W25209  13.659  10.227  14.060 -0.0734 -0.1990 -0.2036
 9401W        W25210   2.629  10.678   2.358  0.0585  0.0850 -0.5096
 9402W        W25211  18.295  15.465   5.130  0.1493  0.1302  0.1064
 9403W        W25212   8.661   3.269   3.582  0.3235  0.1732  0.0047
 9404W        W25213  17.468  18.334  13.244 -0.0678  0.1412  0.0140
 9405W        W25214   4.037  13.581  15.110  0.2362  0.1513 -0.0899
 9406W        W25215   7.219  15.529  14.029 -0.2477  0.1481  0.0320
 9407W        W25216  13.595   1.331   4.781  0.1648  0.1702 -0.1792
 9408W        W25217   9.873  13.242   0.482  0.1605  0.3885  0.1848
 9409W        W25218   4.613   1.708   3.733  0.0865 -0.5386  0.0326
 9410W        W25219   9.472   6.579   1.724  0.0068  0.4460  0.0786
 9411W        W25220  11.800   4.987   3.233 -0.3303  0.0614  0.1049
 9412W        W25221   5.068   4.775   3.961 -0.0752 -0.0210  0.0421
 9413W        W25222  18.885  13.906  13.321  0.1389  0.1577  0.2033
 9414W        W25223  11.208  13.149  10.570  0.2359  0.2541  0.1953
 9415W        W25224   3.401   2.400   5.167 -0.0526  0.2078  0.1120
 9416W        W25225   2.010  12.924  13.604 -0.0841  0.0307  0.1191
 9417W        W25226   0.010   9.737   2.448  0.1485  0.2600 -0.1976
 9418W        W25227   7.791  13.458   2.400 -0.2272  0.1370  0.2709
 9419W        W25228   8.933  12.448  11.327  0.0464 -0.2596 -0.1892
 9420W        W25229  14.700   2.044   5.225 -0.4511  0.0197 -0.0109
 9421W        W25230   7.086   6.489  14.798  0.0364 -0.1677 -0.3219
 9422W        W25231  14.452  10.788   4.406 -0.0187  0.0173  0.0144
 9423W        W25232  11.131  18.654  12.815  0.2583 -0.2359  0.0795
 9424W        W25233  18.753   1.852   1.490 -0.0022  0.0965 -0.0813
 9425W        W25234   7.927  13.045   5.363  0.3231 -0.0950 -0.0513
 9426W        W25235   5.567  18.643  10.989  0.1872 -0.0105  0.0303
 9427W        W25236   8.025   2.701  14.695 -0.0070  0.3004  0.0164
 9428W        W25237   6.513   7.799  13.204 -0.0635  0.1824 -0.1301
 9429W        W25238  12.162   8.932   4.741 -0.0761  0.0957  0.0057
 9430W        W25239   7.099   4.680  12.210  0.0927 -0.1281  0.0588
 9431W        W25240  11.212   3.078  13.776 -0.0103  0.1379  0.3975
 9432W        W25241   3.703   0.165   3.361  0.1000  0.1153  0.1667
 9433W        W25242   5.673   3.936  12.516 -0.1087  0.0222 -0.3294
 9434W        W25243   8.795  15.104   0.015 -0.3590 -0.2718 -0.1285
 9435W        W25244  10.422   3.572  13.443 -0.2379  0.3433  0.2429
 9436W        W25245   0.231   3.143  11.246 -0.4410 -0.3949 -0.0845
 9437W        W25246  19.133  18.431  14.851 -0.1844  0.1463 -0.0749
 9438W        W25247  15.019   1.614   3.189 -0.1538  0.1295 -0.0803
 9439W        W25248  17.644  11.605   1.652  0.0509  0.5810 -0.3049
 9440W        W25249  16.062   7.668   5.153 -0.2624 -0.1593 -0.5572
 9441W        W25250   1.819   7.029   1.269 -0.0115 -0.0257  0.1048
 9442W        W25251  17.309  16.277   3.277  0.1368  0.2300  0.0694
 9443W        W25252   1.977  17.335   0.598 -0.1830  0.1531  0.3421
 9444W        W25253  18.548  17.574  12.137  0.2411 -0.0788 -0.3398
 9445W        W25254  12.882   1.901   4.514 -0.1955  0.0756  0.1681
 9446W        W25255   0.570  17.868  13.174  0.0116 -0.0032  0.0982
 9447W        W25256   0.363  12.273  13.066 -0.2180 -0.0473 -0.1568
 9448W        W25257   9.422   5.386  11.681  0.1389 -0.0705 -0.1611
 9449W        W25258   8.997   1.459  10.276 -0.1192  0.1123  0.0202
 9450W        W25259   1.560  15.912   1.048  0.0516  0.2870 -0.0336
 9451W        W25260  15.051   2.151   0.626 -0.2451 -0.2349  0.2301
 9452W        W25261   3.193   7.564   1.030  0.2047  0.1460  0.5483
 9453W        W25262  18.383  10.813   1.435  0.3258  0.0439  0.0162
 9454W        W25263  10.155   6.935  11.477  0.2804  0.2126 -0.4143
 9455W        W25264   1.934   1.063   4.776 -0.0183 -0.1356 -0.0820
 9456W        W25265  10.478   2.547  10.811  0.0667 -0.1995  0.0284
 9457W        W25266   3.540  10.328   2.183 -0.0265  0.1249 -0.2406
 9458W        W25267  13.629   7.004  13.255  0.2211  0.1677  0.0240
 9459W        W25268  15.251   9.947   2.971  0.1931 -0.1231  0.0366
 9460W        W25269  17.491   9.565  11.753  0.0771  0.0413  0.1643
 9461W        W25270  15.975  11.792  12.977  0.2132  0.0542 -0.0152
 9462W        W25271   5.313  12.554   5.176  0.0794  0.0662  0.0685
 9463W        W25272  11.604   1.617   4.070  0.1580  0.0159 -0.1216
 9464W        W25273  15.120  15.638   2.194  0.0227 -0.5088  0.1872
 9465W        W25274   3.338   8.802   1.667  0.3728 -0.2502  0.0026
 9466W        W25275   1.337  14.494  12.740 -0.2330  0.0166 -0.1511
 9467W        W25276  10.200  17.356  12.791 -0.1457 -0.1057  0.1077
 9468W        W25277   0.861   9.040  10.517 -0.1541  0.0803  0.0917
 9469W        W25278  12.242   6.802   5.555 -0.1779  0.4090  0.0103
 9470W        W25279   4.632   6.271   1.914  0.0079  0.3549 -0.2584
 9471W        W25280  17.330  15.847  12.923  0.1281 -0.0126 -0.1276
 9472W        W25281   8.690   5.543  12.347 -0.0402  0.0196 -0.1613
 9473W        W25282   0.308   2.382   2.379 -0.1404 -0.2952 -0.3712
 9474W        W25283  12.914   2.658   0.714  0.3271  0.3011  0.3554
 9475W        W25284  10.402  10.178   0.795  0.0563  0.2889 -0.1336
 9476W        W25285   3.512  18.509   1.679  0.4673 -0.2042  0.0877
 9477W        W25286   4.380   5.016   1.749 -0.3313 -0.0941  0.0116
 9478W        W25287   6.851   7.932  13.565  0.1969  0.0370  0.4437
 9479W        W25288   8.373   3.733   4.337 -0.0728 -0.0377 -0.3501
 9480W        W25289   8.875  13.387   0.248  0.0295  0.1185  0.2864
 9481W        W25290  11.296  13.512  15.080 -0.0618 -0.2348  0.3034
 9482W        W25291   3.024   0.673   2.966 -0.3838  0.0128 -0.1344
 9483W        W25292   0.767   5.710  13.329  0.1485 -0.0719 -0.1971
 9484W        W25293   6.785   7.919  12.552 -0.1378 -0.1069  0.1763
 9485W        W25294   0.199  14.515   2.939  0.1242  0.0851 -0.0501
 9486W        W25295   9.707   6.329   0.975  0.4448 -0.0027 -0.1464
 9487W        W25296   7.493  13.967   1.139 -0.2256 -0.1325  0.1511
 9488W        W25297   0.490  14.348   5.237 -0.0165  0.1037 -0.1407
 9489W        W25298   7.587   6.936  10.033  0.0602 -0.0940 -0.1087
 9490W        W25299   7.664  10.893  13.772 -0.2761  0.1615 -0.0211
 9491W        W25300   1.998  12.222   4.157  0.1854  0.0407 -0.1038
 9492W        W25301   1.826   8.237  14.470 -0.0645 -0.2070 -0.1591
 9493W        W25302   8.392   9.011  12.723 -0.2373 -0.1952 -0.2830
 9494W        W25303  15.712  11.000   0.656  0.1925 -0.0193 -0.0845
 9495W        W25304  12.655   3.727   3.221 -0.0767  0.1631 -0.0430
 9496W        W25305   0.109  14.664   0.316 -0.0816  0.2172 -0.3960
 9497W        W25306  14.285  11.359   2.339 -0.1725  0.1058 -0.0974
 9498W        W25307   4.576   0.466  11.853  0.2229  0.2034  0.0568
 9499W        W25308   1.560  16.806   2.201  0.2670 -0.1818 -0.0756
 9500W        W25309   9.605  16.547  12.626 -0.0844  0.3126  0.0435
 9501W        W25310   3.909  15.295  11.831 -0.1429 -0.2180  0.0353
 9502W        W25311  11.619   7.579  12.997  0.1624  0.3615 -0.0370
 9503W        W25312   2.306  13.390   4.991  0.0441  0.0850  0.0130
 9504W        W25313  13.550  17.650  11.334 -0.1092  0.3337  0.1703
 9505W        W25314   5.909   0.600   3.691  0.2071 -0.2536  0.2749
 9506W        W25315   6.655  17.948  14.421  0.0141  0.1648  0.2811
 9507W        W25316   9.740  18.030  11.527  0.2197 -0.1205  0.3708
 9508W        W25317   7.353   1.012  10.699 -0.1625 -0.1339 -0.2092
 9509W        W25318   3.557   1.907  12.927  0.0678 -0.2092 -0.0434
 9510W        W25319   2.452  10.345   2.777  0.0328 -0.2130  0.2292
 9511W        W25320  14.549   6.728   0.331  0.1164  0.2844 -0.0857
 9512W        W25321   1.965   6.551  14.150 -0.3704 -0.0761 -0.0150
 9513W        W25322   3.748  17.314  12.310 -0.2578  0.0702  0.0010
 9514W        W25323   4.379  11.713  11.693  0.3033 -0.0299 -0.0113
 9515W        W25324  12.270  11.583  14.263 -0.0886 -0.5367 -0.1590
 9516W        W25325  18.529   4.384  14.635 -0.0743 -0.2126 -0.3043
 9517W        W25326   5.896   4.830   2.208 -0.2735 -0.0327  0.3134
 9518W        W25327   6.539   8.284  13.433  0.1590  0.4756 -0.2511
 9519W        W25328  18.639  11.371   4.621 -0.2189  0.1813  0.0713
 9520W        W25329  11.526   5.988  14.118 -0.0615 -0.1577  0.0643
 9521W        W25330   4.434  12.170   4.470  0.0756  0.1360 -0.2679
 9522W        W25331   6.391   8.836   0.670  0.1711  0.0198 -0.5556
 9523W        W25332  17.916   9.597   3.442  0.0752 -0.1014 -0.1435
 9524W        W25333   7.988  13.764  14.756 -0.1015 -0.1252  0.0566
 9525W        W25334   8.344   1.469   4.633  0.0463 -0.3012 -0.2335
 9526W        W25335   5.611   0.991  14.118  0.2384 -0.3229  0.3515
 9527W        W25336   1.369  17.356  13.371 -0.2852  0.3155 -0.0391
 9528W        W25337   0.086   7.052  11.396 -0.1460 -0.0299 -0.0038
 9529W        W25338   9.010   5.709   4.825  0.2252  0.1738 -0.2560
 9530W        W25339  17.968  18.303  13.946  0.0360  0.1317 -0.0333
 9531W        W25340  10.011  13.143  11.389 -0.1977  0.0343  0.3305
 9532W        W25341   8.286   8.760  10.965  0.1333 -0.1574 -0.1142
 9533W        W25342  10.710  16.634  10.200 -0.0569 -0.3752 -0.2264
 9534W        W25343   8.883  13.448  13.130  0.0716 -0.3576 -0.0324
 9535W        W25344  15.956  16.059   3.405 -0.1677  0.0883  0.0904
 9536W        W25345   5.177   5.172   3.626 -0.1426  0.2675  0.0925
 9537W        W25346  14.516  12.489   2.500 -0.2472 -0.0537 -0.0983
 9538W        W25347  10.357  13.244  15.254  0.1495  0.1287 -0.0150
 9539W        W25348  15.974  10.522   4.537 -0.0568  0.1002  0.0352
 9540W        W25349   6.918  16.623  12.582  0.2149  0.0532 -0.1040
 9541W        W25350   0.377   0.172   2.017  0.1774 -0.0134 -0.1219
 9542W        W25351   5.594  10.178   0.835 -0.0794  0.1166  0.1160
 9543W        W25352   6.311   8.146  14.491  0.3080 -0.1914  0.0960
 9544W        W25353   4.751  12.543   3.631 -0.2438  0.1903  0.0771
 9545W        W25354  12.806   4.449   0.160 -0.3357 -0.0986  0.2639
 9546W        W25355  13.552   1.713  10.349 -0.6552 -0.0767 -0.0343
 9547W        W25356   1.480   9.562   3.633 -0.1783 -0.3821  0.1017
 9548W        W25357   5.523   1.331   2.216 -0.0273  0.0276 -0.0477
 9549W        W25358   8.204  17.509   0.406 -0.0930 -0.1216 -0.2258
 9550W        W25359   3.365   9.826   3.821  0.0448  0.3536 -0.1474
 9551W        W25360   1.056  14.025   0.584  0.3912  0.1592 -0.0502
 9552W        W25361  15.316   9.185  14.114 -0.2233 -0.0152  0.0460
 9553W        W25362   6.402  18.847   4.817 -0.5605 -0.0677 -0.1794
 9554W        W25363  14.105   1.764  11.339 -0.1537  0.0518 -0.0889
 9555W        W25364   9.855   4.430  13.795 -0.1333  0.0852  0.2805
 9556W        W25365   5.026   6.561   2.064  0.1190 -0.2637  0.0144
 9557W        W25366   9.800   9.654   4.243  0.0790  0.0574 -0.1830
 9558W        W25367   1.269  14.948   4.986  0.0625 -0.1000 -0.0038
 9559W        W25368   1.545   9.413   2.604 -0.2636 -0.1219 -0.0225
 9560W        W25369   4.568  16.358   1.984 -0.1984 -0.0556 -0.4670
 9561W        W25370   5.191  18.662   2.997  0.0721 -0.2131  0.2627
 9562W        W25371  10.754   6.833   4.007  0.1116 -0.2405 -0.1654
 9563W        W25372  14.253   6.086  14.099 -0.0556 -0.1126 -0.2727
 9564W        W25373  17.918  18.238   3.613  0.2202  0.0229  0.1384
 9565W        W25374   3.814  12.923  11.184  0.1491  0.0082  0.3273
 9566W        W25375   8.652  15.527   3.469 -0.0717 -0.2400  0.0384
 9567W        W25376  13.450  15.429   5.752  0.1836 -0.0306 -0.0429
 9568W        W25377  14.182   4.946  13.156  0.1507 -0.4487  0.2838
 9569W        W25378   8.380   5.359   2.514 -0.0691 -0.2814  0.0572
 9570W        W25379   7.638  13.512   3.129  0.2866  0.1938  0.0290
 9571W        W25380  12.989   9.488  11.988  0.0653 -0.1103  0.1332
 9572W        W25381   0.361   7.675   2.662 -0.0935  0.3048  0.0474
 9573W        W25382  10.144  11.280  11.281 -0.2222  0.3424  0.2051
 9574W        W25383   6.608  16.288  10.554  0.3745  0.2858  0.0395
 9575W        W25384   3.280   8.092  13.075 -0.0313 -0.1867  0.1612
 9576W        W25385   5.425  12.761   4.343  0.3604  0.0260  0.0059
 9577W        W25386  13.291   0.883   1.456 -0.2364 -0.2640  0.0012
 9578W        W25387   2.806   9.939   3.704 -0.3738 -0.1210 -0.0649
 9579W        W25388  13.254  16.473   5.025 -0.0103  0.2925 -0.2078
 9580W        W25389   4.901   5.477  11.526  0.0712  0.0159 -0.2534
 9581W        W25390  11.712  13.669   3.750 -0.1822 -0.1897  0.1503
 9582W        W25391   9.350   4.865  10.230  0.0998 -0.0692  0.1224
 9583W        W25392  17.463  11.701   5.132  0.0725  0.1858  0.0532
 9584W        W25393  11.929  15.851   1.093 -0.1532  0.3263 -0.0182
 9585W        W25394  11.030  13.777   2.848 -0.1712  0.0536  0.1604
 9586W        W25395   7.188  15.217   9.893  0.1295 -0.2030 -0.0390
 9587W        W25396  16.290   2.807  12.887 -0.1180  0.4492  0.0643
 9588W        W25397   2.237   1.914   3.467  0.2508  0.4079  0.2272
 9589W        W25398  18.764  12.518   3.504  0.1778 -0.0660  0.1206
 9590W        W25399   8.160   1.651  13.145 -0.0785 -0.2679 -0.0346
 9591W        W25400  17.212  12.324  11.936 -0.1026 -0.2444 -0.3259
 9592W        W25401  18.932   7.188   0.587  0.1228 -0.2048  0.0795
 9593W        W25402  19.095   8.534  12.462  0.0413 -0.1632  0.1930
 9594W        W25403  12.408  17.416   1.819 -0.1785  0.1934 -0.1430
 9595W        W25404  16.373  12.624  12.062  0.1100  0.0297 -0.3342
 9596W        W25405  17.324  13.450   4.787 -0.0335  0.0353  0.0847
 9597W        W25406  16.225  17.049   9.938 -0.1215 -0.2246 -0.2089
 9598W        W25407  12.681  13.256   4.836  0.0304  0.2986 -0.0271
 9599W        W25408  11.036  16.384   1.156 -0.2951 -0.1501 -0.0439
 9600W        W25409   7.233  10.736  13.779 -0.1817  0.0430  0.0227
 9601W        W25410   3.454   6.590  13.220  0.1572 -0.0706  0.0551
 9602W        W25411   2.282   3.711   0.849 -0.0085 -0.0983  0.2322
 9603W        W25412  14.004  18.432   0.430 -0.1563  0.1166  0.1179
 9604W        W25413   7.563   5.368   0.186  0.0227 -0.3017  0.0789
 9605W        W25414  15.171  18.279  13.807 -0.0305  0.4563  0.1074
 9606W        W25415   7.994   5.631  11.833  0.0049  0.0726  0.0333
 9607W        W25416  16.910  11.073   1.340 -0.1556 -0.3063 -0.1119
 9608W        W25417  15.821  12.618   1.244 -0.0494  0.0025 -0.1805
 9609W        W25418   2.224   1.469   4.651 -0.0711  0.0754 -0.0422
 9610W        W25419   4.430  16.657   0.620  0.2476  0.0018 -0.1499
 9611W        W25420  14.868   9.530   4.542 -0.3298 -0.0274 -0.3613
 9612W        W25421  12.803  12.884   4.048  0.2120 -0.1832 -0.2024
 9613W        W25422   7.832   1.332  13.637  0.4004 -0.2132  0.2656
 9614W        W25423   0.081   9.196   3.309 -0.0292  0.1305  0.1581
 9615W        W25424   0.537  16.170  12.786 -0.2641 -0.0513 -0.0314
 9616W        W25425  16.852   4.041  14.514 -0.0139 -0.4104  0.5707
 9617W        W25426  15.098  19.103  14.340 -0.0606  0.1761 -0.2303
 9618W        W25427  15.472   6.918   3.403 -0.1017  0.0867 -0.0993
 9619W        W25428   9.604   2.129   4.830 -0.3315  0.5103  0.0776
 9620W        W25429  14.065  11.363  11.177 -0.1775 -0.2974  0.0879
 9621W        W25430   8.045  13.900   0.457  0.1573 -0.0791  0.2303
 9622W        W25431  14.942   0.728   2.633 -0.1065  0.0080 -0.1465
 9623W        W25432  17.787   0.872  14.542  0.2674  0.1151 -0.1437
 9624W        W25433   5.405   4.843   1.506 -0.0592  0.1763  0.2959
 9625W        W25434  15.123   6.841  13.034 -0.0207  0.2069 -0.2163
 9626W        W25435  14.261  16.703   0.132  0.0818  0.0925 -0.1941
 9627W        W25436   7.902   0.244  12.510 -0.2009 -0.1734  0.4604
 9628W        W25437  10.239   4.980  13.121  0.1186 -0.3270 -0.0676
 9629W        W25438   0.208  11.581  14.177  0.1719  0.0522  0.1781
 9630W        W25439  10.112  12.235  10.266 -0.1373  0.2066 -0.2606
 9631W        W25440  17.116  13.087  12.154  0.1595 -0.0015  0.0861
 9632W        W25441   9.760  15.980  13.100  0.2906 -0.0213 -0.1525
 9633W        W25442  10.954   6.116  13.340  0.0719 -0.2206 -0.5674
 9634W        W25443   9.721   5.938  12.773 -0.0310 -0.1208 -0.1149
 9635W        W25444   5.171  17.247  10.388  0.1133 -0.1725 -0.2517
 9636W        W25445   1.100  13.272  12.434  0.1583 -0.0057  0.2126
 9637W        W25446  18.896  15.961  14.221 -0.0832  0.0825  0.0055
 9638W        W25447   1.000   2.264  11.259 -0.4610 -0.2039 -0.0610
 9639W        W25448   6.269   4.864   1.438  0.2320 -0.1490 -0.0015
 9640W        W25449  13.693   1.007  14.715 -0.2670  0.2303  0.1208
 9641W        W25450   2.961   6.518  14.491 -0.3112 -0.2411  0.0158
 9642W        W25451   7.547  13.501  15.265  0.1408  0.1242 -0.3707
 9643W        W25452   2.503   1.166   4.271  0.2026  0.2239 -0.2056
 9644W        W25453   6.683   6.054  12.944  0.1704  0.0380 -0.1190
 9645W        W25454   1.911  15.166  13.113  0.2437 -0.1021  0.1499
 9646W        W25455   6.534   4.779  12.233  0.1500 -0.2671  0.1207
 9647W        W25456  16.744  17.590   1.401 -0.0320 -0.2626  0.1744
 9648W        W25457   8.233  11.253   3.996  0.4117  0.0509  0.1798
 9649W        W25458   0.917  18.609  14.604  0.1718  0.0810  0.3308
 9650W        W25459  17.540  13.557  10.936  0.0304 -0.1979  0.2108
 9651W        W25460   9.288  11.785  10.586 -0.0827 -0.2298 -0.0447
 9652W        W25461   2.603  12.648  11.869  0.1473  0.3415 -0.0072
 9653W        W25462   1.468  14.745   4.024  0.0530  0.0473  0.1232
 9654W        W25463  11.087   7.973  12.591  0.1708  0.2073  0.0090
 9655W        W25464  10.763  12.583   3.517  0.2216 -0.1031  0.0333
 9656W        W25465  11.894   6.581  14.836  0.1741  0.0628  0.3183
 9657W        W25466   3.420  10.123   2.893 -0.2029  0.1503 -0.0737
 9658W        W25467   8.758  15.905  13.947 -0.0910 -0.1594  0.1013
 9659W        W25468  15.097  10.412   3.102 -0.0796 -0.0616 -0.1415
 9660W        W25469  10.218  14.165  10.183  0.2342  0.1093 -0.2687
 9661W        W25470   1.830  12.770   4.264  0.0237 -0.2990  0.0169
 9662W        W25471   8.325  17.259   0.922 -0.5015  0.2062  0.0077
 9663W        W25472  16.436   6.684  11.107 -0.0873  0.4347  0.4491
 9664W        W25473   8.292   8.813   5.650  0.4096  0.1326  0.0210
 9665W        W25474  16.931   6.418   1.841  0.4332 -0.4680  0.0189
 9666W        W25475   2.999   0.476   0.731 -0.0201 -0.4428 -0.0391
 9667W        W25476  18.912  11.241   0.292 -0.0376 -0.0734  0.1066
 9668W        W25477   3.305  14.003   3.477 -0.1053 -0.0311 -0.3799
 9669W        W25478   6.354   9.948  14.559  0.1324 -0.3105  0.1201
 9670W        W25479   1.041  13.708   2.124 -0.2812  0.0612 -0.1923
 9671W        W25480  18.459  15.969  13.673 -0.0858  0.1673 -0.0303
 9672W        W25481   2.703   3.784  15.045 -0.0956 -0.2290 -0.0002
 9673W        W25482  16.348   5.833  15.051  0.0447  0.0672 -0.1116
 9674W        W25483   0.880  12.126  12.363  0.1255 -0.5438 -0.1526
 9675W        W25484  14.821  10.168   4.416 -0.0210 -0.0930 -0.0734
 9676W        W25485  13.277   2.454  14.187 -0.0324  0.0548 -0.6059
 9677W        W25486   3.828  14.093   1.576  0.0542 -0.1036  0.0055
 9678W        W25487  11.316  13.982   5.619 -0.2798 -0.2497  0.0425
 9679W        W25488  15.723  11.315  12.921 -0.3225  0.0908  0.1726
 9680W        W25489   6.584  13.117   2.557 -0.2796 -0.0451  0.0743
 9681W        W25490  14.190   8.945  13.722 -0.2041  0.4577 -0.0491
 9682W        W25491   3.085  10.000  14.194  0.0408 -0.1670  0.0171
 9683W        W25492   4.397  15.507  11.956  0.0852 -0.1252  0.0944
 9684W        W25493   3.267  15.494   4.358  0.0111  0.0857 -0.0457
 9685W        W25494  12.325  18.371   1.937  0.2248  0.1367 -0.3395
 9686W        W25495   7.348  17.008   3.640 -0.0762  0.0145 -0.1601
 9687W        W25496   2.912  16.883   2.822  0.2976  0.1887  0.2708
 9688W        W25497  18.320  14.033   3.715  0.0390 -0.0898  0.0413
 9689W        W25498  11.915   7.050  11.222 -0.0389  0.0475 -0.0679
 9690W        W25499   9.518  17.457  10.769  0.1522 -0.1842 -0.0370
 9691W        W25500  16.876  13.817  11.487  0.1659 -0.0874 -0.0766
 9692W        W25501  11.906  13.448   3.284 -0.1459 -0.0359  0.0732
 9693W        W25502   2.021  11.898   0.545 -0.2165 -0.0496  0.0793
 9694W        W25503  17.983   6.891   4.559 -0.0092  0.1111 -0.1890
 9695W        W25504  11.546  11.892  13.923  0.0363  0.0851 -0.1024
 9696W        W25505   3.052  12.779   4.088 -0.0200  0.2199  0.1382
 9697W        W25506   5.446   9.383   3.058 -0.0523  0.1739  0.1447
 9698W        W25507   4.783  18.586  12.156 -0.0644 -0.0692  0.1743
 9699W        W25508  10.622   5.483   0.245 -0.2148  0.0950  0.2194
 9700W        W25509   4.665  10.607  12.589 -0.1323 -0.0312  0.1570
 9701W        W25510   5.222  14.592  10.514  0.0561 -0.2367 -0.2942
 9702W        W25511   7.634  14.452   4.609  0.1136  0.2281 -0.0738
 9703W        W25512   4.467   7.722   5.481 -0.1026 -0.0324  0.0193
 9704W        W25513  13.802   1.291   4.271 -0.1786 -0.2633 -0.0592
 9705W        W25514   4.660   0.939  10.893  0.0463 -0.1501 -0.0378
 9706W        W25515  11.591   8.093  14.733 -0.1231  0.1240 -0.6505
 9707W        W25516  10.131   0.047   4.726 -0.0393  0.1001  0.2915
 9708W        W25517  15.081  16.227  12.400 -0.1919 -0.0344  0.3978
 9709W        W25518  18.325   6.411   0.800 -0.0168 -0.0626 -0.1521
 9710W        W25519  11.558   4.875  13.132 -0.2433  0.3808 -0.2168
 9711W        W25520   6.583   2.364  13.450 -0.4387 -0.2228  0.0770
 9712W        W25521  14.548  18.725   2.684  0.0480 -0.0915 -0.0627
 9713W        W25522  11.701  17.044   2.131 -0.1112 -0.1080  0.2751
 9714W        W25523   9.863  16.821  14.682 -0.2299 -0.2266 -0.5053
 9715W        W25524   8.691   7.981  14.351  0.1885 -0.3667  0.1306
 9716W        W25525   6.529   8.937   0.182  0.1633  0.0818  0.0269
 9717W        W25526  10.172   4.855  12.630  0.2041  0.1777 -0.4568
 9718W        W25527   6.528  18.008   0.042 -0.1719  0.0931  0.0728
 9719W        W25528  10.991   9.210  14.138 -0.1657  0.1602 -0.2712
 9720W        W25529   8.188   5.880   2.732 -0.0347  0.1116  0.1718
 9721W        W25530   1.197   6.798  13.691  0.5513  0.1292 -0.0932
 9722W        W25531  15.373  14.483  13.101  0.2972  0.1732 -0.2084
 9723W        W25532   4.370  13.916  11.663  0.0129  0.1493 -0.0455
 9724W        W25533   2.102  11.900  12.556 -0.0796 -0.1257 -0.4385
 9725W        W25534  10.138   9.127  10.840 -0.1508  0.1229 -0.2338
 9726W        W25535  17.517   9.887  15.214  0.1526  0.3096  0.0475
 9727W        W25536  11.465  12.020   4.846  0.0769 -0.0691 -0.2271
 9728W        W25537  18.396  16.852   4.787  0.2330 -0.1064  0.0585
 9729W        W25538  13.450  16.621  13.912 -0.0262  0.0530 -0.0932
 9730W        W25539   5.558  15.332   1.652  0.0638  0.0023 -0.3163
 9731W        W25540  14.878   5.685  11.143  0.3461 -0.0665  0.0585
 9732W        W25541   0.527  14.572  11.950 -0.0957  0.1724  0.1353
 9733W        W25542   3.250  10.451   0.228  0.4405 -0.0725 -0.0060
 9734W        W25543   6.507  12.460   4.573 -0.0302  0.2392  0.0352
 9735W        W25544  14.984  17.148   1.793 -0.0215 -0.0629 -0.3041
 9736W        W25545   5.634  12.670   3.945 -0.2254  0.0131  0.0450
 9737W        W25546  14.636  18.546  11.150  0.1425  0.0388  0.0595
 9738W        W25547   7.392  12.261  14.808 -0.0138  0.0072 -0.2093
 9739W        W25548  17.168  11.267  15.182 -0.0756 -0.1485 -0.0203
 9740W        W25549   9.465   3.640   9.535  0.0836 -0.2523 -0.1799
 9741W        W25550   7.317  18.691  10.404  0.3653 -0.0134 -0.0201
 9742W        W25551   8.015   2.439   4.566  0.3065 -0.3747 -0.1141
 9743W        W25552   0.458  17.437  13.708 -0.2645  0.1324  0.0943
 9744W        W25553  10.628   9.774  10.955  0.1804  0.2610  0.0841
 9745W        W25554  11.834  11.305   1.163 -0.0593  0.2484  0.1380
 9746W        W25555   2.605  10.699   4.906 -0.2365 -0.1932  0.1478
 9747W        W25556  13.421  12.409  13.559 -0.0860 -0.1214  0.0037
 9748W        W25557  12.984  12.313  14.668 -0.1030  0.1720  0.1761
 9749W        W25558   1.257  11.153   5.356 -0.1036  0.0331  0.3306
 9750W        W25559   2.771   8.894   1.611 -0.2792 -0.0687  0.3748
 9751W        W25560  15.070   5.149  14.677 -0.2676  0.0729 -0.3335
 9752W        W25561   9.282   5.264  12.178  0.1509 -0.0001  0.0851
 9753W        W25562   4.823   4.638  11.593  0.2012 -0.0948 -0.1855
 9754W        W25563  11.326  14.530   1.703  0.1649  0.0123  0.0464
 9755W        W25564  18.863   5.018  13.150 -0.1719 -0.2418 -0.1840
 9756W        W25565  13.657  13.521   2.225  0.3774  0.0564 -0.2891
 9757W        W25566  11.440  16.662  14.919  0.0179  0.0909 -0.0138
 9758W        W25567   0.760   4.427   0.191 -0.0894  0.3262 -0.1562
 9759W        W25568   1.045   2.201   1.053 -0.1430  0.0569 -0.0365
 9760W        W25569  18.374  11.789   4.405  0.1919  0.2322  0.2672
 9761W        W25570  18.788  12.395  14.773  0.1310  0.3120  0.1262
 9762W        W25571  14.103   2.483  12.808 -0.1288  0.2578 -0.5484
 9763W        W25572  15.016   9.161  12.665  0.0181  0.0090  0.0844
 9764W        W25573  12.446   5.765  14.328  0.0287  0.3969 -0.2072
 9765W        W25574  18.706   5.073   3.750  0.0439 -0.1989  0.2297
 9766W        W25575  15.610   9.757   1.377 -0.1509  0.1322 -0.2285
 9767W        W25576  17.601   5.449  10.059 -0.3554 -0.1000  0.0632
 9768W        W25577   8.917  12.268   1.680 -0.2193 -0.3170  0.1490
 9769W        W25578  13.321   8.496  15.173  0.1828 -0.2281 -0.2640
 9770W        W25579  12.195   9.311   2.051  0.0807  0.0256  0.2123
 9771W        W25580  12.715   6.806   5.535  0.0293  0.2893 -0.1489
 9772W        W25581   1.860   0.446  10.610 -0.1120  0.3164  0.1842
 9773W        W25582  12.399  11.539  14.739  0.1304 -0.1080  0.3669
 9774W        W25583   9.581  15.336  14.051 -0.1809 -0.1730 -0.0816
 9775W        W25584   1.268  10.096   0.808  0.0142 -0.0036 -0.0667
 9776W        W25585  18.687   6.767   0.684 -0.0196 -0.1962 -0.1111
 9777W        W25586  17.761  12.317  13.420 -0.0194 -0.1586 -0.1769
 9778W        W25587   3.659  11.697  10.477 -0.1236  0.4563  0.2245
 9779W        W25588   2.925  10.406  13.307  0.2430  0.4002  0.4280
 9780W        W25589   8.381   3.349   0.647  0.2188 -0.1700  0.0484
 9781W        W25590   3.610  10.193   5.841  0.2664 -0.4224 -0.1082
 9782W        W25591   1.210   9.192   3.371 -0.3517  0.3322 -0.1507
 9783W        W25592   0.562   7.711   5.479 -0.2447 -0.1421 -0.1534
 9784W        W25593  16.406  17.226   1.629 -0.3461 -0.0689 -0.0627
 9785W        W25594  12.997   4.505  14.568  0.1759  0.0328 -0.0815
 9786W        W25595   0.305  17.579   3.653 -0.3099  0.1826 -0.0208
 9787W        W25596   7.438   0.928   1.908 -0.0809 -0.2773  0.2453
 9788W        W25597   5.422  13.511   1.430  0.2197  0.3213  0.0827
 9789W        W25598   9.784   5.782   0.023 -0.1503  0.1049 -0.1957
 9790W        W25599  13.630   9.142   9.567  0.0568 -0.1225  0.0017
 9791W        W25600   4.400  15.257   2.441 -0.0564  0.0919 -0.2593
 9792W        W25601   3.018  16.050   4.521 -0.1283 -0.3789 -0.3120
 9793W        W25602  15.373   5.404   5.415  0.2099  0.0312 -0.0056
 9794W        W25603   3.239  14.760  15.113  0.0138 -0.0841 -0.0495
 9795W        W25604   9.865   9.975  11.498 -0.1703  0.0452  0.0354
 9796W        W25605   2.570   1.204  11.194  0.0109  0.1652  0.1465
 9797W        W25606  12.006   6.376  10.624  0.0584  0.3441  0.0578
 9798W        W25607  11.741   5.663   3.882 -0.2756 -0.2488  0.0283
 9799W        W25608   6.233  17.555  15.166 -0.0110  0.1855  0.0821
 9800W        W25609  15.381  10.714  13.528 -0.0267 -0.1321  0.0931
 9801W        W25610   7.831  10.355  10.454 -0.0288 -0.0088 -0.2022
 9802W        W25611  12.227   5.221  15.058 -0.4618  0.3934  0.0686
 9803W        W25612   9.298   1.759  15.239  0.1181  0.0328 -0.1494
 9804W        W25613  13.890  14.282  12.659 -0.0835  0.0606 -0.1934
 9805W        W25614  12.571   3.913  10.969  0.0504 -0.0451  0.1135
 9806W        W25615  18.400   0.394   2.854  0.2597 -0.0954 -0.1221
 9807W        W25616  17.745  15.978   0.907 -0.1683 -0.0560 -0.1922
 9808W        W25617   8.171  16.670  14.844 -0.0792 -0.0934 -0.2672
 9809W        W25618   7.214   5.760  12.151 -0.0908  0.2434  0.1861
 9810W        W25619  11.685  19.078   3.970 -0.3237 -0.2726  0.0295
 9811W        W25620  12.975  11.282  14.045 -0.1747 -0.0247  0.1992
 9812W        W25621   7.104   1.099  14.498 -0.2787 -0.0808 -0.2384
 9813W        W25622   2.822  15.817   5.467 -0.0011 -0.3025 -0.6832
 9814W        W25623   0.215   6.681  12.190 -0.0064 -0.0599  0.1268
 9815W        W25624   9.386   9.548   5.703  0.1552 -0.0141  0.1028
 9816W        W25625   5.026   6.966  14.050  0.0934  0.0089 -0.1212
 9817W        W25626   6.353  18.193   3.536  0.1223 -0.0365  0.4658
 9818W        W25627   3.253  17.285  13.639  0.0248 -0.0429  0.0286
 9819W        W25628  16.070   0.293   3.829  0.0515  0.0911 -0.1535
 9820W        W25629  15.464  16.345  13.146  0.1519 -0.3059 -0.0252
 9821W        W25630   5.674   9.296   0.514  0.2247 -0.0160  0.1397
 9822W        W25631  12.444   8.811   4.340 -0.0113 -0.0330  0.1208
 9823W        W25632   0.765   4.752   4.567  0.1807 -0.3667  0.4425
 9824W        W25633  16.930  18.281  10.766 -0.0180 -0.0000  0.1141
 9825W        W25634  10.669   6.637   1.659 -0.1802 -0.2180 -0.1071
 9826W        W25635  14.031   0.090  11.778  0.0239 -0.3359  0.0065
 9827W        W25636   3.950  11.333  14.753  0.3875  0.3385  0.0260
 9828W        W25637  17.669  16.562   4.616  0.0624 -0.1430 -0.1210
 9829W        W25638   1.574   2.706  12.427 -0.5141  0.1889  0.4110
 9830W        W25639   5.082  17.871   4.686  0.0806  0.2374  0.1450
 9831W        W25640   8.277  13.912  13.111 -0.1487  0.0937 -0.2194
 9832W        W25641   9.556  15.434  10.842 -0.0391  0.3821 -0.4016
 9833W        W25642   8.261  15.947  13.400  0.0417 -0.2626 -0.2224
 9834W        W25643   2.915   0.619  15.216  0.0134  0.1634  0.2885
 9835W        W25644   1.276   5.779   1.436 -0.1092 -0.1549 -0.2208
 9836W        W25645   0.776  14.816   5.125  0.0296 -0.0300 -0.1199
 9837W        W25646   1.312  14.010  12.869  0.0143 -0.3717  0.3318
 9838W        W25647  15.589   4.954  10.771 -0.2056 -0.4132 -0.0943
 9839W        W25648   2.751   0.885   0.968 -0.2823 -0.2490  0.1968
 9840W        W25649   2.980  16.353  14.532  0.0424  0.1088 -0.0665
 9841W        W25650   5.436   1.698  12.981  0.1663  0.0022  0.0176
 9842W        W25651  11.703  12.634  12.456 -0.2453 -0.0878  0.0042
 9843W        W25652   4.357  14.222   1.463 -0.0909 -0.1826 -0.0063
 9844W        W25653  16.031  12.739  12.494 -0.1158  0.0953  0.0824
 9845W        W25654   3.220   8.042   2.315  0.3020  0.0109  0.0627
 9846W        W25655   0.437   7.573  13.609 -0.1935  0.3228 -0.0474
 9847W        W25656   7.159  17.268  14.201  0.1235 -0.0400  0.1734
 9848W        W25657  18.448  14.013  14.086  0.1591 -0.1257  0.4625
 9849W        W25658  12.505   9.574   1.448  0.0034 -0.2621 -0.1330
 9850W        W25659   7.435   9.103  13.762 -0.0182 -0.2282 -0.2151
 9851W        W25660   5.522   1.272   3.364  0.1437 -0.3432  0.1765
 9852W        W25661  18.493   0.940  12.721 -0.0963  0.0354  0.0888
 9853W        W25662  17.516  10.983  13.128  0.0497  0.1735  0.2788
 9854W        W25663   5.085   2.579  12.418  0.3207  0.3281 -0.0823
 9855W        W25664  10.054   2.938   4.546  0.0380 -0.2186 -0.2554
 9856W        W25665   3.537  15.005  11.852  0.0068  0.0388 -0.3090
 9857W        W25666   2.453   4.369   1.329  0.1273  0.0022 -0.1132
 9858W        W25667  16.640   1.769   2.450 -0.2335 -0.0584 -0.4655
 9859W        W25668  11.232   7.541  11.914  0.0038 -0.0336 -0.1938
 9860W        W25669   3.857   8.392  14.356 -0.0763  0.3273  0.2258
 9861W        W25670   7.928  15.004  10.333 -0.1951  0.0633 -0.2052
 9862W        W25671  17.974   1.807  14.084 -0.0607 -0.0569 -0.3794
 9863W        W25672   3.652  15.382   4.763  0.1007  0.1702 -0.3203
 9864W        W25673   5.536  11.756   2.574  0.0016 -0.2090 -0.0520
 9865W        W25674   6.918   1.684   2.275 -0.1539 -0.1401 -0.0709
 9866W        W25675   7.297  19.058   9.428 -0.0615  0.4252  0.0871
 9867W        W25676   8.286  18.010  14.643  0.0620 -0.4264  0.2868
 9868W        W25677  10.443   6.719  13.924  0.1342 -0.0575 -0.0816
 9869W        W25678  18.020  18.233   2.137  0.1237 -0.0989  0.0945
 9870W        W25679   8.811   1.936   2.070  0.1921  0.0968  0.2096
 9871W        W25680  13.629  11.179  10.981 -0.0582  0.1634 -0.2891
 9872W        W25681   4.329  17.263  10.042  0.0380  0.2204  0.0185
 9873W        W25682   5.534   6.410  12.594  0.3565 -0.0847 -0.0973
 9874W        W25683   6.405   5.381   3.775 -0.1621  0.5283  0.1105
 9875W        W25684  15.091  17.903  15.231  0.0486  0.2194  0.0025
 9876W        W25685   4.896   2.595   9.415 -0.0785 -0.1319 -0.0509
 9877W        W25686   4.919  15.054   1.779 -0.2929 -0.0137  0.2773
 9878W        W25687   1.552   2.743  10.974  0.2380  0.4243  0.1139
 9879W        W25688  12.294  14.129   1.577  0.1063  0.0372 -0.0574
 9880W        W25689   0.776  13.506  15.009  0.0661  0.0484 -0.0306
 9881W        W25690   8.375   9.215  10.686 -0.0217 -0.3397  0.0571
 9882W        W25691   9.048   5.374   4.015  0.0153  0.1538  0.1828
 9883W        W25692  12.534  17.156  11.217  0.3205 -0.0085  0.0199
 9884W        W25693  16.067   2.981   2.607  0.0361 -0.0435 -0.4803
 9885W        W25694  18.841   8.761  13.757 -0.0385  0.0987 -0.3769
 9886W        W25695  15.726   0.241  13.579  0.2135  0.0382 -0.3272
 9887W        W25696  12.125   1.193   5.238 -0.2137 -0.2333 -0.1204
 9888W        W25697   9.118   9.818   4.912  0.2479 -0.0557  0.0118
 9889W        W25698  11.905  16.961  12.738  0.4098 -0.2575 -0.0373
 9890W        W25699   7.757  17.771  15.095  0.0322  0.0704 -0.2650
 9891W        W25700  16.256   0.376  13.411  0.2926 -0.0019 -0.3426
 9892W        W25701   9.145  12.424   4.971  0.1348 -0.0663  0.2409
 9893W        W25702   9.289   5.567   0.240 -0.1940  0.1841  0.1113
 9894W        W25703   1.178   2.480  12.324  0.0081  0.0640  0.0913
 9895W        W25704  19.116  17.942   5.800  0.2002  0.3360  0.0225
 9896W        W25705   6.076   6.553   2.938 -0.0885  0.1735 -0.0802
 9897W        W25706   4.524   4.086  14.555  0.1613  0.0508  0.1231
 9898W        W25707  10.282   4.771   2.993 -0.0636 -0.3925  0.3296
 9899W        W25708   6.323   1.649   5.131  0.0312 -0.2730  0.0032
 9900W        W25709   7.726  13.794   5.147 -0.0131  0.0047 -0.0360
 9901W        W25710   2.052  11.680   2.879  0.0420 -0.0023  0.3968
 9902W        W25711   1.392   0.954   3.435  0.1831  0.0450 -0.1799
 9903W        W25712   8.603  11.966  11.134  0.1522  0.1489  0.2093
 9904W        W25713  15.401   2.937  12.670  0.2040  0.0770  0.3269
 9905W        W25714  19.117   5.683   2.470  0.0626 -0.0552 -0.0439
 9906W        W25715   8.653  13.625  10.604  0.2370  0.0152 -0.0288
 9907W        W25716  16.128  15.461   0.204  0.1569  0.1400  0.0989
 9908W        W25717   6.267  13.688  12.505  0.4471  0.2683  0.2735
 9909W        W25718  15.056  10.572   1.362  0.1962 -0.0349  0.2964
 9910W        W25719   5.243  19.082   1.397  0.0537  0.0169 -0.4982
 9911W        W25720   5.015   4.646  12.552 -0.0470  0.0206  0.0071
 9912W        W25721   2.858   5.039   2.766  0.3133 -0.1472 -0.1681
 9913W        W25722   5.412  10.353   2.054 -0.1882 -0.3694  0.0435
 9914W        W25723   6.685   8.193  11.114 -0.1934  0.0174 -0.1824
 9915W        W25724   5.468  13.045  15.179 -0.1105  0.1370  0.1367
 9916W        W25725  18.581  18.986   3.725 -0.2461 -0.0831 -0.1466
 9917W        W25726   5.001   9.316  14.283  0.1727  0.3014 -0.0844
 9918W        W25727   9.232  15.200   1.344 -0.0233  0.1203 -0.1557
 9919W        W25728  18.880   0.477  13.839 -0.0700 -0.4386 -0.1850
 9920W        W25729   4.530   9.643  15.139 -0.1036 -0.3210  0.2989
 9921W        W25730  11.258   4.187   0.468  0.0761 -0.0588  0.0838
 9922W        W25731  11.514   9.715  12.199  0.0178 -0.1762  0.0330
 9923W        W25732  17.628   7.791   4.049  0.0906  0.2783 -0.4095
 9924W        W25733  15.225  12.983   0.560 -0.0640 -0.0146 -0.5160
 9925W        W25734   0.229   2.499  10.614  0.0563 -0.3345  0.1792
 9926W        W25735   7.940   7.232  12.202  0.1289  0.2015 -0.1732
 9927W        W25736  12.734   2.453  11.100 -0.0461  0.2750  0.0507
 9928W        W25737   0.392  12.268  14.529  0.0189  0.4697 -0.3780
 9929W        W25738   7.989   9.045   4.097 -0.0197  0.2073 -0.2629
 9930W        W25739   1.075  10.974  12.433 -0.1137  0.1000  0.1355
 9931W        W25740   8.833  11.661   5.605 -0.1868  0.3254 -0.1195
 9932W        W25741   3.619  12.100  11.370 -0.1330 -0.0104  0.0529
 9933W        W25742   3.268   5.242  14.344 -0.0308 -0.0166 -0.5189
 9934W        W25743   6.060  18.699  11.895 -0.2363 -0.0587  0.0780
 9935W        W25744  11.605  14.011   0.943  0.1439 -0.0611 -0.0107
 9936W        W25745  15.504  12.958   0.994  0.3293  0.2228 -0.0881
 9937W        W25746   5.085   9.140  13.590 -0.3375  0.1120  0.3063
 9938W        W25747  18.952  17.910  14.743 -0.0590 -0.4046  0.2006
 9939W        W25748   5.126  12.636   1.320  0.1006  0.1850  0.2653
 9940W        W25749  16.584   6.023   4.535  0.1232  0.0011 -0.0406
 9941W        W25750   9.993  15.373   1.037  0.1481 -0.4208 -0.2832
 9942W        W25751   5.085   4.521   5.389  0.1221  0.0205 -0.0567
 9943W        W25752   5.776  17.060   4.980 -0.1752  0.1337 -0.2181
 9944W        W25753   3.991   1.829  14.463  0.0653  0.0411 -0.1434
 9945W        W25754   2.376  16.319   2.515  0.1096  0.1254  0.0375
 9946W        W25755   5.144   3.288   4.644 -0.2461 -0.2498 -0.0944
 9947W        W25756  15.480  16.844   0.866 -0.3647  0.0319 -0.0977
 9948W        W25757  10.403   7.013   3.686 -0.0664  0.2761 -0.3320
 9949W        W25758  18.789  16.029  12.638  0.0499 -0.1449  0.1235
 9950W        W25759   5.101   7.042   4.051 -0.1989  0.0623 -0.0562
 9951W        W25760   8.031   3.715   0.496  0.3041  0.0157 -0.1370
 9952W        W25761   2.676   9.315   5.232  0.0231  0.1761 -0.0614
 9953W        W25762   4.140  14.684   4.067  0.1383 -0.0602 -0.1714
 9954W        W25763  13.524   1.411   5.624  0.2375  0.3859 -0.2920
 9955W        W25764   5.326  18.539   2.555 -0.1928  0.0934  0.0064
 9956W        W25765  16.251  14.781   2.869 -0.1554 -0.0375 -0.2387
 9957W        W25766   9.453  12.988  11.329 -0.3122  0.1505  0.2121
 9958W        W25767   3.476  10.755  10.738  0.0737  0.0143 -0.0098
 9959W        W25768  18.418   3.847  14.561 -0.0009 -0.0435  0.2326
 9960W        W25769  10.828   9.716  10.433 -0.1808 -0.2468 -0.0973
 9961W        W25770  13.049   3.201  12.004  0.2614 -0.1690 -0.0844
 9962W        W25771   9.101   4.113   0.184  0.4113 -0.1925 -0.0166
 9963W        W25772  16.075  14.940  13.762 -0.0466 -0.2770 -0.0903
 9964W        W25773  13.992   5.771  12.732  0.0123  0.1826 -0.0809
 9965W        W25774  14.482  16.665   1.086 -0.0503 -0.2486 -0.1699
 9966W        W25775   2.623   8.929   4.794  0.1593  0.0432  0.3677
 9967W        W25776   2.923  19.102   9.814  0.0326 -0.1090  0.0221
 9968W        W25777   0.653  11.196  13.432 -0.0407 -0.0069 -0.3177
 9969W        W25778   6.205  18.165  12.128  0.0607  0.0942 -0.1739
 9970W        W25779  13.953  17.306   2.036 -0.2024  0.3684 -0.0241
 9971W        W25780   8.772  15.736  13.386 -0.0947  0.1533  0.0977
 9972W        W25781   4.173   9.336   1.570 -0.0339  0.1507  0.0867
 9973W        W25782   9.166   7.770   4.901 -0.0206  0.3104 -0.0985
 9974W        W25783   2.009  13.433   4.475  0.2108 -0.0612  0.0919
 9975W        W25784   8.272   0.331  12.204 -0.2419 -0.6135  0.0507
 9976W        W25785  13.574  15.214   4.802 -0.2606  0.1012 -0.3777
 9977W        W25786   9.731   2.318  14.469 -0.0528  0.2184  0.1622
 9978W        W25787  13.747  15.019  12.265  0.0710  0.1025 -0.3171
 9979W        W25788   9.683  10.477   1.809  0.0277  0.3151  0.0785
 9980W        W25789   4.265   1.158   4.561 -0.1950 -0.1452  0.1039
 9981W        W25790   9.923  12.455  14.864  0.1187  0.1073 -0.0851
 9982W        W25791   0.684   6.511  11.995  0.2711  0.1885 -0.2819
 9983W        W25792   6.524  11.820   4.670  0.1718 -0.0567 -0.0768
 9984W        W25793   9.823   6.390   4.049 -0.1726  0.0201 -0.1809
 9985W        W25794  17.293  16.910  12.766 -0.0404 -0.2869  0.3337
 9986W        W25795   9.532  17.230  14.437  0.0732  0.0151  0.0533
 9987W        W25796  11.889  16.873   1.265 -0.0975  0.1153  0.2927
 9988W        W25797   5.433  13.982  12.834 -0.5147  0.2677  0.1707
 9989W        W25798   5.126  16.735   1.553 -0.0470  0.1930  0.3245
 9990W        W25799  10.950   3.306   0.012 -0.0180  0.0888 -0.5275
 9991W        W25800   0.019   2.012  11.437 -0.2497  0.0771 -0.0102
 9992W        W25801   6.966   3.177  11.663 -0.1482  0.1204  0.0194
 9993W        W25802  17.236   1.633   4.568 -0.3163 -0.0357  0.1682
 9994W        W25803  12.123   7.677   0.457 -0.4311  0.1805  0.1848
 9995W        W25804   0.468   8.655  13.773  0.2059 -0.0766  0.1152
 9996W        W25805  16.095  18.947  11.054  0.0487 -0.0564 -0.1975
 9997W        W25806  15.589   4.139   4.060 -0.1520  0.1252  0.1773
 9998W        W25807  12.419   3.810   3.651  0.0773 -0.0417 -0.3273
 9999W        W25808  18.013   2.986  10.375 -0.2224 -0.2758  0.1230
10000W        W25809   5.911  12.744  15.221 -0.0186 -0.0964  0.0385
10001W        W25810   8.762   2.272   4.842  0.0011 -0.1142  0.0264
10002W        W25811   2.924   4.329  14.856  0.4254  0.4601 -0.1756
10003W        W25812   4.872  16.367   3.830 -0.0925 -0.0957 -0.1376
10004W        W25813   7.005   4.244  13.463 -0.6570 -0.2147 -0.0846
10005W        W25814  11.484   5.304  12.963 -0.0973 -0.0823  0.3087
10006W        W25815   9.907   9.347   2.776 -0.3342 -0.2269 -0.1764
10007W        W25816   3.123  10.159  11.407  0.1427  0.3041  0.2673
10008W        W25817   4.202   7.914   2.949 -0.0362 -0.0607 -0.0198
10009W        W25818   6.082  11.870   1.981  0.1268 -0.3403  0.0381
10010W        W25819  15.283   0.056   3.123  0.0113  0.1448  0.2976
10011W        W25820   9.345  18.973  12.831  0.1734  0.1729 -0.0713
10012W        W25821   7.472   7.688  13.178 -0.1364 -0.0665 -0.1753
10013W        W25822  17.748   2.288  13.905  0.0279 -0.0441 -0.0544
10014W        W25823  10.492   1.287  11.990 -0.0737  0.1948 -0.0250
10015W        W25824  18.389   0.365   3.892 -0.0085 -0.1444 -0.0726
10016W        W25825  16.027   6.972   2.487 -0.0815 -0.3508  0.0327
10017W        W25826   2.521   6.481   1.382  0.0182 -0.3807  0.1566
10018W        W25827   9.464  11.779  11.914 -0.1444 -0.0876 -0.3027
10019W        W25828  11.058  11.813   5.425  0.0861  0.0816  0.1168
10020W        W25829   1.048   2.484  13.185 -0.1056 -0.1220  0.0557
10021W        W25830  12.146   0.382   3.128  0.1630  0.0328 -0.1306
10022W        W25831   0.048  13.620   0.769 -0.5664  0.0087  0.0142
10023W        W25832  11.219  18.388  14.003 -0.3555  0.1749  0.0181
10024W        W25833  18.473  12.873   2.803 -0.2331 -0.0121 -0.6646
10025W        W25834  15.400  16.174  13.574 -0.1204  0.1501  0.0501
10026W        W25835   4.489  13.484   4.938 -0.0029 -0.1437 -0.2480
10027W        W25836   5.291  16.531  13.401  0.2441 -0.2684 -0.0298
10028W        W25837   9.733  17.374  15.026 -0.0463 -0.0837  0.1858
10029W        W25838   1.957  13.238   0.962 -0.1538  0.2518 -0.1546
10030W        W25839  13.171   3.766   2.014 -0.1016  0.3546 -0.0618
10031W        W25840   4.555   2.252   3.595 -0.3443 -0.1405 -0.3427
10032W        W25841   2.083   7.173  14.105 -0.0306  0.0489 -0.2995
10033W        W25842  10.963  12.460  11.931 -0.1145 -0.6667  0.1490
10034W        W25843  18.575  18.300  11.527  0.1491  0.1747  0.1062
10035W        W25844  14.949  15.468  13.528  0.0780 -0.0510 -0.2572
10036W        W25845  17.950   3.867  10.686  0.0261  0.3003  0.0079
10037W        W25846   8.069  18.620   0.054  0.1389  0.1038  0.1764
10038W        W25847   1.534  18.944   5.002 -0.2036  0.2354  0.0261
10039W        W25848   0.878  15.950   3.306  0.0382  0.0517  0.0119
10040W        W25849  17.059   6.771  14.728  0.1567 -0.0897  0.0127
10041W        W25850   0.783  16.866   3.299 -0.0656 -0.3209 -0.2034
10042W        W25851  11.013   3.446  11.783 -0.1891  0.2107 -0.0226
10043W        W25852   0.081   1.234   3.781 -0.4997  0.0132 -0.0787
10044W        W25853   0.499   2.651   2.761 -0.0969  0.3572  0.1536
10045W        W25854  10.421  15.566  10.717  0.0516  0.2774  0.3509
10046W        W25855   1.352   7.088  12.796  0.1145  0.0793 -0.1653
10047W        W25856   2.095   5.879   4.519 -0.0216  0.0245  0.0178
10048W        W25857  15.606   9.122  11.236  0.2220 -0.0654  0.2155
10049W        W25858  18.049   3.790  15.212 -0.1495 -0.3985 -0.0575
10050W        W25859   3.163  17.450   0.721 -0.0387  0.3526  0.0877
10051W        W25860  16.932  17.597  11.177  0.0366  0.3143 -0.0633
10052W        W25861   4.724  13.497   5.444 -0.1027 -0.0959  0.0202
10053W        W25862  15.019   0.121   4.374  0.0890  0.0402  0.1397
10054W        W25863   3.478   4.452   1.485  0.2371  0.2830 -0.3623
10055W        W25864   0.576  13.131   3.761  0.1758  0.0297 -0.0937
10056W        W25865  10.433   0.200   2.297 -0.1570 -0.0545  0.1344
10057W        W25866  16.351   1.626   1.918 -0.3747  0.1700  0.2435
10058W        W25867  12.519  18.959   3.251  0.2322 -0.1468  0.1998
10059W        W25868  14.743   9.999   2.966  0.0963 -0.3546 -0.0736
10060W        W25869  16.875   3.024   3.186 -0.1302 -0.3009  0.0326
10061W        W25870  14.380  17.825  10.796  0.1902 -0.1330 -0.1209
10062W        W25871  12.341   7.970   0.155  0.2945  0.0884 -0.3921
10063W        W25872   4.493   1.882   2.493 -0.0513 -0.0008 -0.0953
10064W        W25873  11.188  13.179   0.247  0.3733 -0.0264 -0.0336
10065W        W25874   8.332  11.519  12.087  0.1607 -0.0216 -0.0721
10066W        W25875  11.216   1.759   3.266  0.6370 -0.2313  0.2805
10067W        W25876   8.270  19.008  10.812 -0.1136 -0.1054  0.1135
10068W        W25877  11.681   1.970  12.230  0.0221  0.3475 -0.0072
10069W        W25878  18.591  16.733   5.658 -0.0909  0.2316  0.1231
10070W        W25879  12.178   7.919  14.901 -0.1033 -0.0876  0.0676
10071W        W25880   5.694  12.311  12.399 -0.0562 -0.2017 -0.0318
10072W        W25881   4.153   6.326  11.558  0.0543  0.1156  0.0614
10073W        W25882  14.120   4.356  10.991 -0.0716 -0.0295  0.0441
10074W        W25883  18.058   4.225  13.757  0.3621  0.0725 -0.1311
10075W        W25884  12.401   5.351   0.720  0.0007  0.2166  0.4353
10076W        W25885  13.515   6.780  11.766  0.1208  0.0099  0.1215
10077W        W25886  15.387  16.735  13.434 -0.0117  0.1870  0.1635
10078W        W25887  18.063  18.784   6.018 -0.0514  0.1130  0.0606
10079W        W25888  14.284  15.323  14.227 -0.5022 -0.2436  0.1241
10080W        W25889   0.403   2.576   4.221  0.1668  0.3277 -0.2032
10081W        W25890   1.262  15.600   1.554  0.0093 -0.0495  0.2686
10082W        W25891   9.068  10.629  10.600  0.0240  0.0245 -0.4557
10083W        W25892   4.280  17.168   4.027 -0.0895 -0.0304  0.2638
10084W        W25893  13.004  13.242  10.916 -0.2456 -0.0896  0.0701
10085W        W25894   2.604   3.203  13.164  0.2407 -0.0911 -0.2744
10086W        W25895  17.786  14.673   3.137 -0.0660  0.0568  0.0290
10087W        W25896  14.644  16.242   6.292  0.3195  0.3304  0.2343
10088W        W25897  13.125  17.623  12.161  0.1814  0.0296 -0.1635
10089W        W25898   4.552  10.869  14.096  0.2813 -0.2443  0.1822
10090W        W25899   3.413   4.908   9.413 -0.2894 -0.2795  0.0266
10091W        W25900   2.423  13.819   4.478 -0.1956  0.1099  0.0509
10092W        W25901   1.550   0.108   3.610 -0.0249  0.0312 -0.3487
10093W        W25902   8.677  12.541   5.716 -0.1884  0.2754 -0.5118
10094W        W25903  12.385   5.635  10.911 -0.0304 -0.1539  0.2237
10095W        W25904   5.320   6.331   4.677 -0.2444 -0.1008  0.0111
10096W        W25905   0.051   7.474   2.364 -0.0566  0.0752  0.0732
10097W        W25906  14.778  10.072  13.027 -0.1822  0.1799  0.2626
10098W        W25907   0.319   7.690   4.901 -0.0009  0.1951 -0.0503
10099W        W25908  16.970  18.557   2.661  0.3771 -0.1926 -0.1468
10100W        W25909  15.145   9.126   1.749 -0.2310 -0.0960  0.0040
10101W        W25910  14.080   9.635   4.862  0.3046  0.2546 -0.4014
10102W        W25911  12.297   0.064   0.437 -0.1350  0.1122 -0.3231
10103W        W25912  10.224   9.224   0.573  0.2539  0.0788 -0.1394
10104W        W25913   0.010   2.698   3.642  0.2581  0.1423 -0.1694
10105W        W25914  13.500  18.927  13.443  0.4709 -0.2175 -0.3902
10106W        W25915  16.971   0.062   2.461 -0.2017 -0.1554  0.1696
10107W        W25916  15.602  14.026   3.608 -0.1940 -0.0871  0.0760
10108W        W25917   6.701  15.714  13.997  0.1771  0.1174 -0.2124
10109W        W25918  15.289  11.473  13.597  0.2053 -0.0309  0.4145
10110W        W25919  16.270   3.598  11.607 -0.1558  0.0931  0.2263
10111W        W25920   7.478  13.503  13.402  0.1720 -0.0707  0.3734
10112W        W25921  17.978   6.683  13.484 -0.0562  0.1002  0.1266
10113W        W25922  15.482  12.229   4.591 -0.0612  0.0627  0.1110
10114W        W25923   1.896   7.407   1.575  0.1503  0.0552  0.0852
10115W        W25924  15.805   0.139   2.914 -0.2122 -0.0909  0.1383
10116W        W25925   0.049   1.416   4.210  0.0685 -0.2217 -0.3912
10117W        W25926   3.993  15.628   1.552 -0.0975 -0.0630  0.2980
10118W        W25927   0.256  11.613   3.274 -0.0848  0.1279  0.2505
10119W        W25928   7.512   2.657  11.358 -0.2735  0.0401  0.3134
10120W        W25929   6.618  14.281   4.366  0.1327  0.5316 -0.0730
10121W        W25930  17.093  12.370   9.679 -0.2979 -0.0872  0.1808
10122W        W25931  13.184  17.664  14.903 -0.0092  0.1336  0.2439
10123W        W25932  13.725  10.995  11.495  0.3620 -0.0056 -0.3161
10124W        W25933   3.972   0.110  10.613  0.2989 -0.2557 -0.1648
10125W        W25934  10.194  15.653   0.715  0.3194  0.2866  0.1117
10126W        W25935   2.953   8.984  14.235  0.1754  0.2677 -0.1636
10127W        W25936  10.593  14.895  12.309 -0.1253 -0.3040  0.1755
10128W        W25937  11.276  18.986   4.313  0.4623 -0.4092 -0.0276
10129W        W25938  18.492   4.827   1.938 -0.0227 -0.0727 -0.0067
10130W        W25939  17.805  17.720   3.517 -0.0769 -0.2325 -0.3562
10131W        W25940   9.864  17.452   4.318  0.0174  0.1000  0.1189
10132W        W25941   5.176   3.061  12.328 -0.2178 -0.5244 -0.1912
10133W        W25942   9.194   1.473   1.229 -0.2627  0.2522 -0.0115
10134W        W25943   1.740   9.445   4.098  0.1185  0.1393  0.3529
10135W        W25944  15.384  13.282   4.237  0.1390 -0.1267 -0.2207
10136W        W25945  16.093   4.542   2.131 -0.0271 -0.2416  0.0092
10137W        W25946  16.190  16.522   5.772  0.0925 -0.0286  0.1029
10138W        W25947  15.332  17.441   2.459 -0.1496  0.1543 -0.0591
10139W        W25948   7.681   6.359   2.127 -0.1187 -0.1230 -0.0978
10140W        W25949   7.669  16.625   2.583 -0.0029  0.0404  0.1626
10141W        W25950  17.419   8.411   3.821  0.2563 -0.1685 -0.0594
10142W        W25951   6.079   4.262  15.266  0.2506 -0.2018  0.1251
10143W        W25952   9.370  10.618   1.101  0.2579 -0.0702 -0.3550
10144W        W25953  11.329   2.994  14.718 -0.2393 -0.1154  0.1431
10145W        W25954  18.359   6.395  13.541  0.0465 -0.3156  0.0254
10146W        W25955   7.697  10.434  12.392  0.3258 -0.1622  0.0041
10147W        W25956   3.584   9.862  13.114 -0.1326 -0.1052 -0.2000
10148W        W25957  13.598  12.521  12.458  0.0488  0.0637  0.0752
10149W        W25958   7.044  17.729  12.859  0.2796 -0.1861 -0.0818
10150W        W25959  15.944   1.808  10.179 -0.0960 -0.1926 -0.2243
10151W        W25960  15.043   9.229   3.728  0.1590  0.1882  0.1527
10152W        W25961  17.560   2.945  11.907 -0.1642  0.0630 -0.0980
10153W        W25962  17.609  17.924  11.356 -0.0488 -0.3081 -0.1103
10154W        W25963  14.131   6.388   2.035  0.0201  0.0766 -0.4557
10155W        W25964   2.101  17.719  14.271 -0.2052  0.2996 -0.1800
10156W        W25965   2.277  17.882   9.890 -0.2654  0.2274 -0.1993
10157W        W25966   5.501   3.111  11.085 -0.0254  0.2486  0.0586
10158W        W25967  17.105  14.835  14.112 -0.3208  0.0859  0.0366
10159W        W25968  16.497  16.147   1.474  0.0130 -0.0830 -0.0179
10160W        W25969   4.816   1.472  13.594 -0.0562  0.0341  0.1396
10161W        W25970   9.913  17.486  11.040 -0.0685  0.0223 -0.0028
10162W        W25971  16.397  13.591   5.006 -0.0266  0.1075  0.0775
10163W        W25972   9.018  15.935   2.470 -0.1197  0.1475 -0.0288
10164W        W25973   8.166   3.411  10.842 -0.0009  0.3810 -0.2346
10165W        W25974  12.100  17.413  13.716  0.3206  0.1127 -0.2541
10166W        W25975  15.449   6.143   3.775 -0.3335  0.3913  0.3629
10167W        W25976  11.953  14.957   0.864 -0.0583 -0.0594  0.0793
10168W        W25977   2.802   3.628  13.218  0.1955 -0.2318  0.1835
10169W        W25978   6.229  10.898  10.927 -0.1615  0.0212 -0.2615
10170W        W25979  11.185   9.239   1.588  0.0211  0.2566  0.0001
10171W        W25980   6.524   9.650  12.781 -0.1846  0.0559 -0.1907
10172W        W25981  15.156   6.654   1.199 -0.0100 -0.1997 -0.2657
10173W        W25982  17.703   7.259   4.134 -0.2023 -0.0096  0.0954
10174W        W25983  18.086   6.697  10.426 -0.0546 -0.1361  0.1611
10175W        W25984   3.683   3.673   1.434 -0.0465  0.0279 -0.0166
10176W        W25985  16.016  12.005   0.940  0.0796  0.1890 -0.0514
10177W        W25986  14.011   2.449   2.896 -0.0732  0.3684 -0.0409
10178W        W25987  16.148   2.412  13.541 -0.0652 -0.0129 -0.1499
10179W        W25988   5.347  16.978  11.445  0.0621 -0.0066 -0.0396
10180W        W25989   8.162  12.522   5.581  0.0098 -0.0097  0.1037
10181W        W25990  10.464   2.204   2.723  0.0324  0.1469  0.1424
10182W        W25991  11.617   7.291   3.568  0.0773  0.1537 -0.2085
10183W        W25992   3.404   1.097  13.744 -0.1445  0.1779  0.0985
10184W        W25993   8.922  12.231   2.230  0.3437 -0.3726  0.3400
10185W        W25994   5.921   2.185   2.507 -0.1171 -0.3543 -0.1222
10186W        W25995   3.826   8.524   1.572 -0.1287  0.0921  0.1038
10187W        W25996   7.440   3.079   0.472  0.2959  0.1301  0.1401
10188W        W25997  10.437   3.621   1.639  0.2742 -0.4588  0.0256
10189W        W25998  18.705  18.267  12.828  0.1706 -0.0591  0.1038
10190W        W25999   7.708  14.551   1.050 -0.0820 -0.1713 -0.0222
10191W        W26000   5.741   0.005  12.788 -0.3810 -0.1124  0.2435
10192W        W26001  13.377   7.672  10.530  0.1954  0.1863  0.0877
10193W        W26002  10.635   8.925  15.123 -0.1600  0.0059 -0.0576
10194W        W26003   1.669  16.242   5.446 -0.3829  0.1579  0.1913
10195W        W26004  11.430  15.525   2.756 -0.3440 -0.0902  0.2850
10196W        W26005   3.038   8.694   4.659 -0.0874  0.4892 -0.2997
10197W        W26006  12.297   7.119  11.617  0.0891  0.1052  0.1282
10198W        W26007  14.346  17.987  12.318  0.1357  0.0906 -0.0092
10199W        W26008   1.908  13.021   5.660 -0.0678  0.2703  0.1706
10200W        W26009   2.328   0.768  11.233 -0.4033 -0.0438 -0.3446
10201W        W26010  10.609  18.787  11.164 -0.0064  0.0726  0.1133
10202W        W26011  16.897   7.880   4.407  0.1598 -0.0829  0.2142
10203W        W26012  11.480   6.961  14.842 -0.1576  0.0976 -0.2649
10204W        W26013  11.650  18.227  12.299  0.0172  0.3964  0.1292
10205W        W26014  19.108   6.226  12.356  0.0782  0.0289 -0.1125
10206W        W26015  18.284   6.375   2.848 -0.1180  0.3204 -0.0333
10207W        W26016   4.881  16.426  13.052 -0.2656  0.0559 -0.3961
10208W        W26017   4.894  16.651  11.824  0.0953  0.0906  0.0147
10209W        W26018   3.905   8.427  10.685  0.2451 -0.2718  0.0506
10210W        W26019   2.779   9.794   2.193 -0.3982  0.0607 -0.1426
10211W        W26020   0.637  12.678  14.643  0.2262  0.0411 -0.1600
10212W        W26021   6.562  12.734  11.176 -0.2347  0.0328  0.0525
10213W        W26022  16.175  17.576   5.934  0.2020 -0.1387 -0.2748
10214W        W26023  11.601  12.512   5.669  0.0751 -0.0984 -0.0432
10215W        W26024   9.801   9.840  15.102 -0.0335  0.2988 -0.0969
10216W        W26025  13.400   7.554   3.544 -0.0602  0.0649 -0.0121
10217W        W26026  16.909  12.696  14.979 -0.1669  0.4606 -0.0527
10218W        W26027   5.210   4.363  13.267 -0.2957 -0.0843  0.0248
10219W        W26028  12.151  18.256   1.476 -0.1315 -0.1517  0.3033
10220W        W26029  14.878   8.089  13.217  0.0503  0.0239 -0.0167
10221W        W26030   5.142   1.201  12.053  0.0037 -0.0384  0.2911
10222W        W26031   8.731  11.528  12.391 -0.0263  0.3817  0.0533
10223W        W26032  15.928   7.683   1.986  0.1876  0.0901 -0.3426
10224W        W26033  16.774  14.289  12.822  0.1537  0.2188 -0.0111
10225W        W26034  11.516   7.263   0.012 -0.0801  0.1033 -0.1957
10226W        W26035  15.774  16.850   1.252 -0.0154  0.1171  0.0764
10227W        W26036   8.550  14.115   2.973  0.0126  0.0947  0.1294
10228W        W26037  16.896   9.364   1.823  0.2219 -0.2549  0.0654
10229W        W26038   8.464  16.944  13.707 -0.3054 -0.3276 -0.0553
10230W        W26039  13.318  16.678   3.152  0.0221  0.0601  0.1887
10231W        W26040  14.975  14.253   1.080  0.2630  0.1453 -0.1964
10232W        W26041  15.116   0.763  14.849 -0.2229 -0.1704  0.4332
10233W        W26042  18.410  11.962   2.525 -0.2793  0.0801  0.1132
10234W        W26043   0.335  15.151   1.279  0.3053  0.1913  0.0094
10235W        W26044  18.429  15.791  12.323 -0.0079 -0.3293 -0.1576
10236W        W26045   1.300  14.949  12.806  0.2767 -0.3533 -0.2115
10237W        W26046   8.488  17.274   2.144 -0.2801 -0.0313  0.2524
10238W        W26047   4.433  17.727  10.300  0.0099  0.0200 -0.4354
10239W        W26048  17.153   9.156  10.915 -0.2419 -0.2794 -0.3194
10240W        W26049   9.770   8.560   5.411  0.0727  0.0686  0.0907
10241W        W26050   5.369   5.470  14.936  0.0349  0.0396 -0.2479
10242W        W26051   1.814   6.393  10.196 -0.1783 -0.0347  0.1177
10243W        W26052   4.332   1.382   4.051  0.0692  0.2656 -0.0225
10244W        W26053  10.407  15.147   1.851 -0.1585  0.0705 -0.2346
10245W        W26054  10.328   7.304   4.906 -0.0489  0.1807  0.2296
10246W        W26055   7.958   1.132  14.770 -0.0237 -0.0235 -0.2641
10247W        W26056  17.681   6.624   3.485  0.0745  0.2688 -0.0094
10248W        W26057   9.601   5.978  13.852 -0.0690  0.1621  0.0837
10249W        W26058   3.788  12.506  13.602  0.2974 -0.1130 -0.0560
10250W        W26059   1.485   4.809   3.946  0.2037  0.0695  0.1280
10251W        W26060  17.043   9.747   2.682  0.0445 -0.1487 -0.0854
10252W        W26061   7.759  13.881  11.928  0.0460  0.4129  0.2141
10253W        W26062   9.639   3.841  14.894  0.0506 -0.1590  0.4050
10254W        W26063   7.033  17.276  10.881  0.0090  0.0564 -0.0731
10255W        W26064  19.128   7.575  12.396 -0.0888  0.2777 -0.0746
10256W        W26065   7.913   6.796   3.525  0.1201  0.2468  0.1900
10257W        W26066  15.540   7.581  12.222 -0.0704 -0.2964 -0.0591
10258W        W26067   5.356  13.171  12.764 -0.0457 -0.0588 -0.1077
10259W        W26068   5.082   3.329  12.728 -0.2184  0.1843  0.0806
10260W        W26069   7.637   7.951  11.392  0.1033  0.3441 -0.0218
10261W        W26070  10.058   8.156   0.840 -0.1633 -0.1925  0.0023
10262W        W26071   2.584  14.735   9.741 -0.0587 -0.1041  0.0792
10263W        W26072  10.535   6.446   0.328 -0.0208  0.3503  0.1291
10264W        W26073  10.019  14.219  12.843  0.0477 -0.2532  0.0545
10265W        W26074  17.331   5.314  14.550 -0.0358 -0.2301 -0.4032
10266W        W26075   9.484   5.433  13.556 -0.1870 -0.3046 -0.1251
10267W        W26076  11.256  12.316  13.735 -0.1284 -0.3071  0.0873
10268W        W26077   4.926  17.171   5.228  0.0794 -0.4015  0.2938
10269W        W26078   9.136  12.816   0.839 -0.0622 -0.2432 -0.2713
10270W        W26079  12.895  16.618  12.041  0.0103 -0.2403  0.0722
10271W        W26080   6.405   0.334   2.296 -0.1832  0.0209  0.0706
10272W        W26081  13.039   0.552   4.169 -0.2855  0.1811  0.0496
10273W        W26082  18.508  14.275  13.316  0.0206 -0.1112 -0.1450
10274W        W26083   3.025  11.907   3.467  0.0336  0.3651  0.3762
10275W        W26084   5.322   7.360   1.851  0.0361  0.2493 -0.0457
10276W        W26085   9.342   3.542  12.906  0.2643 -0.0425  0.0018
10277W        W26086  11.175  10.801   0.780  0.1728 -0.0172 -0.0044
10278W        W26087  10.352  17.486  11.369 -0.0200  0.3096  0.1653
10279W        W26088  15.551   5.257  14.658 -0.2003 -0.1055 -0.3753
10280W        W26089  10.236   3.625   0.545  0.1989  0.1345  0.0084
10281W        W26090   7.084  15.142   2.919 -0.2337  0.4105 -0.0790
10282W        W26091  11.575   1.007  11.450  0.0221 -0.2216  0.1084
10283W        W26092  18.991  12.803  12.576  0.3785 -0.1152  0.1323
10284W        W26093  14.943  14.939  13.306  0.3430  0.1304  0.0606
10285W        W26094  11.598  10.588  13.535 -0.3497  0.1840 -0.1700
10286W        W26095   1.934  14.328  11.676 -0.2701  0.0388 -0.1060
10287W        W26096  12.684  12.036  10.056 -0.0024 -0.2627 -0.0771
10288W        W26097   0.445  10.792   1.458 -0.2949  0.0524 -0.3300
10289W        W26098   3.808   0.234  14.584 -0.3009  0.0448 -0.4048
10290W        W26099  12.014  18.979  10.941 -0.2114 -0.1534 -0.0283
10291W        W26100  18.474   6.132  11.402 -0.1906  0.2039  0.1015
10292W        W26101   1.903   5.606  10.648 -0.2250  0.6501 -0.2125
10293W        W26102   7.881  10.728   1.997  0.1401  0.0055 -0.1136
10294W        W26103   7.368  17.521   0.598  0.0314 -0.0814  0.1870
10295W        W26104   4.989  17.984   3.590  0.3070  0.0552  0.1927
10296W        W26105  10.490   9.427   5.290 -0.2498 -0.1941  0.1432
10297W        W26106   8.565   1.220   1.556 -0.1042 -0.1082  0.1744
10298W        W26107  14.996   4.605   1.870  0.0706 -0.0317  0.1790
10299W        W26108  18.726   6.092  13.547 -0.1220 -0.2262  0.0591
10300W        W26109   6.108   4.586   4.445 -0.2500 -0.2726 -0.4190
10301W        W26110   2.123  16.478   3.330 -0.2806  0.0346 -0.1387
10302W        W26111   1.610   2.497  10.002 -0.0881  0.1862 -0.0952
10303W        W26112   0.831   7.504   5.145  0.4044 -0.1130 -0.1233
10304W        W26113   7.336   3.186  12.124 -0.0412 -0.0224  0.1213
10305W        W26114  16.484  12.998  10.525 -0.0590  0.0834 -0.1632
10306W        W26115  12.363  15.132  11.702  0.2919  0.1046 -0.3355
10307W        W26116  10.861  18.233   1.596 -0.0565 -0.0784 -0.1165
10308W        W26117  17.011  18.782   1.305 -0.0949 -0.2532  0.2843
10309W        W26118   5.540   9.559  11.111 -0.0150 -0.0093  0.1256
10310W        W26119  17.765   8.919   1.521 -0.1785  0.0036 -0.1023
10311W        W26120   7.028   0.005   2.905  0.0410  0.1128 -0.2083
10312W        W26121   5.995   7.886  14.119  0.2169  0.0665  0.0919
10313W        W26122  11.872  15.836  13.560  0.4116  0.0673 -0.2492
10314W        W26123  10.904  12.614   1.055  0.4562  0.2114  0.0207
10315W        W26124   8.425   2.099   1.190  0.2438 -0.1788  0.1721
10316W        W26125  13.321   7.928   4.419 -0.1269 -0.1714  0.2023
10317W        W26126   1.846   9.510  13.815  0.2674  0.2922  0.0608
10318W        W26127  14.564  17.094  12.888 -0.0420  0.3916  0.0406
10319W        W26128  18.524   0.734  11.764  0.1865 -0.1270 -0.1790
10320W        W26129  10.423   5.198  10.509  0.0950  0.1642  0.0200
10321W        W26130   9.827   2.681   4.952 -0.2059 -0.1930  0.1468
10322W        W26131  15.940  13.911  10.997  0.0681 -0.1309 -0.0701
10323W        W26132  15.717  13.164  14.976  0.3665 -0.2501 -0.1405
10324W        W26133  14.701   7.138   4.357 -0.0901 -0.1155  0.1462
10325W        W26134   7.177  14.330  10.373 -0.0025 -0.0625  0.2076
10326W        W26135   9.773  13.970   0.154  0.0593  0.1461  0.1357
10327W        W26136  16.051   9.138   5.153  0.0633  0.2275  0.3434
10328W        W26137  10.822  17.500   2.440 -0.1834 -0.1754 -0.0779
10329W        W26138   3.932  13.825  10.605 -0.0870 -0.0437 -0.0247
10330W        W26139   5.062  17.165  12.298  0.0507 -0.1925 -0.0492
10331W        W26140  17.212  12.138  10.122 -0.0932  0.1388 -0.2995
10332W        W26141  16.524  15.598   1.487  0.0378 -0.1599 -0.0063
10333W        W26142   7.109   3.000   1.843 -0.0271 -0.2198 -0.0982
10334W        W26143   5.990  16.348   2.027  0.2551  0.1517  0.3977
10335W        W26144  15.731   8.985   4.267  0.2692  0.0936 -0.0396
10336W        W26145   0.468  19.057  10.562  0.0973  0.0091  0.1490
10337W        W26146  11.623   7.860  10.689  0.0657 -0.1871  0.3332
10338W        W26147  16.864  13.427   4.559  0.0122 -0.1002 -0.1571
10339W        W26148  13.162  16.344   2.320 -0.1983 -0.2843 -0.0401
10340W        W26149  12.793  14.761   5.098 -0.2351 -0.3395 -0.0334
10341W        W26150   4.942   1.886  13.892  0.2348 -0.3176 -0.0889
10342W        W26151   3.853  17.078  10.998 -0.0045 -0.0548  0.0682
10343W        W26152  11.894  17.005  14.971  0.1795  0.0958  0.3062
10344W        W26153  10.830  10.434  13.721  0.0284  0.0068  0.2079
10345W        W26154  14.598   3.710  14.916  0.0908  0.0417 -0.1428
10346W        W26155   0.907  11.635   5.772  0.4349  0.1400 -0.1773
10347W        W26156  14.748   9.305   1.252 -0.1011 -0.0754  0.1324
10348W        W26157  16.283   6.094  11.099 -0.2739 -0.2645  0.2910
10349W        W26158  12.724  18.129   5.845 -0.1183  0.2426  0.0625
10350W        W26159   2.272   8.583   2.677 -0.0584 -0.2692 -0.1496
10351W        W26160  16.241   7.159  11.100  0.1461  0.0361 -0.2519
10352W        W26161   5.115  12.123  11.939 -0.1400  0.0754  0.2018
10353W        W26162   5.760   8.707   4.972 -0.2683 -0.1958 -0.2015
10354W        W26163  16.390   6.869  14.011 -0.2572  0.0196 -0.2351
10355W        W26164   9.001  13.317   4.654  0.0378  0.1781 -0.0873
10356W        W26165   0.888  13.819  11.615 -0.1016 -0.2334  0.1490
10357W        W26166  17.335  17.561   1.557  0.1810  0.1325 -0.3591
10358W        W26167  14.652   1.641  14.236 -0.1873  0.0725 -0.1677
10359W        W26168  12.672   1.168   2.566 -0.2451 -0.0294  0.1899
10360W        W26169  11.400   5.267  10.920  0.3060  0.2426 -0.0006
10361W        W26170   2.725   9.310  11.371 -0.0670  0.3350 -0.1213
10362W        W26171   9.552   0.960   4.106 -0.0235  0.0384 -0.2025
10363W        W26172   4.268   8.785  11.540 -0.3246 -0.2584 -0.1344
10364W        W26173  15.659   3.604   3.110  0.0913  0.0508 -0.2384
10365W        W26174   5.569  11.394   0.182 -0.1733  0.1033  0.1293
10366W        W26175   4.853  15.829  11.196  0.0039  0.1318 -0.4045
10367W        W26176   3.552  14.906  13.112 -0.1026 -0.0063 -0.0861
10368W        W26177   0.969  11.975  13.708 -0.2605  0.1973  0.0940
10369W        W26178  13.982  10.981   4.780  0.0436  0.1919  0.2585
10370W        W26179  12.669   4.506  10.142 -0.2633  0.2646  0.2720
10371W        W26180  11.964   5.332   0.944 -0.2180  0.2111 -0.0172
10372W        W26181  10.642   6.815  10.718  0.1383 -0.1030 -0.3355
10373W        W26182  14.598   3.202  15.091  0.0258 -0.2196  0.0497
10374W        W26183   1.139   2.903   2.269  0.0035  0.1320  0.1548
10375W        W26184   2.727   3.933   1.390  0.1201  0.1226  0.1642
10376W        W26185  18.942  10.495  15.204 -0.0456  0.0847  0.0592
10377W        W26186   7.056   5.376   2.033 -0.1902 -0.1763 -0.1132
10378W        W26187   9.510   7.514   1.858 -0.3404 -0.0971  0.1052
10379W        W26188   6.179  16.713  13.754 -0.1346  0.4819  0.1228
10380W        W26189  14.477  10.325   3.757  0.2525 -0.0752 -0.0220
10381W        W26190  10.073   0.060  13.431  0.1498 -0.1907 -0.0409
10382W        W26191   9.532  11.618  13.871 -0.1177 -0.3124  0.3429
10383W        W26192   7.307   8.874  11.628 -0.4080  0.0560  0.0406
10384W        W26193  10.990   8.744  14.279 -0.0052 -0.2379  0.2024
10385W        W26194  12.055  18.286  11.920  0.0015 -0.1024 -0.0827
10386W        W26195   9.145   2.199   1.826  0.0231  0.3504 -0.2905
10387W        W26196  15.853   9.549   0.992 -0.0409  0.1456 -0.1205
10388W        W26197   3.590   5.526  15.184 -0.2483  0.1094 -0.3159
10389W        W26198  15.097   5.067   1.645  0.1638  0.0662  0.1672
10390W        W26199   4.346   2.221  14.214  0.1665  0.0409  0.0317
10391W        W26200   5.307  10.417   4.384 -0.0581  0.0657 -0.1514
10392W        W26201  11.673   2.144   2.609 -0.1501  0.0640  0.2642
10393W        W26202   6.512   8.229  12.205  0.1554  0.0665 -0.0495
10394W        W26203  13.119  17.326  11.070 -0.3716  0.1693 -0.0514
10395W        W26204   5.618  15.820   4.401 -0.0544 -0.3859  0.2442
10396W        W26205  17.425  11.020   1.349 -0.1105 -0.3043 -0.0590
10397W        W26206   0.189  17.727   5.281 -0.2113 -0.1126  0.1884
10398W        W26207  15.628   6.288   1.830  0.1403  0.3493 -0.1365
10399W        W26208   7.461  11.378   1.222  0.0620 -0.1011 -0.0896
10400W        W26209  19.076   2.182  10.358  0.2490  0.6100  0.0229
10401W        W26210   0.786  10.592   2.907 -0.2107 -0.0270  0.1266
10402W        W26211   2.954  15.267  11.476  0.0505 -0.0701 -0.2062
10403W        W26212   3.786   2.633  15.202 -0.1153 -0.3434  0.1533
10404W        W26213  17.676  17.666  12.493 -0.2104  0.3267 -0.0875
10405W        W26214  18.414   1.884  13.446 -0.1722 -0.2012  0.1304
10406W        W26215  10.599   1.730   2.775  0.0086  0.1811  0.2394
10407W        W26216  18.238   5.165  14.737  0.4470  0.1351 -0.0710
10408W        W26217   4.291  11.200   2.434  0.1970 -0.0142 -0.2189
10409W        W26218   8.830   1.430   3.982 -0.1333  0.2962 -0.3578
10410W        W26219   6.991   8.422   2.426 -0.0559  0.2383  0.2041
10411W        W26220  15.305  16.457   4.614 -0.0425  0.2564  0.2581
10412W        W26221   3.554   8.539   2.049 -0.2055  0.0103 -0.1670
10413W        W26222   8.553  13.029  13.192  0.3495 -0.1835  0.1217
10414W        W26223   2.846  13.343  13.290 -0.0251 -0.0115 -0.0990
10415W        W26224  12.487   2.707   0.967  0.2893 -0.1161 -0.0762
10416W        W26225  13.232   7.629  12.145 -0.2115 -0.0663 -0.0961
10417W        W26226  19.124  12.403   1.807 -0.4030 -0.1122 -0.0114
10418W        W26227   5.731   8.226   1.414  0.0903 -0.0640  0.0399
10419W        W26228   1.752  10.469   5.282  0.0372 -0.1339  0.2588
10420W        W26229  10.234   4.909   1.058  0.0007  0.1658  0.2306
10421W        W26230   2.116   3.802   3.017 -0.0096 -0.1493  0.1230
10422W        W26231   3.495   7.218   0.083  0.0137 -0.2377 -0.4375
10423W        W26232  15.205   7.731   2.585 -0.0604 -0.1949 -0.1182
10424W        W26233   6.543  13.569   1.755  0.0729 -0.0372 -0.4623
10425W        W26234   2.255  10.053  14.248  0.0560  0.3190  0.1387
10426W        W26235  18.270   2.185   4.434 -0.0062  0.3465  0.1465
10427W        W26236  14.542   0.647  13.350 -0.0938  0.2885 -0.0916
10428W        W26237   6.531   1.235   2.051  0.1435 -0.2682  0.0930
10429W        W26238   0.575  11.009  12.440 -0.1305  0.0115 -0.2002
10430W        W26239   9.963   7.767   3.103 -0.2644 -0.3323 -0.0228
10431W        W26240  16.331  16.995  12.467  0.0780  0.0631  0.1669
10432W        W26241   4.856  13.831  13.379 -0.0427 -0.0629  0.2340
10433W        W26242   4.838   5.951  11.138  0.0499  0.0465 -0.1206
10434W        W26243   5.733   3.888   2.645 -0.3600 -0.3404 -0.0282
10435W        W26244  11.452  12.170  10.875  0.0225 -0.2722 -0.0286
10436W        W26245  18.323   8.963   5.072 -0.2991  0.1432 -0.0005
10437W        W26246   6.010  14.419  10.996 -0.0308 -0.0136 -0.3150
10438W        W26247   0.897  13.894   2.556  0.3024 -0.1574 -0.1544
10439W        W26248  13.691  13.456   4.070 -0.0238  0.3166 -0.0176
10440W        W26249  14.755  13.339  12.500  0.3294 -0.3162 -0.3952
10441W        W26250  11.338   3.577  11.395 -0.0186 -0.1571 -0.0873
10442W        W26251  17.609  14.421   0.613 -0.0583  0.0015 -0.1082
10443W        W26252   2.278  16.674  12.638 -0.4042  0.4605  0.0303
10444W        W26253   6.950   1.809  11.114  0.1502  0.0112  0.0721
10445W        W26254  14.909  14.130   4.108  0.2287  0.1694 -0.0317
10446W        W26255  16.853  11.978   1.160  0.4562  0.2421  0.0415
10447W        W26256   0.552  17.899   0.761  0.1685  0.3019 -0.0018
10448W        W26257  17.898  11.767  14.227  0.1415 -0.2357  0.2253
10449W        W26258  14.408   8.611  11.980  0.1290 -0.0036  0.2483
10450W        W26259  16.965  12.116  14.359 -0.1378  0.3141  0.4657
10451W        W26260  18.250  15.298   2.274 -0.0938 -0.1315 -0.1958
10452W        W26261   0.142  15.859  11.947 -0.0926 -0.4348  0.2187
10453W        W26262  16.533  18.141  13.790  0.0415  0.0742  0.2533
10454W        W26263  11.035  18.740   2.030 -0.0684 -0.2811 -0.0441
10455W        W26264   7.239  12.876  10.794  0.1972 -0.0267  0.0642
10456W        W26265   6.159   2.623  11.769  0.2972  0.3270  0.0523
10457W        W26266   6.004   9.943  11.933 -0.1029  0.4477  0.0067
10458W        W26267   6.796  13.644  12.712 -0.0414  0.1057 -0.1305
10459W        W26268   8.628  14.812   3.703  0.0234  0.2037  0.0222
10460W        W26269   5.323  12.560  11.570 -0.1904 -0.0494 -0.0003
10461W        W26270   3.724  10.884  12.583  0.0934  0.1678 -0.2106
10462W        W26271   4.739  19.112   3.665  0.0030 -0.2270  0.1290
10463W        W26272  17.300   6.337  10.793  0.2620 -0.1515 -0.0195
10464W        W26273   3.430   4.217  12.612 -0.1276  0.4391 -0.1499
10465W        W26274  16.755  14.180   4.605  0.1564 -0.3406  0.0161
10466W        W26275   0.486   1.621  13.224 -0.1406  0.1714  0.1781
10467W        W26276   5.531  14.667   3.014  0.0343 -0.0313  0.0244
10468W        W26277  18.342   0.603  14.088 -0.0907  0.0836  0.2082
10469W        W26278   3.016   4.208   0.065 -0.0815 -0.2653  0.1639
10470W        W26279   4.997  10.502   1.641 -0.1026  0.1789  0.1482
10471W        W26280   6.706   3.775  11.180 -0.0022 -0.1597 -0.1160
10472W        W26281   5.191  11.198   1.011 -0.0974  0.0227 -0.0786
10473W        W26282   2.702   4.548  12.524 -0.2989  0.2110  0.1178
10474W        W26283  16.990   0.258  10.356 -0.0872 -0.2138 -0.3121
10475W        W26284   7.644  11.678   4.463  0.3503  0.1142  0.1474
10476W        W26285   6.567  17.679  11.231 -0.1665 -0.1516 -0.1177
10477W        W26286  16.068   8.082  11.474 -0.2241 -0.3257 -0.0446
10478W        W26287  17.353   6.666   0.012 -0.1941 -0.2106  0.0881
10479W        W26288  19.132  18.649   5.369  0.1741 -0.1311 -0.2449
10480W        W26289  13.992   9.578   2.165  0.1040 -0.1896  0.0267
10481W        W26290  11.357   1.120   4.014 -0.0541 -0.2916 -0.1173
10482W        W26291   3.422   6.169   4.422  0.2118  0.0706 -0.0690
10483W        W26292  14.302  18.777   3.094  0.1674  0.3999  0.2851
10484W        W26293  14.843  10.974  13.335  0.2869  0.4523  0.2622
10485W        W26294  10.583  18.987   1.997  0.0787  0.1481  0.0976
10486W        W26295   9.140   9.947   5.491  0.0287 -0.1746  0.2187
10487W        W26296  17.585   9.247   3.279 -0.0285 -0.1258  0.0415
10488W        W26297   0.776   4.367  11.246  0.1322  0.0049  0.1846
10489W        W26298   6.958   8.601  11.363 -0.3109  0.1354  0.2725
10490W        W26299   4.667   3.253  12.437  0.1967 -0.0057  0.1935
10491W        W26300   5.660   2.268  14.909 -0.1965 -0.1842 -0.1859
10492W        W26301   2.011  10.849   5.662  0.1909 -0.1313 -0.0262
10493W        W26302  16.052  18.388  10.850  0.0219  0.3126  0.0130
10494W        W26303   4.621  15.651  13.554 -0.0590 -0.1207  0.1304
10495W        W26304   6.186   8.838  10.597 -0.0626  0.1724  0.0514
10496W        W26305  15.829  12.700   0.119 -0.2081  0.3894  0.0721
10497W        W26306   8.686  10.198  11.051  0.0297  0.3754 -0.1269
10498W        W26307   4.037   3.926   4.269 -0.1015  0.0644  0.0819
10499W        W26308  11.135  16.722   4.753  0.1198 -0.0189  0.1171
10500W        W26309  16.131  17.873   3.533 -0.1433 -0.0740 -0.1215
10501W        W26310   9.479   8.126   5.343 -0.0138 -0.1624  0.0639
10502W        W26311  16.931  17.032   4.198  0.0860 -0.0850  0.0319
10503W        W26312   3.761  16.913  13.915  0.2991 -0.0706  0.2112
10504W        W26313  14.212  13.868   4.575 -0.0476 -0.1003  0.4242
10505W        W26314  13.286   7.725   5.537 -0.0828 -0.1973  0.3197
10506W        W26315   2.060   0.939  10.330  0.3713 -0.0201  0.1126
10507W        W26316   1.868  10.940   0.754  0.2057  0.3713 -0.2885
10508W        W26317   4.173   7.180  14.717 -0.4604  0.0795  0.1451
10509W        W26318   8.980  16.263  10.758 -0.0008  0.1069 -0.0155
10510W        W26319   7.341   2.770   5.850  0.1448  0.2121 -0.0018
10511W        W26320   4.606   1.252   0.780  0.0745  0.0422  0.2380
10512W        W26321   1.616   8.373  12.703  0.1313  0.1334 -0.0545
10513W        W26322   3.191   4.660   4.546 -0.2700 -0.0264  0.0452
10514W        W26323  12.312   5.872  13.710  0.2290 -0.2440 -0.1849
10515W        W26324  12.876   1.847   0.078  0.0446 -0.0355 -0.0928
10516W        W26325   8.471   9.259  11.286 -0.1807 -0.1077 -0.2463
10517W        W26326  10.211  18.638  13.398 -0.0996 -0.0449 -0.3216
10518W        W26327  16.097   6.762   5.406 -0.0700  0.2530 -0.1255
10519W        W26328  18.525  11.116   1.854 -0.0680 -0.0492  0.0210
10520W        W26329   2.725  18.700  11.647  0.2478 -0.0551 -0.4852
10521W        W26330  11.698  11.316  11.097  0.0534  0.0652 -0.0544
10522W        W26331  11.582  18.622   3.998  0.2816  0.3290  0.0444
10523W        W26332   4.408  16.401  14.748  0.0405 -0.0888  0.0521
10524W        W26333  13.795  14.519  10.851  0.1247 -0.0311  0.2202
10525W        W26334   2.421   8.486   6.087  0.2607  0.2160 -0.1908
10526W        W26335   8.973  13.589   3.000  0.1462  0.1437  0.1075
10527W        W26336  16.884   9.965  11.182  0.3000  0.1776  0.0522
10528W        W26337   0.823   3.343   5.071 -0.0394  0.0122  0.0414
10529W        W26338  13.766   5.638   3.873 -0.1257  0.2035 -0.0224
10530W        W26339  17.339  14.288   2.386  0.0021 -0.3622 -0.0750
10531W        W26340   4.243  12.983   5.958 -0.0171 -0.2088 -0.4385
10532W        W26341  12.041  14.269  12.816 -0.1506 -0.4322  0.1819
10533W        W26342  17.202  14.986   3.245 -0.1138 -0.1074 -0.1080
10534W        W26343  12.471   5.349  11.294 -0.1392 -0.0600 -0.1651
10535W        W26344   5.896  17.635  14.139 -0.3789  0.0633 -0.2584
10536W        W26345  16.396  11.527   3.034  0.1654 -0.0927  0.1749
10537W        W26346  13.503  10.354   2.585  0.0604  0.4812 -0.0920
10538W        W26347  12.637  13.083   0.400  0.3457  0.1025  0.1148
10539W        W26348   6.445   1.872   3.867  0.3846 -0.3185  0.0641
10540W        W26349   1.181   3.712   8.883 -0.2647  0.1871 -0.2565
10541W        W26350   6.841  18.630  11.726 -0.2449 -0.1573  0.3028
10542W        W26351  18.696   7.437   4.978 -0.1877  0.1001 -0.0978
10543W        W26352  12.552   2.862  11.998 -0.0332  0.0590 -0.1262
10544W        W26353  16.807  18.931  11.541  0.2590  0.0370  0.1386
10545W        W26354  17.028   1.738   2.727 -0.2681 -0.4053  0.1528
10546W        W26355  10.279   9.902   1.314  0.3885  0.1003  0.0643
10547W        W26356  10.736   0.692   4.326 -0.0821 -0.0834  0.1323
10548W        W26357   0.190   6.218   1.978 -0.2472 -0.1342  0.5041
10549W        W26358   8.778  10.938   3.290  0.0578 -0.1886 -0.0419
10550W        W26359  13.274   0.957  10.880 -0.2287  0.5026  0.1787
10551W        W26360   8.059   1.875  12.126 -0.0707 -0.2266 -0.0564
10552W        W26361   1.284   8.156   1.473  0.0312  0.2078 -0.0484
10553W        W26362  16.652  18.425   0.835  0.0053  0.1223  0.0259
10554W        W26363  15.613  12.304  11.679 -0.2039 -0.4162 -0.2938
10555W        W26364  11.233  14.017  10.854  0.2560 -0.1391 -0.2482
10556W        W26365   0.561  18.888  14.309 -0.0286 -0.1149 -0.0386
10557W        W26366   4.120   8.208   4.244 -0.2662 -0.0866 -0.0088
10558W        W26367   6.038  17.629   1.908 -0.1986  0.0962 -0.0202
10559W        W26368  13.380   0.306   5.440 -0.0058 -0.2186 -0.0275
10560W        W26369  10.224   2.416  13.327 -0.0170 -0.5145 -0.1031
10561W        W26370  10.230  14.562   3.788  0.2833  0.0086 -0.1608
10562W        W26371  14.246   1.602  13.214 -0.2253  0.0401 -0.0347
10563W        W26372   5.268   3.619  13.381  0.1733 -0.0653  0.0149
10564W        W26373   8.431  13.354   9.299 -0.4668 -0.0048 -0.2321
10565W        W26374   4.205  10.623  13.701 -0.0906 -0.0399  0.4150
10566W        W26375  12.951  17.918  13.609 -0.1634  0.0616 -0.0777
10567W        W26376   1.522   7.394   3.075 -0.0734 -0.1704 -0.0247
10568W        W26377  10.606  14.716  11.095  0.2184 -0.0656 -0.0077
10569W        W26378  12.478  11.671   0.612  0.2440  0.2551 -0.1328
10570W        W26379   0.511  10.114   4.696 -0.0453  0.1431 -0.1801
10571W        W26380  17.486  18.959  11.349  0.3750  0.1470 -0.0660
10572W        W26381   6.476   2.931  14.615 -0.0346 -0.0980 -0.3546
10573W        W26382   0.570   4.641  14.178  0.0677  0.2313 -0.0054
10574W        W26383   5.371   6.862   0.309  0.0548  0.0188  0.1029
10575W        W26384  11.143   7.875   1.770  0.0144 -0.1727  0.0398
10576W        W26385   8.544   3.264  10.568  0.3904 -0.2315  0.3584
10577W        W26386   7.340  11.169   2.039 -0.1095  0.0437 -0.0216
10578W        W26387   3.120  15.173   4.780  0.0486 -0.1683  0.3307
10579W        W26388   7.262   8.007   2.311 -0.2783 -0.0407  0.1356
10580W        W26389   7.605   4.822   0.892  0.2673  0.0555 -0.0775
10581W        W26390  10.136   8.491   1.723 -0.1155  0.3454  0.2038
10582W        W26391   6.113   9.788  11.443 -0.1001 -0.2095 -0.1024
10583W        W26392   4.843  15.210  12.763 -0.0912 -0.4363  0.0960
10584W        W26393   9.775  15.876  12.093 -0.1114  0.0796  0.0666
10585W        W26394  14.283   6.196  12.375  0.0214 -0.1575  0.0311
10586W        W26395  18.102  13.125   1.413 -0.0588 -0.0759  0.2478
10587W        W26396   9.475  12.715  14.763 -0.0106  0.1177 -0.0183
10588W        W26397   0.060   4.019   3.439  0.1895  0.0697 -0.0793
10589W        W26398   9.707  13.466   1.412 -0.0180  0.2745 -0.2257
10590W        W26399  11.544  12.185  13.304  0.0690 -0.2123 -0.0913
10591W        W26400  10.653  14.538   1.885 -0.0200  0.0605 -0.1139
10592W        W26401  14.411  12.435  14.145 -0.0546  0.1769  0.0635
10593W        W26402  13.800   4.499  15.158 -0.0819 -0.0260 -0.0187
10594W        W26403   2.559   8.979   9.683  0.3478 -0.0265  0.2537
10595W        W26404   0.498  10.934   0.837 -0.0255  0.1471 -0.1122
10596W        W26405   3.560   2.274  13.309 -0.1558 -0.0915 -0.1268
10597W        W26406   7.233   5.074   0.469 -0.3831  0.1588 -0.0121
10598W        W26407   0.864  13.686  13.763  0.1244  0.0646  0.1297
10599W        W26408   1.488  13.843  14.345 -0.0418 -0.0919  0.0539
10600W        W26409  15.148   0.926   4.476  0.2348 -0.2718  0.0543
10601W        W26410   7.892  14.975   4.428  0.1879 -0.1018 -0.0146
10602W        W26411  12.519   9.946  10.667  0.0594  0.0407  0.0859
10603W        W26412  11.887  16.431   0.942 -0.3428 -0.2254  0.0305
10604W        W26413   0.390   3.054   4.115 -0.0052 -0.1414 -0.2479
10605W        W26414   5.921   7.378  12.533  0.1115 -0.3557 -0.0936
10606W        W26415  12.213  16.730  13.389  0.4182  0.0860  0.2166
10607W        W26416  18.542   7.193  11.469  0.4037  0.6300  0.2395
10608W        W26417   6.221   5.190  12.411  0.2191  0.0068 -0.3735
10609W        W26418   8.161   8.734   0.776 -0.1366 -0.1322 -0.0011
10610W        W26419  16.188  10.455   1.150  0.1503 -0.0364 -0.3896
10611W        W26420  14.668   1.173   2.498  0.1913 -0.0802 -0.4672
10612W        W26421   1.814   9.479   0.433 -0.1552 -0.3179 -0.1306
10613W        W26422   4.934   7.868  11.285 -0.0078 -0.0158 -0.3376
10614W        W26423   6.996  16.861   3.340  0.1355  0.3358 -0.1240
10615W        W26424  17.044   5.553   2.857  0.2071  0.0374  0.0604
10616W        W26425   1.873   2.342  12.235 -0.0558  0.0659  0.2266
10617W        W26426   9.954  18.356   3.258  0.2569 -0.0259 -0.0527
10618W        W26427  13.603   5.092  14.512 -0.1177 -0.2161 -0.0666
10619W        W26428  12.755   7.342  13.648 -0.0926  0.0219 -0.0774
10620W        W26429   6.575  10.384   2.153 -0.3374  0.3335  0.4383
10621W        W26430  11.886   9.983   2.201 -0.1323  0.2898 -0.0543
10622W        W26431   7.172  10.139   0.065 -0.1770 -0.1016 -0.0301
10623W        W26432   0.717   3.523   1.550  0.0151  0.2014  0.0555
10624W        W26433  13.878  14.175  11.763  0.1287  0.0075  0.1640
10625W        W26434  11.903  17.081  13.432  0.2151 -0.0578 -0.0026
10626W        W26435   2.161   1.656   2.396  0.3674  0.0461 -0.3422
10627W        W26436  12.883   8.120   1.924  0.1252 -0.1360  0.0737
10628W        W26437  15.001   4.117   0.980 -0.2374  0.2216 -0.0077
10629W        W26438   9.831  18.163  12.399 -0.0565  0.0768  0.0404
10630W        W26439   0.291  11.766   3.796  0.4640  0.0106 -0.2868
10631W        W26440   7.806   6.068  12.019  0.0400 -0.1707  0.0748
10632W        W26441   4.400   1.488   1.752  0.0466 -0.0206  0.1557
10633W        W26442   6.666   1.426   4.755  0.2071 -0.1304 -0.3534
10634W        W26443   3.518   3.733   5.024 -0.0691 -0.1420 -0.2137
10635W        W26444  19.064  17.073  10.925  0.1147 -0.1333  0.2535
10636W        W26445   0.568   3.283  14.549  0.0272  0.1358  0.1258
10637W        W26446   8.332   1.174   2.010  0.1734  0.0497  0.0475
10638W        W26447  19.099   8.803  11.468  0.4081  0.2428 -0.1784
10639W        W26448  12.531   4.751   9.342  0.3185 -0.3606 -0.3543
10640W        W26449   5.015   6.046   2.976  0.2775 -0.0864 -0.0626
10641W        W26450  10.719  10.835   5.109 -0.2512 -0.4454  0.2841
10642W        W26451  15.278   3.701  11.832 -0.1382  0.0151  0.1216
10643W        W26452  12.515  11.109  11.493 -0.0848 -0.0295  0.3605
10644W        W26453   5.321  17.587   0.239 -0.0829 -0.0098 -0.0145
10645W        W26454  10.233  10.719   3.577  0.1833 -0.0890 -0.0013
10646W        W26455  17.184  11.416  12.182  0.0914 -0.2817  0.4463
10647W        W26456   6.223  13.329   4.883  0.0744  0.0239 -0.1869
10648W        W26457   3.956  13.122  14.254 -0.1509 -0.0908 -0.2941
10649W        W26458   9.533  11.066   0.219  0.3410  0.1020 -0.0992
10650W        W26459   9.526  16.145  11.769 -0.2275 -0.1042  0.0361
10651W        W26460  14.389   7.943  13.163 -0.1088 -0.1796  0.0478
10652W        W26461  14.365  17.609   0.219  0.0773 -0.1227  0.0547
10653W        W26462  18.493  13.921   1.771 -0.1201 -0.0348 -0.2281
10654W        W26463   2.586   7.930  10.940 -0.0205 -0.3417  0.0532
10655W        W26464  15.111   5.943   4.599  0.0453 -0.0071 -0.0322
10656W        W26465   6.551   2.454   1.142  0.2996 -0.1587 -0.0566
10657W        W26466  18.653   1.694   2.119 -0.0422 -0.1688  0.4419
10658W        W26467  18.677  13.627   0.840  0.1665  0.0567 -0.1848
10659W        W26468  16.336   4.561   5.184 -0.0434  0.1848  0.0583
10660W        W26469  16.590  11.467  13.642  0.4337 -0.0272 -0.0885
10661W        W26470  10.342  16.315   0.057  0.0603  0.2166  0.0820
10662W        W26471  10.882  11.392  14.277 -0.1380  0.1836 -0.0155
10663W        W26472  16.558   3.245  14.645 -0.0551 -0.1725 -0.1414
10664W        W26473   1.461   0.773   1.728  0.3003  0.0068 -0.1145
10665W        W26474   7.291   1.953   1.266  0.1013 -0.2611  0.0681
10666W        W26475   4.601  15.955  12.714  0.0307  0.1881  0.2972
10667W        W26476   4.694   4.961  12.875 -0.0385  0.1043 -0.2065
10668W        W26477  14.169   9.441   4.006  0.2119  0.0164  0.2432
10669W        W26478   9.212   7.047  13.699  0.2247 -0.2420 -0.1552
10670W        W26479  18.771   7.958  11.034 -0.1643  0.0464  0.0748
10671W        W26480  15.202   7.913  10.519 -0.2946  0.2217 -0.0790
10672W        W26481  12.565   9.038   1.611  0.0043 -0.1550  0.0589
10673W        W26482   2.570  17.883  10.298  0.1312  0.3868 -0.2049
10674W        W26483   0.612   0.690   1.655  0.0216  0.0703  0.1954
10675W        W26484  18.730  16.776   2.077  0.2266 -0.1803 -0.1337
10676W        W26485  12.311  15.886   0.297 -0.2725 -0.4587 -0.0538
10677W        W26486  16.728   4.971   1.086  0.0574  0.0425  0.0410
10678W        W26487  15.032  11.133  11.453  0.0093  0.0237  0.1322
10679W        W26488   6.552  14.240  14.357  0.0147  0.2637  0.0052
10680W        W26489  14.793   8.210   0.702 -0.2531  0.1975  0.1350
10681W        W26490  18.782  12.039   1.767 -0.0990 -0.0070 -0.4104
10682W        W26491  16.637  10.105   0.828 -0.2219  0.0082  0.1451
10683W        W26492   8.372   5.179   3.443 -0.0378 -0.0194  0.3313
10684W        W26493   8.484  18.479  14.645 -0.0411 -0.1017 -0.3991
10685W        W26494   3.292   1.896  12.105 -0.1161  0.1076  0.1808
10686W        W26495   7.212   8.711  12.124  0.1733 -0.1804  0.2164
10687W        W26496  16.979  15.165  11.708 -0.0087  0.3915 -0.4953
10688W        W26497   0.697  14.809   1.527 -0.1686 -0.1518 -0.0742
10689W        W26498  12.119  14.189  10.918 -0.1776  0.3390  0.1603
10690W        W26499  13.954  13.411   4.864  0.0676  0.1501  0.0254
10691W        W26500  11.092   5.563  11.627 -0.0749 -0.1378 -0.4427
10692W        W26501   8.316  17.740   3.980 -0.0471 -0.0776  0.2053
10693W        W26502  11.479   6.643   3.041 -0.3019 -0.0051 -0.0471
10694W        W26503   5.415   0.876   3.654  0.1966  0.0262  0.3971
10695W        W26504  12.474   9.113   0.207 -0.1725 -0.1091  0.0070
10696W        W26505  18.807  11.837   3.555 -0.2683  0.1003  0.2142
10697W        W26506  14.021   0.742   5.105 -0.1152 -0.2041 -0.2066
10698W        W26507  15.884  17.317   0.045 -0.1214 -0.1966  0.0914
10699W        W26508   4.703   1.015  13.002  0.1745  0.2343  0.1332
10700W        W26509  11.437  16.450  12.889 -0.1699  0.3008 -0.0235
10701W        W26510   8.670  16.471  12.253 -0.0945  0.0880  0.2995
10702W        W26511  12.437   7.956  10.853 -0.2342 -0.3507  0.0795
10703W        W26512  16.577   9.452  10.767 -0.0258  0.2122  0.2117
10704W        W26513   3.121   4.360  14.452 -0.0573  0.1918  0.2103
10705W        W26514  10.040  17.821  13.787  0.0107  0.1602 -0.1805
10706W        W26515   1.842   7.169  13.054  0.0492 -0.0455 -0.0574
10707W        W26516  11.183  14.709   5.490  0.0932  0.0575  0.0616
10708W        W26517  15.181   3.969   1.947  0.1825 -0.0683 -0.0711
10709W        W26518   5.102  18.346  15.043 -0.0163 -0.2802 -0.0075
10710W        W26519  16.660  14.229   2.465  0.0035  0.0081 -0.0413
10711W        W26520   0.309  12.636   1.211  0.0207 -0.3460  0.1945
10712W        W26521  11.398  15.133  13.316 -0.0390  0.1240 -0.2228
10713W        W26522   0.667  18.272  10.401 -0.1867  0.0674  0.2339
10714W        W26523   8.363  14.299  14.025 -0.1759  0.3435 -0.1673
10715W        W26524  17.097   3.262  14.800  0.5788  0.2116  0.0792
10716W        W26525  15.358  16.105   2.074  0.0756 -0.1607 -0.2106
10717W        W26526  10.117   2.712   0.647  0.3218  0.2455 -0.2742
10718W        W26527  16.297  10.858  14.191 -0.0753 -0.0920  0.0417
10719W        W26528   0.390   3.892  10.817  0.3498  0.0180  0.1318
10720W        W26529   3.713   2.296   4.758  0.0212  0.0727 -0.1907
10721W        W26530   1.175  16.399   0.949 -0.1508  0.1204 -0.0471
10722W        W26531  14.640  18.875   4.170  0.0746  0.0860  0.0477
10723W        W26532   6.154  14.796  11.340  0.1267  0.2445 -0.2187
10724W        W26533  14.055   3.378   1.279 -0.4451 -0.2657  0.0075
10725W        W26534  16.468   8.516  10.996  0.1163 -0.2487 -0.0283
10726W        W26535   8.986  14.930   2.226 -0.1552 -0.1118  0.2453
10727W        W26536   0.841  10.568  12.207  0.1262 -0.0464  0.0891
10728W        W26537   1.253  10.600   2.752 -0.2151  0.1730 -0.1624
10729W        W26538  16.918  10.296  12.667  0.2308 -0.3331  0.1731
10730W        W26539   6.105   2.906   2.769  0.0290  0.4651 -0.1709
10731W        W26540   6.535  15.216  11.147  0.1101  0.3500 -0.1721
10732W        W26541   8.853   8.031   4.555  0.1592  0.0494 -0.0697
10733W        W26542  11.660  14.668   3.710  0.0651 -0.2122  0.1458
10734W        W26543   6.538   7.036   4.840  0.1462  0.0044  0.0643
10735W        W26544   0.605   4.616   1.995  0.3025 -0.1570  0.2049
10736W        W26545  11.027  12.038  11.216  0.0460  0.5679  0.4492
10737W        W26546   7.432   2.883  10.437  0.1539 -0.1811 -0.2031
10738W        W26547   9.445   6.878  12.785  0.0124  0.0738 -0.0770
10739W        W26548   4.006  12.327  13.077  0.0981  0.1794 -0.1143
10740W        W26549  10.199  10.991  12.682 -0.0712 -0.1538  0.2839
10741W        W26550   8.698   1.572   9.532  0.1183 -0.0776  0.1017
10742W        W26551   8.120   6.333   3.449 -0.1505  0.0716 -0.1207
10743W        W26552   6.500   1.631  14.244 -0.2454 -0.1775  0.0205
10744W        W26553  19.126   0.547   3.923 -0.1667  0.1629 -0.3665
10745W        W26554   4.111   0.618  14.690  0.0488  0.1310 -0.1815
10746W        W26555   3.833   8.776   4.257  0.2423  0.4107 -0.0059
10747W        W26556  15.545  10.411  12.349 -0.0342 -0.1195 -0.0120
10748W        W26557  13.040  10.589  10.733  0.1543  0.0029  0.2944
10749W        W26558  15.863   6.445   2.770 -0.0783 -0.0744 -0.2355
10750W        W26559   2.989   0.704   4.926 -0.2115 -0.0110 -0.1767
10751W        W26560  10.686   2.147  14.150  0.0303 -0.0930  0.0682
10752W        W26561   7.345   1.262  13.510  0.2191  0.1082 -0.0755
10753W        W26562  11.371  18.420   1.774  0.2572  0.1724  0.5412
10754W        W26563   4.879  17.028   3.105 -0.0962  0.1028 -0.1102
10755W        W26564   7.031   1.022   1.424  0.0657 -0.1257 -0.3677
10756W        W26565   2.009  10.370   3.038 -0.0931  0.0305  0.3722
10757W        W26566   8.233  12.279  11.272 -0.3509  0.0824 -0.2206
10758W        W26567   4.595   4.850   0.101  0.0438  0.1528 -0.2760
10759W        W26568  18.095  12.478  11.121 -0.3069  0.2513  0.2361
10760W        W26569   9.303  17.672   4.973  0.0774  0.1227 -0.0162
10761W        W26570   0.607  13.424   4.157  0.0150 -0.4484  0.1726
10762W        W26571   6.203   1.102  14.898 -0.0234  0.3495 -0.0281
10763W        W26572   1.363  11.055  11.825  0.0575 -0.1712 -0.1712
10764W        W26573  10.752   5.882  12.051 -0.2018 -0.2729 -0.3659
10765W        W26574  12.080   9.250  12.912 -0.1116 -0.3351 -0.0940
10766W        W26575   3.100  11.492   4.955  0.2183 -0.0067  0.3453
10767W        W26576  15.310   8.698   4.688 -0.2015 -0.0033  0.0168
10768W        W26577  10.561   1.038  14.651 -0.0740 -0.4688  0.1178
10769W        W26578   8.404   6.048   3.742 -0.1604 -0.2609 -0.0652
10770W        W26579   0.627  10.150   3.242 -0.0342  0.0138  0.0268
10771W        W26580   9.588  12.137   4.060  0.1205  0.0916 -0.2853
10772W        W26581  14.350   0.807   1.706  0.1202 -0.2777  0.4313
10773W        W26582   4.019  10.293  11.367  0.0686  0.0729 -0.0645
10774W        W26583   5.504  16.674   9.146  0.3002  0.0207 -0.0653
10775W        W26584   0.575  11.420  11.284  0.1075 -0.0839 -0.1237
10776W        W26585   6.221  14.072   1.126 -0.2269 -0.2862 -0.0974
10777W        W26586  14.615   0.426  11.937 -0.1782 -0.0967  0.0708
10778W        W26587   2.286  18.441   1.123 -0.0242 -0.3048  0.3584
10779W        W26588  12.220   4.013  11.418  0.0507 -0.0287  0.0356
10780W        W26589   0.168   5.024  14.976  0.0017  0.1430  0.1427
10781W        W26590  10.115   4.784   4.865 -0.0514  0.1832 -0.1590
10782W        W26591  11.345   4.286  11.935 -0.0982 -0.0299  0.0982
10783W        W26592   7.722  13.965  10.953 -0.0705  0.0917 -0.2143
10784W        W26593  14.054   3.948   2.708  0.1200 -0.2072 -0.0304
10785W        W26594  12.430  10.834   1.995 -0.2865  0.4188  0.0561
10786W        W26595   6.027   9.633  13.164  0.0417 -0.2511  0.2697
10787W        W26596   3.317  14.988   4.306  0.1588 -0.2365  0.0728
10788W        W26597   2.716  18.978   4.461 -0.5107 -0.0932  0.0934
10789W        W26598  11.125  15.830   3.703  0.4197 -0.1593  0.1115
10790W        W26599  18.391  18.929   0.525  0.1855  0.2384 -0.0094
10791W        W26600   8.220  15.039  12.284 -0.1241  0.0822 -0.1784
10792W        W26601   6.311   9.336   0.517  0.0276  0.1137  0.3322
10793W        W26602  14.052   7.072   0.334 -0.1317  0.0025 -0.0052
10794W        W26603   8.804  19.077   3.292 -0.2413 -0.2798 -0.2813
10795W        W26604   6.011  10.236   4.814  0.4882  0.1067  0.0680
10796W        W26605  11.415  17.693  10.822 -0.3011  0.0877  0.0354
10797W        W26606  13.847   1.480   0.126  0.1342 -0.1619  0.2092
10798W        W26607   9.482   6.728  11.687 -0.1072  0.3565 -0.1240
10799W        W26608  13.164   6.160   1.494 -0.1444 -0.1687 -0.2436
10800W        W26609   2.142   3.321   3.296  0.0998  0.2224 -0.0380
10801W        W26610  11.087   3.692   0.954 -0.3657  0.1851 -0.0116
10802W        W26611   5.890   7.301  10.240 -0.3192 -0.1053 -0.1339
10803W        W26612  12.624   3.448  11.195  0.1513  0.2125  0.2710
10804W        W26613   7.405  13.518   1.544 -0.2169 -0.1118  0.2982
10805W        W26614   3.301  13.534  11.136  0.0391 -0.4760  0.0059
10806W        W26615  14.229  16.483   3.646 -0.0916  0.0752 -0.3993
10807W        W26616   8.293  12.470   0.512  0.1457  0.2046 -0.3322
10808W        W26617  10.316  15.594  12.956 -0.1944  0.0355  0.0452
10809W        W26618   8.297   1.343   5.571 -0.1541 -0.1603  0.4403
10810W        W26619  10.662   1.706  13.548  0.1670 -0.1218  0.3263
10811W        W26620   5.529   7.781   2.699 -0.0340  0.0281 -0.0980
10812W        W26621  14.061   7.810   1.042  0.1754  0.1975  0.1759
10813W        W26622  15.541   6.815   4.902  0.0183  0.1708 -0.0563
10814W        W26623   3.051  18.625   1.669  0.0468 -0.4082 -0.0340
10815W        W26624   6.876  11.629  10.894 -0.2216  0.2970 -0.3946
10816W        W26625   9.170  16.161   1.207 -0.1458 -0.2007 -0.0414
10817W        W26626   1.811  16.558   1.575  0.2017 -0.2192 -0.4354
10818W        W26627  15.587  17.788   5.131 -0.1908  0.1228  0.3689
10819W        W26628   4.119  18.467   0.819 -0.2102  0.2271  0.1810
10820W        W26629  18.485  12.472  13.804  0.2862 -0.0944 -0.2465
10821W        W26630  16.755   2.304   1.044 -0.2285 -0.3537 -0.1859
10822W        W26631  10.781   1.231   3.571  0.0555 -0.2980  0.1299
10823W        W26632  12.941   0.176   5.049 -0.0658 -0.2405  0.0393
10824W        W26633   2.007  18.245  14.237  0.1415  0.2453 -0.2349
10825W        W26634  18.382   0.829   4.697 -0.2421  0.4263  0.0904
10826W        W26635  11.340  11.546   5.125  0.0698  0.0641 -0.0620
10827W        W26636   4.390   7.947  12.227 -0.3007  0.1037  0.0345
10828W        W26637  18.670  12.983  13.993 -0.1341 -0.0963  0.0856
10829W        W26638  17.856   3.230  14.213 -0.0638 -0.1189 -0.1343
10830W        W26639   3.153   3.248   2.098 -0.2094  0.0047 -0.2040
10831W        W26640  12.668   4.821  14.750  0.2499  0.2232 -0.0797
10832W        W26641   6.666  11.114   4.058 -0.2157  0.0947  0.1246
10833W        W26642  16.148   0.027   0.215 -0.2064  0.2518  0.1759
10834W        W26643  17.208  19.001  11.911  0.2369  0.4328 -0.2358
10835W        W26644  17.816  15.536   2.098  0.0315 -0.2596 -0.2350
10836W        W26645  14.465  16.998  13.838 -0.1047 -0.0995  0.0123
10837W        W26646  10.472  12.848   1.832 -0.0106  0.0011  0.2280
10838W        W26647  14.207   3.914  12.792  0.2083 -0.1551 -0.2277
10839W        W26648   4.271   2.652  12.793 -0.1827  0.0956 -0.0918
10840W        W26649   9.989  15.691   3.439  0.0734  0.1721 -0.0101
10841W        W26650  14.367   0.206   5.182 -0.0920 -0.1591  0.1221
10842W        W26651  12.464  16.359   2.862 -0.4000  0.0325 -0.0850
10843W        W26652  15.943   1.594  11.712  0.1744  0.1368 -0.4338
10844W        W26653  16.226  14.316  10.894 -0.2445 -0.1283  0.0526
10845W        W26654  12.477  16.863   2.723 -0.0685  0.1240 -0.0370
10846W        W26655   5.387   7.012  13.321 -0.0528  0.0813  0.2465
10847W        W26656   0.322   3.767   0.554  0.1110  0.3104 -0.0449
10848W        W26657   1.116  14.305   3.321 -0.0308  0.2384 -0.0846
10849W        W26658   8.986  17.855   0.726  0.0224 -0.0445  0.0352
10850W        W26659  13.053  16.291  13.752  0.1310  0.4034 -0.0402
10851W        W26660   2.968   4.326  12.878  0.0232 -0.0471  0.1483
10852W        W26661   1.708  11.394   0.871  0.0264 -0.0856 -0.0008
10853W        W26662  10.333  11.275  15.064 -0.3764  0.0102  0.1596
10854W        W26663   8.099   9.166   1.963 -0.1328 -0.0829  0.1106
10855W        W26664  16.675  10.394   1.873 -0.1089 -0.2409 -0.0545
10856W        W26665  13.177  10.113  13.912 -0.0022 -0.4707 -0.0399
10857W        W26666  11.961   7.555   3.912  0.0763  0.0232  0.2157
10858W        W26667   1.649  16.037  13.680  0.1297 -0.2978  0.0616
10859W        W26668   8.880  13.245  14.126 -0.3315 -0.0194  0.0812
10860W        W26669  17.139  11.917  11.459 -0.4253 -0.0528  0.0231
10861W        W26670  18.996   2.586  13.670 -0.1276  0.0190 -0.4435
10862W        W26671   1.983  13.820  13.836  0.1365 -0.1166 -0.0559
10863W        W26672  11.900  17.390   3.614 -0.0022 -0.3326 -0.1559
10864W        W26673  11.315   3.630  10.495  0.0962 -0.0484  0.0507
10865W        W26674  17.177   2.598  10.668  0.0377 -0.0897 -0.4128
10866W        W26675   2.224   3.135   4.692  0.0355 -0.1451  0.0758
10867W        W26676   6.570   3.373   4.137 -0.0446 -0.0572 -0.1829
10868W        W26677   0.301   4.525   1.605 -0.0116  0.2021  0.0520
10869W        W26678  14.179  11.968   3.041 -0.0343 -0.1476 -0.1165
10870W        W26679   3.779   2.921   1.035 -0.1744  0.0672  0.2400
10871W        W26680  18.161   6.280   3.575 -0.0699 -0.1052 -0.0642
10872W        W26681   8.671   8.280  10.244 -0.2359 -0.2773 -0.1642
10873W        W26682   8.286  18.608   4.393  0.1032 -0.0104  0.0174
10874W        W26683   1.037   9.177  11.459 -0.1394 -0.0903  0.0934
10875W        W26684  13.865   9.943   1.848 -0.0121 -0.0616  0.0781
10876W        W26685  16.219  14.217  13.511  0.2780 -0.0181 -0.0938
10877W        W26686   6.148   6.386  15.052 -0.1395  0.3498 -0.1440
10878W        W26687   8.193  18.225   0.368 -0.1845 -0.1983  0.2743
10879W        W26688  15.340  13.222  12.959 -0.0425 -0.0927  0.1835
10880W        W26689  17.035  15.958   3.507 -0.1621 -0.2411 -0.4441
10881W        W26690  15.490   0.775  12.256  0.0423  0.0215 -0.2063
10882W        W26691   4.462   5.366  10.480 -0.0142  0.1333 -0.3480
10883W        W26692   1.117   4.851   1.413  0.0392  0.3309  0.2381
10884W        W26693  18.682   5.589   3.649  0.0798 -0.0445 -0.1770
10885W        W26694   4.528  16.965  13.381 -0.0610  0.0456 -0.2114
10886W        W26695  15.563   8.876  10.695 -0.1245 -0.0630 -0.2171
10887W        W26696   8.691  15.176  14.788  0.0145 -0.0592 -0.1125
10888W        W26697   1.980   1.629  11.886 -0.0280  0.1573 -0.1322
10889W        W26698  13.836   4.810  11.000 -0.2003 -0.1328 -0.1214
10890W        W26699  11.961  11.629   3.829  0.1914 -0.1384  0.0984
10891W        W26700  13.963   3.651   3.759 -0.1450  0.0883  0.0881
10892W        W26701   5.034  14.907  10.836 -0.0700 -0.0957 -0.0130
10893W        W26702  14.169  10.171   5.030 -0.0000 -0.2873 -0.0009
10894W        W26703  10.570  17.243   2.057  0.3493  0.1832 -0.4669
10895W        W26704  11.171   7.011   4.874  0.3583  0.0447  0.0210
10896W        W26705  16.542   9.680  14.086  0.1738  0.0018  0.2641
10897W        W26706   5.855   2.262   0.115 -0.1233  0.1225  0.0532
10898W        W26707  16.121   3.342  14.974 -0.1944 -0.0659  0.1860
10899W        W26708   3.767  11.629   3.709  0.1146 -0.2848 -0.2322
10900W        W26709  12.519   8.475   0.732  0.1106  0.2049 -0.1252
10901W        W26710  14.021  12.099   4.240  0.0495 -0.2240  0.2926
10902W        W26711   7.865   6.000  15.253 -0.3364  0.1730 -0.3705
10903W        W26712   4.961   2.105  14.542  0.1360  0.1366  0.0945
10904W        W26713  13.715  12.484  14.930  0.1501  0.1112 -0.0681
10905W        W26714  15.519  12.174   0.016 -0.0931  0.0127  0.1224
10906W        W26715  13.375  16.893   0.460  0.1009  0.0126 -0.0234
10907W        W26716   0.824  14.663  12.798 -0.0789 -0.2023  0.1396
10908W        W26717  10.066  14.721  14.659  0.2185  0.1209  0.1032
10909W        W26718  11.288   9.812  11.716  0.1904 -0.1617  0.1003
10910W        W26719   0.569   9.472   1.009 -0.0941  0.0315  0.2960
10911W        W26720   7.459  15.270  10.840  0.0874 -0.0197 -0.0967
10912W        W26721   2.153  13.071  14.785 -0.0357  0.0497  0.2537
10913W        W26722  13.835  10.755   2.610 -0.3454 -0.4969 -0.0226
10914W        W26723   8.287   9.516  14.675  0.1907 -0.0874 -0.1520
10915W        W26724  12.475   3.432   2.414 -0.0765  0.2684 -0.1881
10916W        W26725   7.102   0.925  12.081 -0.0381  0.0995  0.2159
10917W        W26726  15.759   9.109  13.117 -0.2861  0.1535 -0.2212
10918W        W26727  12.968  11.969   4.383 -0.1383  0.0841 -0.2612
10919W        W26728   9.397  16.258   2.399  0.2298  0.3530  0.0151
10920W        W26729  16.467   0.018   4.115  0.1881  0.0124  0.1259
10921W        W26730   6.373   3.052   4.536  0.0556 -0.1936 -0.1515
10922W        W26731  17.379   1.655   0.715  0.0475 -0.0079  0.1744
10923W        W26732   7.849  14.749   2.176  0.1091  0.2678 -0.3342
10924W        W26733   8.670  17.305   0.211 -0.1720 -0.0250 -0.1844
10925W        W26734  18.875   4.357   4.580 -0.0435  0.2275  0.0659
10926W        W26735   1.767   0.132   9.390 -0.1466 -0.1139 -0.0042
10927W        W26736   5.848   9.552   4.281  0.1041  0.0300 -0.0014
10928W        W26737   8.033  12.260  12.427  0.2436  0.2461 -0.1165
10929W        W26738  17.983  18.408  10.672  0.2248  0.4059  0.1531
10930W        W26739  10.076  13.543  14.633  0.0071  0.0291 -0.1990
10931W        W26740  15.375  15.220  13.785  0.2519 -0.1609  0.2607
10932W        W26741   7.964  11.277  10.759 -0.2022  0.2186 -0.1320
10933W        W26742  12.781  12.708  14.393  0.2165  0.0301 -0.0545
10934W        W26743  17.030  10.755  10.650  0.2632 -0.0273  0.1288
10935W        W26744   2.890  17.896  10.723 -0.0991  0.0082  0.0418
10936W        W26745  12.418  14.768  11.242 -0.3035 -0.1836  0.0606
10937W        W26746  13.631   6.752  14.383  0.2114  0.2494  0.3097
10938W        W26747   1.230  13.037   1.507  0.2604  0.2469  0.1804
10939W        W26748   3.729   8.021   1.604 -0.2693  0.2419  0.2639
10940W        W26749  18.285   0.288   0.623 -0.0948 -0.0355  0.1051
10941W        W26750   5.177   4.874  14.522 -0.1038  0.2147  0.0425
10942W        W26751  13.878  11.020  13.760  0.3040 -0.0206 -0.1649
10943W        W26752   1.205   7.948  13.163 -0.1335 -0.2243 -0.2283
10944W        W26753   9.348  13.207   3.713 -0.1068 -0.1874  0.3329
10945W        W26754   3.831  12.274   2.655 -0.4221  0.2634 -0.0806
10946W        W26755   1.769   7.651   6.090  0.2083  0.2241  0.1036
10947W        W26756   9.124  18.635   4.446  0.2948  0.5295  0.3002
10948W        W26757   7.603   4.057   1.878 -0.0466 -0.0790  0.0981
10949W        W26758  14.445   9.823  15.058  0.0401 -0.1093 -0.2363
10950W        W26759  11.019   3.053   2.345  0.1458  0.1339  0.2134
10951W        W26760  11.813  14.715   4.214 -0.0704  0.1187  0.2401
10952W        W26761  10.889   3.967   5.171 -0.0826  0.0753 -0.0921
10953W        W26762   3.568   9.226   2.735  0.0211  0.3823 -0.0565
10954W        W26763  14.713   4.841   0.346  0.2388  0.0902  0.1503
10955W        W26764   7.044   8.406   5.511 -0.3007  0.4522 -0.2839
10956W        W26765   0.938   8.372   4.190 -0.0617  0.2792 -0.2177
10957W        W26766   2.962  17.049   4.130  0.1584 -0.0186 -0.2175
10958W        W26767   4.367  12.511  10.692  0.0421 -0.0287  0.1213
10959W        W26768   1.943   7.706   2.045 -0.1969 -0.1491  0.1864
10960W        W26769  14.198  11.158  14.448  0.0459  0.0667  0.1416
10961W        W26770   7.464  17.893  11.664 -0.1105  0.1924  0.1850
10962W        W26771   1.767  17.996   4.335  0.0072  0.0075 -0.3525
10963W        W26772  10.301   4.326   1.851 -0.1335  0.2454 -0.0367
10964W        W26773   0.280   5.744   5.019 -0.0784  0.2006 -0.0015
10965W        W26774   9.192  18.115  14.856  0.0652 -0.0068 -0.0864
10966W        W26775  14.644  10.275   2.221 -0.1111 -0.0380  0.0709
10967W        W26776  17.448   0.014   3.663  0.2545  0.2219 -0.0114
10968W        W26777   7.406   8.760  15.068  0.3602 -0.1974 -0.1684
10969W        W26778  18.631  17.224   5.076  0.1876 -0.1872  0.2652
10970W        W26779   9.387   5.311  14.152 -0.2559 -0.1650  0.0759
10971W        W26780  13.110  16.491  12.936  0.2762  0.0892 -0.1334
10972W        W26781  18.976   2.824  14.634  0.1529  0.0467 -0.0519
10973W        W26782  10.149   2.164  14.147  0.0212  0.0883 -0.0414
10974W        W26783  17.087   8.677   3.172  0.0892 -0.0665 -0.3088
10975W        W26784   8.665  18.872   2.276  0.1547 -0.0779  0.0151
10976W        W26785   2.279  18.484   4.261 -0.2762  0.0412  0.0592
10977W        W26786   7.890  12.312  13.302 -0.0555  0.5148  0.2603
10978W        W26787   9.195   9.692  10.694 -0.1361 -0.1897 -0.3048
10979W        W26788   4.779  17.162   2.272 -0.2945  0.3006  0.0206
10980W        W26789   9.126  14.383  14.936  0.1614 -0.2590 -0.4324
10981W        W26790  13.003   8.581   2.134 -0.2533  0.0870 -0.1886
10982W        W26791  16.408  15.618  15.100 -0.3719  0.1656 -0.0875
10983W        W26792  13.733   3.818  11.795  0.3442  0.0596  0.0003
10984W        W26793   8.038   9.038  11.904 -0.0176 -0.0076 -0.1974
10985W        W26794   3.673   6.107  11.397 -0.1515  0.1525  0.1024
10986W        W26795  10.799   3.103  12.670  0.0205  0.4056  0.2037
10987W        W26796  12.312  11.960  15.031  0.2106 -0.0284  0.0032
10988W        W26797   1.674  12.288   0.723  0.0581 -0.0464 -0.0768
10989W        W26798   3.264   5.309  10.888 -0.0260 -0.1136  0.2072
10990W        W26799  10.252   4.733  10.564 -0.0214 -0.0651 -0.5558
10991W        W26800   3.234   1.221   2.931  0.0006  0.0357  0.1337
10992W        W26801  13.355   7.799   0.336 -0.2553  0.0431 -0.0850
10993W        W26802  13.226   5.228   1.093 -0.0747 -0.0239 -0.1302
10994W        W26803   9.837  19.000   2.536  0.1982 -0.4302  0.0221
10995W        W26804  12.241   8.159  13.164 -0.2484 -0.0454  0.0445
10996W        W26805  17.685   1.767   3.595 -0.2141 -0.2125 -0.0258
10997W        W26806   9.037   9.902   3.944 -0.0313  0.1734  0.0015
10998W        W26807   2.891  11.983  14.851 -0.2254 -0.1345  0.2116
10999W        W26808   0.859  13.021   2.683  0.0298  0.3447 -0.2141
11000W        W26809   4.111   0.695   2.890 -0.1040  0.0785  0.3535
11001W        W26810   4.513   2.020   5.235 -0.0407  0.1058 -0.2867
11002W        W26811  11.352  18.051   4.074 -0.3358 -0.0209  0.1473
11003W        W26812  16.609  11.375  13.124  0.1001 -0.2236  0.1452
11004W        W26813  14.717   9.987  12.013 -0.2615 -0.1110  0.1775
11005W        W26814   6.835  10.595   4.900 -0.1432 -0.4377 -0.3097
11006W        W26815   5.425  10.554  14.196  0.2367  0.2487 -0.1392
11007W        W26816   8.146  15.350  11.433  0.1901  0.0390 -0.0909
11008W        W26817  10.937   2.529   0.807  0.3168 -0.1697  0.0451
11009W        W26818  15.556   6.843  13.816  0.1337 -0.1954 -0.3317
11010W        W26819  13.504   3.386  11.848 -0.3940 -0.1807 -0.1445
11011W        W26820   6.627   9.648  11.381  0.1453  0.2045 -0.0471
11012W        W26821  18.846   9.229  13.994 -0.4862  0.0223  0.2082
11013W        W26822   8.237   9.813  11.231 -0.0428 -0.1398  0.1229
11014W        W26823   0.143  18.350  11.931 -0.2519  0.0907  0.0240
11015W        W26824   0.833  16.654  14.589 -0.0447  0.1471 -0.2571
11016W        W26825   2.060   5.087   3.862  0.1958 -0.1657  0.2717
11017W        W26826  12.489   8.711   1.194 -0.1617 -0.3341 -0.0039
11018W        W26827  17.947   6.880   3.959 -0.0506  0.0618 -0.1159
11019W        W26828   3.996   4.043  10.479 -0.0020 -0.2255  0.0574
11020W        W26829   2.402   8.932   5.255 -0.0280 -0.3031 -0.1751
11021W        W26830   5.422  13.178   0.408 -0.0102  0.0531  0.0465
11022W        W26831  14.124   5.556  14.286 -0.1276  0.1020 -0.0543
11023W        W26832   7.964   6.927  14.717 -0.0227  0.2146 -0.1942
11024W        W26833   0.944  18.280  13.977 -0.2298  0.0509  0.0072
11025W        W26834  11.937  13.087  12.407  0.0859 -0.0826 -0.1891
11026W        W26835  15.038  17.845   6.013 -0.2132  0.0967  0.0829
11027W        W26836  18.133   6.938  11.555 -0.1103  0.1794  0.1403
11028W        W26837  11.338   6.237   5.281  0.0311  0.1989  0.2140
11029W        W26838  13.923  16.044  13.931 -0.1146 -0.0467 -0.2952
11030W        W26839   8.431  17.211   5.140  0.0191  0.2040  0.1120
11031W        W26840   8.795   1.296  12.072 -0.0581  0.2438 -0.2168
11032W        W26841  15.466   4.961   5.084 -0.3823 -0.1174 -0.4537
11033W        W26842  13.392   9.943   5.237  0.3083 -0.0534  0.0825
11034W        W26843   5.819   9.583   5.992  0.3230  0.1427 -0.0835
11035W        W26844  11.136  17.265  14.793  0.2573  0.1978 -0.0784
11036W        W26845   6.114   1.206  14.237 -0.1443 -0.0658 -0.0360
11037W        W26846  19.051   5.361   1.399 -0.0979 -0.1830  0.1525
11038W        W26847   7.597  13.341   5.679  0.1340  0.1934  0.2585
11039W        W26848   5.727   1.747   0.945 -0.0280 -0.1594 -0.2941
11040W        W26849   1.044   9.598   9.735 -0.2682 -0.0425 -0.0423
11041W        W26850  18.948   9.008  11.914  0.0935 -0.1071 -0.1172
11042W        W26851   5.571   8.102  13.380  0.3329  0.2215  0.0823
11043W        W26852   0.059   0.192  12.774  0.1230  0.0025  0.1413
11044W        W26853  13.443   5.495   0.738 -0.2395  0.3343  0.1541
11045W        W26854   4.389  10.707   2.422 -0.1149 -0.2121 -0.2793
11046W        W26855  16.681   9.297   3.464  0.2118 -0.1674  0.0701
11047W        W26856   2.928   8.541   4.204  0.1821  0.0313 -0.0894
11048W        W26857  17.034  18.159  15.213 -0.2252 -0.2035  0.0607
11049W        W26858  17.610  17.877  14.013 -0.1948  0.1212 -0.1334
11050W        W26859  10.576  16.229   0.973 -0.1199 -0.1041 -0.0497
11051W        W26860   6.210   3.188   1.215 -0.1696  0.1501 -0.0217
11052W        W26861   0.728  15.884  11.569 -0.0077 -0.4196  0.1033
11053W        W26862   8.541   8.338  13.248  0.1261  0.1025  0.0780
11054W        W26863  18.616  15.128   4.335  0.0495 -0.0065  0.2226
11055W        W26864  10.977  17.697  12.618  0.2151 -0.0982 -0.4446
11056W        W26865   3.132   7.321  12.704 -0.2970 -0.0499  0.0261
11057W        W26866  11.860   5.574  13.115 -0.0770 -0.1759  0.5077
11058W        W26867   8.096  18.095  14.178  0.3080 -0.0829 -0.0385
11059W        W26868  15.073   9.490   2.770 -0.0150 -0.2360  0.2368
11060W        W26869  14.837  14.568  12.981 -0.3905 -0.0649  0.4735
11061W        W26870   9.698   3.295   9.745  0.3344  0.1074 -0.2648
11062W        W26871   3.968  10.474   4.870  0.0252  0.0929 -0.1407
11063W        W26872  10.890  10.499  10.618  0.4137 -0.0147 -0.3331
11064W        W26873   8.357  17.871   2.158  0.1143  0.1192  0.0124
11065W        W26874   9.484  15.469  11.970 -0.1183  0.1856  0.3846
11066W        W26875  12.509  17.620  11.389 -0.2094 -0.0384  0.3116
11067W        W26876  14.768   5.872   2.097 -0.4086  0.1392  0.0078
11068W        W26877  11.559   0.554  11.637 -0.1309 -0.1270  0.2704
11069W        W26878   8.994   8.572  12.520 -0.0267  0.1325  0.2421
11070W        W26879   6.274  18.352  11.663  0.3982 -0.1545 -0.1072
11071W        W26880   6.209  12.334  14.392  0.5969 -0.0532 -0.1788
11072W        W26881  15.571   3.304   2.705  0.2463 -0.0888 -0.0844
11073W        W26882  17.830   4.876  13.650  0.1653 -0.0147 -0.1645
11074W        W26883   7.260   8.247   0.909  0.2139  0.0485  0.0606
11075W        W26884  10.689   9.894   3.202  0.0906 -0.1901  0.0824
11076W        W26885  18.689  14.415   0.247 -0.0529  0.0351 -0.1788
11077W        W26886   6.501   6.591   4.000 -0.2242  0.3245  0.1494
11078W        W26887  13.908   4.700  13.499  0.2704 -0.0559 -0.0554
11079W        W26888  11.120   3.238   9.101 -0.2125  0.2366 -0.1864
11080W        W26889   0.079   4.088   5.032  0.0988 -0.1588 -0.1861
11081W        W26890  12.850   5.347   2.506 -0.1874 -0.1009  0.0748
11082W        W26891  12.092   4.912  11.958  0.0207  0.0052 -0.0102
11083W        W26892  15.926   3.267   1.022  0.0502 -0.0080 -0.3406
11084W        W26893   3.758  11.301  13.034 -0.0738  0.0563 -0.1727
11085W        W26894   6.807  16.726  13.057  0.2493  0.2503 -0.0883
11086W        W26895  16.848   1.153  14.976  0.1610 -0.1802 -0.0253
11087W        W26896   1.200   1.229  14.217  0.0866  0.5036 -0.4469
11088W        W26897   4.488  16.723  11.379  0.1724 -0.2248  0.1989
11089W        W26898   5.108   1.272   2.583  0.0937 -0.0140  0.0224
11090W        W26899  18.495   8.597   1.978  0.2011  0.3814  0.6525
11091W        W26900   3.906  11.610   0.191  0.1761  0.3266 -0.2626
11092W        W26901   1.334   0.975  11.015  0.0845  0.3346 -0.1436
11093W        W26902   9.561  10.672  10.403  0.2587 -0.0130  0.0388
11094W        W26903   8.341  15.133   4.588  0.0773 -0.1123  0.0715
11095W        W26904  16.014   2.465   1.766 -0.0418 -0.3448 -0.1265
11096W        W26905  15.114   1.534  11.238  0.2426  0.1231 -0.1148
11097W        W26906   0.023   4.881   5.360  0.0169  0.1739  0.2177
11098W        W26907   7.198   3.475   0.351 -0.3254 -0.0363  0.1249
11099W        W26908  18.530   2.260  10.297  0.2288  0.0639 -0.0459
11100W        W26909  19.038   6.532   5.130  0.3636 -0.2270  0.0010
11101W        W26910   1.653  15.909   1.621  0.1998 -0.1923  0.2469
11102W        W26911   3.382   6.777  11.779 -0.0218 -0.1790 -0.0187
11103W        W26912  18.428  17.724  15.041  0.0157 -0.1862  0.1168
11104W        W26913  16.747   6.732  10.703  0.2592 -0.0600  0.1501
11105W        W26914  17.676   3.879   4.665 -0.1524  0.3547  0.1586
11106W        W26915  18.970   3.184  14.980  0.2750  0.2684 -0.3304
11107W        W26916   3.778   0.607  14.264  0.0884 -0.0243  0.0933
11108W        W26917  18.704   1.839  11.199  0.2019 -0.1039 -0.1773
11109W        W26918   1.858   6.558  10.792  0.1499 -0.0658  0.2657
11110W        W26919  14.358  12.940   4.259  0.2903 -0.1244 -0.0942
11111W        W26920   1.179   9.767  13.212 -0.3889  0.1873 -0.1674
11112W        W26921   4.451   4.739  12.503  0.0888  0.2557 -0.4049
11113W        W26922   9.168  12.401   1.182 -0.2164  0.0493  0.1419
11114W        W26923   4.716   9.388  12.072 -0.1578 -0.0283  0.1353
11115W        W26924  10.926  12.203   4.567 -0.1553 -0.0465  0.0582
11116W        W26925  12.942   9.853   3.079 -0.0095 -0.2124  0.2051
11117W        W26926   7.648  13.272   9.768  0.1292  0.1603 -0.1251
11118W        W26927  15.516   1.815   4.440  0.3640 -0.0257  0.0979
11119W        W26928  14.339   8.940   4.266  0.0775 -0.0297 -0.2020
11120W        W26929   5.493  11.767  12.073 -0.1760  0.1153 -0.0023
11121W        W26930  15.225  17.179  10.146 -0.0408 -0.2169  0.1880
11122W        W26931   9.897   1.392   2.680  0.2008 -0.1983  0.1696
11123W        W26932   0.241  12.730  12.216  0.1221  0.2093  0.1014
11124W        W26933  16.893  14.586   2.300  0.1232 -0.1702 -0.0357
11125W        W26934   8.943  18.692  12.327  0.0262  0.0178 -0.2644
11126W        W26935   3.758   0.846  11.615  0.2472 -0.0114 -0.1194
11127W        W26936  16.326  10.685  10.823  0.4361  0.0286  0.3340
11128W        W26937   0.554  10.238   0.095  0.3411 -0.3283 -0.1407
11129W        W26938  10.945   8.999  10.482  0.0360  0.0335  0.0787
11130W        W26939   2.060  11.452  13.931  0.1575 -0.0436  0.1020
11131W        W26940   4.049   4.920   0.263  0.0774 -0.1172  0.0277
11132W        W26941   8.472  13.553   0.812 -0.2500 -0.0945  0.0895
11133W        W26942  10.200   3.400  12.890  0.0121  0.2607  0.2388
11134W        W26943   6.761  13.089  11.504 -0.2581  0.2681 -0.0680
11135W        W26944   3.516   8.004   9.801  0.4285  0.0527  0.2179
11136W        W26945   0.554   1.231  11.066 -0.1586  0.0646  0.2939
11137W        W26946   2.654   7.897   3.688 -0.0711 -0.2556  0.0042
11138W        W26947  13.386  15.746  11.980 -0.0375  0.1289  0.0505
11139W        W26948  15.605   0.232  12.303 -0.3089 -0.0953 -0.0924
11140W        W26949  14.294   2.240   1.905  0.1355 -0.0822  0.0307
11141W        W26950   4.611   6.519  11.922  0.0104 -0.0566 -0.1108
11142W        W26951  14.410   8.574   3.719  0.0541 -0.2519  0.2191
11143W        W26952   7.286   0.988   2.867 -0.2040 -0.2020  0.3432
11144W        W26953   4.657  15.141  10.552  0.2205 -0.1018 -0.3319
11145W        W26954   8.227  13.991  11.210  0.0350 -0.0824  0.2107
11146W        W26955   0.040   3.643  11.449 -0.1862  0.0751 -0.0272
11147W        W26956   4.586   4.491   1.102 -0.4486  0.1074 -0.0941
11148W        W26957  17.615  11.461   2.586  0.0456  0.0184  0.3022
11149W        W26958   8.500   5.383   2.047  0.1605  0.0520  0.1440
11150W        W26959   6.526   4.009   1.178  0.2600  0.0634  0.1383
11151W        W26960  12.263  16.829   1.953 -0.1563  0.1909 -0.2183
11152W        W26961   2.082   3.309  14.332 -0.2783  0.0662 -0.1552
11153W        W26962  10.482   3.010   1.383  0.3475 -0.2632  0.4750
11154W        W26963  14.275  10.937   9.937  0.1041 -0.2084 -0.0466
11155W        W26964  12.240  10.231   1.844 -0.2837 -0.0221 -0.0642
11156W        W26965  11.077   4.681   2.462  0.0857  0.1458 -0.0460
11157W        W26966   0.777   7.055  11.886  0.1025 -0.2707 -0.0313
11158W        W26967   0.627  14.866  12.368  0.1578 -0.0163  0.2862
11159W        W26968  18.985   7.186   2.909  0.2432 -0.2569  0.0243
11160W        W26969  17.061   2.347   3.842  0.0909 -0.3061 -0.1301
11161W        W26970   6.918  10.311  12.105  0.2311  0.2002 -0.1133
11162W        W26971  11.944  17.680   1.669  0.3638  0.1084  0.0382
11163W        W26972  12.239  17.307  10.777  0.1618  0.1790 -0.0981
11164W        W26973   9.091   7.214   1.007  0.0513  0.0745 -0.2762
11165W        W26974  15.776  11.023   1.931 -0.1160 -0.4369 -0.4202
11166W        W26975   6.852   2.092  14.270 -0.1159 -0.2135  0.0308
11167W        W26976  14.777   3.170  13.668  0.0173  0.0166  0.1012
11168W        W26977  16.446   2.958   5.450  0.4278  0.2271  0.1269
11169W        W26978   9.159   9.982   2.397 -0.3952  0.1866  0.1499
11170W        W26979   3.374  13.767  14.906 -0.1869 -0.2629  0.1548
11171W        W26980   3.318  13.550   1.042  0.0986  0.0374  0.2420
11172W        W26981   1.737   1.548   4.803  0.0758  0.5366  0.1482
11173W        W26982   4.457   5.319   5.315  0.0845  0.3810 -0.1013
11174W        W26983   3.949   7.848   3.928  0.0026 -0.1398  0.0713
11175W        W26984   8.414   0.019   3.000 -0.2547  0.1212 -0.2085
11176W        W26985  14.591   7.756   0.843 -0.0334  0.5903 -0.0720
11177W        W26986   1.274   5.302  10.039 -0.1012  0.1696 -0.0297
11178W        W26987  16.830   7.660   4.941 -0.4971  0.4302 -0.0701
11179W        W26988   7.967  10.962  14.284 -0.1440  0.1883  0.1642
11180W        W26989   2.821  14.053   5.760  0.1374  0.2369  0.0749
11181W        W26990  15.595   6.116   4.241  0.0451  0.1195 -0.1474
11182W        W26991   8.603   7.981  10.751  0.0406 -0.2013  0.1092
11183W        W26992   9.203   3.683  11.974  0.1051 -0.1063 -0.0926
11184W        W26993  13.256   9.596  13.840  0.1061 -0.2360  0.2809
11185W        W26994   1.534   9.074   3.737 -0.2361  0.0504  0.0693
11186W        W26995   2.238  15.863   9.681  0.2308  0.0335  0.2459
11187W        W26996  17.158   2.850   4.044  0.0251 -0.2198 -0.0721
11188W        W26997   0.967  16.197  12.444  0.1918 -0.3338 -0.1618
11189W        W26998  14.767  16.057  10.265  0.3420  0.0433  0.0169
11190W        W26999   5.596   3.492  11.582 -0.0049 -0.1309 -0.1409
11191W        W27000  15.340  11.303  12.620  0.1997  0.0298  0.0509
11192W        W27001  12.380  17.115   0.970 -0.0024 -0.3597  0.0747
11193W        W27002   0.600  15.239  12.707 -0.1752 -0.0847  0.1546
11194W        W27003   9.045   9.670   1.431  0.1853 -0.0374 -0.1930
11195W        W27004  17.068  17.262   5.986  0.1244  0.2055 -0.3050
11196W        W27005  10.177   2.198  11.696  0.0522  0.1144 -0.1284
11197W        W27006  10.037   3.785   1.964 -0.0577 -0.0543 -0.4400
11198W        W27007  10.157  12.926  12.835  0.3169 -0.1772  0.2758
11199W        W27008   8.531  12.667  11.633 -0.1293  0.0833 -0.1578
11200W        W27009  14.578   5.083   2.897 -0.0869 -0.0881  0.0486
11201W        W27010  16.091   7.795   0.954 -0.0070 -0.1601  0.0850
11202W        W27011  14.521   8.527  13.143 -0.1266  0.0186 -0.0089
11203W        W27012   1.395  15.647  13.594 -0.2069 -0.0683  0.4314
11204W        W27013   5.698  10.713   5.703  0.0727 -0.2709 -0.0716
11205W        W27014   4.837  18.554  13.667 -0.0915  0.0819  0.1841
11206W        W27015   5.116  17.027  14.739 -0.1044  0.3642 -0.0730
11207W        W27016  14.644   4.942   1.997  0.0060 -0.0109  0.0138
11208W        W27017   0.144  14.764   1.843 -0.1340 -0.0151  0.0571
11209W        W27018   2.967   6.554  13.023 -0.2054  0.0425 -0.0533
11210W        W27019  18.764  18.225  13.734  0.0591  0.2433  0.0120
11211W        W27020   4.483  16.512   0.066  0.0272  0.0355  0.1769
11212W        W27021   1.226  15.633   3.656 -0.2455 -0.1285  0.1818
11213W        W27022   9.885  13.200   4.978 -0.1783  0.0856  0.0465
11214W        W27023   8.378   1.081  14.383 -0.1637  0.1871  0.0975
11215W        W27024   6.560  11.835   1.954 -0.0735  0.2341 -0.0312
11216W        W27025   0.662  11.552  14.431 -0.1163 -0.1407 -0.0846
11217W        W27026   9.461  15.542  11.341 -0.2532  0.1386 -0.1371
11218W        W27027   1.476   1.906   9.283 -0.0986 -0.1845  0.0965
11219W        W27028   5.307  19.049   2.729 -0.1095 -0.2042  0.0214
11220W        W27029  14.357   1.033   4.844  0.0977  0.1525 -0.0155
11221W        W27030  16.432   8.443   1.522 -0.1042  0.1105  0.1398
11222W        W27031   7.371  18.272   3.160  0.3517 -0.0663 -0.0448
11223W        W27032  16.689  15.250   5.411  0.0166  0.0566  0.0820
11224W        W27033  12.633  15.885   1.744  0.5827  0.0422 -0.3187
11225W        W27034  12.960   3.221   1.626  0.1396 -0.0692 -0.0217
11226W        W27035  11.018   1.240  10.721 -0.5934  0.2708 -0.1972
11227W        W27036   3.950  16.392  15.019  0.0150  0.3655  0.0185
11228W        W27037  17.294   7.165  11.956  0.2255 -0.2142  0.2007
11229W        W27038   1.628  10.477   1.763 -0.2412  0.0278  0.0988
11230W        W27039   5.935   1.511  11.855  0.1065  0.0663 -0.1323
11231W        W27040  11.294   4.093   4.656  0.2171 -0.0832  0.3169
11232W        W27041   3.011   5.615  14.055  0.3310  0.0517  0.0684
11233W        W27042   2.801   5.748  12.995 -0.1906  0.0046 -0.0966
11234W        W27043   8.527   9.449  12.773  0.1809 -0.3150  0.3445
11235W        W27044  18.678  13.836  10.451  0.0308 -0.2318  0.4226
11236W        W27045   2.247   3.147  13.770 -0.1167  0.1441 -0.1513
11237W        W27046   1.381   0.253   4.090  0.3585 -0.0950 -0.1328
11238W        W27047   6.360  12.972  10.278 -0.0868  0.1815  0.0857
11239W        W27048   8.990   2.294   3.439  0.2478  0.2535  0.1434
11240W        W27049  16.605   8.726   4.369 -0.3773  0.0730  0.0901
11241W        W27050   4.742   3.167  14.486  0.0512  0.0394  0.0754
11242W        W27051   9.048   3.181   2.728 -0.0776 -0.2559  0.3128
11243W        W27052  18.585   4.424  13.111  0.2848  0.3652  0.1798
11244W        W27053   1.205   8.619  10.621  0.0000  0.1368  0.0201
11245W        W27054  11.553   0.431   4.287 -0.4271 -0.2331 -0.0747
11246W        W27055   0.607   4.953   0.349 -0.0164 -0.1669 -0.0855
11247W        W27056   5.731  14.952   2.592 -0.0744 -0.1212  0.3146
11248W        W27057   3.661  12.689   0.951 -0.1617 -0.1112  0.0960
11249W        W27058   5.759  18.415  12.138 -0.1745 -0.1749 -0.0192
11250W        W27059  18.686  12.258   2.230 -0.1973  0.2259  0.0667
11251W        W27060   5.744   0.291  10.347  0.2007  0.0640 -0.1571
11252W        W27061   7.926   8.601   5.958  0.1877 -0.1164 -0.1037
11253W        W27062  13.587  16.642   5.576  0.0220 -0.1439  0.0481
11254W        W27063  18.163   1.889  11.167 -0.2885 -0.2014 -0.1611
11255W        W27064   0.411  10.920   4.010 -0.1074 -0.3044 -0.0476
11256W        W27065   6.983   5.509   2.524  0.1871 -0.0241 -0.3703
11257W        W27066  10.424  14.923   9.914  0.1185  0.1984 -0.0897
11258W        W27067  14.452  17.172   1.965 -0.2052  0.0961  0.1125
11259W        W27068   7.391  10.383  10.693 -0.0943  0.2258 -0.3792
11260W        W27069   7.364   7.437   3.959 -0.3244 -0.0068 -0.1762
11261W        W27070   4.563  13.204  12.464 -0.0158 -0.1779  0.0273
11262W        W27071  16.816   1.413  12.704 -0.0805  0.1183  0.3744
11263W        W27072  14.287   4.686  13.997 -0.4136 -0.0871  0.0273
11264W        W27073  10.731  16.282   3.547 -0.0924 -0.1396  0.0864
11265W        W27074  18.817   4.292   0.591  0.0286 -0.1119  0.0905
11266W        W27075  11.131   0.624   1.852  0.3056  0.3970  0.2962
11267W        W27076  11.268  12.354   2.486  0.0038 -0.3820 -0.0270
11268W        W27077  13.693  16.963   2.398 -0.0270  0.0554  0.0274
11269W        W27078   8.641  14.157   3.560  0.2666  0.0216 -0.0154
11270W        W27079  14.762   1.262  15.009  0.4292 -0.1810 -0.1522
11271W        W27080   4.605   2.832   2.932  0.0845  0.1680  0.2380
11272W        W27081  10.110   0.085   1.065  0.4932 -0.0981 -0.5272
11273W        W27082   6.837  16.018  11.741 -0.0172 -0.3288 -0.0095
11274W        W27083  17.038  11.399  14.401 -0.0789 -0.1684 -0.0629
11275W        W27084   4.689   1.351   3.408  0.2104  0.0012 -0.0363
11276W        W27085   9.548  18.622   0.897 -0.0684  0.0587  0.1256
11277W        W27086   2.454   8.964  12.186  0.1296  0.2797  0.2911
11278W        W27087   8.845  16.117  12.546  0.3704  0.2187  0.1065
11279W        W27088   6.635  15.096   5.421  0.1095 -0.2644  0.2123
11280W        W27089  19.078  16.793   2.517  0.4527 -0.2451 -0.0534
11281W        W27090   1.298  17.732   4.686  0.2348  0.5200  0.1782
11282W        W27091  19.038   7.040  12.523  0.2254 -0.2285  0.1398
11283W        W27092  10.266   1.496   2.378 -0.0758 -0.1297  0.2900
11284W        W27093  10.940   5.659  13.478 -0.0605  0.1618  0.0427
11285W        W27094   3.252   5.698   0.301  0.1227  0.2558 -0.0266
11286W        W27095  14.533  14.739   0.422  0.1452  0.2114  0.1651
11287W        W27096   0.885  16.427   4.246  0.1185  0.1706 -0.0915
11288W        W27097  13.576  18.035   1.915  0.1127  0.0197  0.0824
11289W        W27098  15.970  11.212   3.237 -0.2012 -0.1674  0.2814
11290W        W27099  11.729  11.444  10.550  0.0641  0.1074 -0.2326
11291W        W27100   2.983  16.225   3.941  0.0814  0.2205  0.4144
11292W        W27101  13.271   5.046  14.043 -0.0910  0.1244 -0.0352
11293W        W27102  18.342   9.139  13.978 -0.2350 -0.1790 -0.1454
11294W        W27103   6.215   2.787  13.196 -0.0466 -0.0609  0.0790
11295W        W27104   8.190   5.139  13.308 -0.0873 -0.0479  0.1489
11296W        W27105   2.971   7.304   0.184 -0.1128 -0.2299 -0.2802
11297W        W27106  13.078   0.172  12.512 -0.1398 -0.2886  0.1270
11298W        W27107  19.123   7.468   1.334  0.1414 -0.2890 -0.1350
11299W        W27108   6.686  14.505  12.552  0.1059 -0.0078  0.0914
11300W        W27109   9.445   3.531   3.645 -0.1008 -0.2102 -0.2796
11301W        W27110   9.525  11.135  11.742 -0.0441  0.1678 -0.0802
11302W        W27111  12.347  19.010  12.024 -0.3417 -0.0238  0.1947
11303W        W27112   5.772   5.911   3.456 -0.3559 -0.0349 -0.0466
11304W        W27113  18.570  15.637   2.749  0.3290  0.0801 -0.1816
11305W        W27114  18.902  18.889   0.493  0.0311 -0.3732  0.4114
11306W        W27115   2.356   0.268  12.165 -0.1265 -0.2411  0.5109
11307W        W27116  10.446   1.713  10.184 -0.1126  0.3190 -0.1419
11308W        W27117   6.539   5.740  11.438 -0.1254 -0.0774 -0.1381
11309W        W27118   6.407   1.134  12.675  0.1237  0.1404  0.2695
11310W        W27119  11.024  16.484   2.676 -0.0172 -0.1215 -0.1520
11311W        W27120  17.864   6.413   4.331 -0.2055 -0.2483  0.1012
11312W        W27121   5.748   4.230  10.450  0.0751 -0.2812  0.3157
11313W        W27122   5.990  11.905  10.586 -0.0322 -0.1332 -0.0210
11314W        W27123   9.936   3.502  10.679  0.3836  0.1993  0.1267
11315W        W27124  11.266  17.298   3.403 -0.0151 -0.1338  0.1965
11316W        W27125  15.556  17.326  12.841  0.0003  0.1582  0.1378
11317W        W27126  11.129  12.710   0.287  0.3302  0.1085  0.0909
11318W        W27127   6.721   5.173   0.628  0.2614  0.0872  0.1870
11319W        W27128   0.317   5.161  10.389  0.0126 -0.1024  0.0624
11320W        W27129  16.380   6.356  13.245  0.1705 -0.0345  0.1190
11321W        W27130  15.202  15.760  14.436  0.0651  0.1052 -0.4505
11322W        W27131  18.255   2.280  13.248 -0.0490 -0.2163  0.3144
11323W        W27132  13.359   9.183   1.567  0.0635 -0.2053  0.0841
11324W        W27133  17.762  12.850  14.450  0.1595 -0.4349  0.0888
11325W        W27134  11.116   8.019  10.689  0.1977 -0.0619 -0.2140
11326W        W27135  13.848  14.020  15.052 -0.0661  0.0846  0.0143
11327W        W27136   7.346  14.161   9.121  0.1270  0.0431  0.2252
11328W        W27137   9.001   6.599  11.444 -0.2378 -0.0306  0.2206
11329W        W27138   8.765   6.093   0.225  0.1058  0.0645 -0.1579
11330W        W27139  18.576   0.599   0.102  0.2568  0.1999  0.5373
11331W        W27140   3.414  17.872   0.690 -0.1375 -0.2963 -0.0029
11332W        W27141  11.021  15.512   2.434  0.1283  0.1610 -0.2467
11333W        W27142  14.195  10.322   1.044 -0.4341  0.0313 -0.1357
11334W        W27143   1.067   9.180   2.857  0.1528  0.2262 -0.0934
11335W        W27144  14.971   4.525   1.324  0.0782 -0.6191 -0.2346
11336W        W27145  18.995   5.413   2.906  0.4007 -0.0710  0.1113
11337W        W27146   9.043  15.526  10.650  0.0010 -0.2376  0.0589
11338W        W27147   4.359  13.152   5.331  0.1894 -0.2566 -0.0500
11339W        W27148   0.254   4.935   1.314 -0.0658  0.1140  0.1189
11340W        W27149   7.532   8.517  13.860 -0.1184 -0.2605 -0.0528
11341W        W27150   2.843   5.233   4.153 -0.3031 -0.2750  0.2571
11342W        W27151   8.076   1.590   3.313 -0.2373  0.2272 -0.0242
11343W        W27152   4.086   2.363  11.078  0.1560 -0.2024 -0.0483
11344W        W27153   2.949   6.338  10.639  0.2710  0.4586 -0.1481
11345W        W27154   7.918   5.215  11.567  0.0775  0.0069 -0.3123
11346W        W27155  12.036   4.226   2.063 -0.0324 -0.1006 -0.2836
11347W        W27156   1.029  11.621   2.991  0.1244 -0.1103 -0.1215
11348W        W27157  10.601   0.428   1.830 -0.0259 -0.0985 -0.0352
11349W        W27158   3.291  13.135   4.413  0.1359  0.0330 -0.2146
11350W        W27159  12.260  12.572   2.508  0.0957  0.0804 -0.2246
11351W        W27160  11.284  11.333   4.575  0.1170  0.0253 -0.2768
11352W        W27161   6.892   1.786  12.237  0.5765 -0.2674  0.1132
11353W        W27162  18.089   7.236  14.294  0.1011  0.2612 -0.1261
11354W        W27163   2.057  15.304   0.937  0.1244 -0.0350 -0.0456
11355W        W27164  14.213   9.610  14.091 -0.0129  0.2128  0.0911
11356W        W27165   6.574   7.331  14.754 -0.2357 -0.0195  0.0583
11357W        W27166   5.051  17.431   4.521 -0.1224  0.1396  0.1114
11358W        W27167   0.478  11.540  11.788 -0.0381  0.2997 -0.1789
11359W        W27168   3.282   7.191  14.008  0.3853  0.0309  0.0635
11360W        W27169   9.901  11.063   4.998 -0.1789 -0.3387 -0.2388
11361W        W27170  18.265   0.452  15.024 -0.2023  0.0174 -0.2641
11362W        W27171   2.458   3.514  14.701  0.0161 -0.2235 -0.2664
11363W        W27172  11.295   4.155  10.444  0.2066 -0.0852 -0.0880
11364W        W27173  12.081  10.764   4.998  0.1737  0.3488 -0.0718
11365W        W27174   7.252  11.801   4.778  0.1104  0.0089  0.1687
11366W        W27175   1.385  16.099   2.899  0.3116 -0.1619  0.0333
11367W        W27176  11.129   6.595  12.465  0.0026 -0.0751  0.4053
11368W        W27177   1.669   6.187   9.737 -0.1644  0.4235 -0.1181
11369W        W27178  18.977  11.094  14.154  0.0781 -0.1969 -0.0723
11370W        W27179   3.277   6.679  14.020  0.0414  0.1271 -0.2480
11371W        W27180  17.683  16.936   5.004  0.3275 -0.1482  0.1810
11372W        W27181   7.063   4.431   2.292  0.1021 -0.1096 -0.1995
11373W        W27182   9.754   3.562  12.611  0.0719 -0.2471 -0.2856
11374W        W27183   6.837   5.328  14.827  0.0314  0.0458  0.1120
11375W        W27184   6.761   2.582  11.529  0.0181  0.0393 -0.1259
11376W        W27185  14.895   2.988  11.408  0.0344  0.1006  0.1198
11377W        W27186  18.461  11.550   0.987  0.5668 -0.3035 -0.1903
11378W        W27187   1.330  13.096   2.797  0.0361 -0.0734 -0.0486
11379W        W27188   4.209  15.556  10.636 -0.2642 -0.2979  0.1460
11380W        W27189   7.517  11.289  14.298  0.2704  0.2191  0.2635
11381W        W27190  16.375   9.264  11.222 -0.0653 -0.0876 -0.2485
11382W        W27191  13.218  12.972   1.586 -0.2033  0.0811  0.0282
11383W        W27192   6.517   3.876   0.007 -0.1470 -0.2495  0.0109
11384W        W27193   9.188   8.869   4.552  0.4101  0.0668 -0.3479
11385W        W27194   4.477  15.191   3.576 -0.0156 -0.1037 -0.3558
11386W        W27195   0.208   2.599   0.994 -0.0593  0.1245 -0.2144
11387W        W27196   7.473  12.919   4.541  0.3207  0.5185  0.0143
11388W        W27197   2.088  13.574   1.995 -0.3054 -0.0646  0.0860
11389W        W27198  11.593   5.537  11.845 -0.1236 -0.0596  0.0150
11390W        W27199   5.283   6.816  11.182  0.1204  0.0290  0.0592
11391W        W27200  11.608   1.404  12.231 -0.2738  0.2041 -0.1692
11392W        W27201  11.861   6.546  13.020  0.3301  0.1763 -0.0586
11393W        W27202  11.527  19.116   1.168 -0.2254  0.2126 -0.0550
11394W        W27203   3.210   4.661  13.085  0.0034 -0.1373 -0.1464
11395W        W27204   7.288   2.716   4.931  0.1239 -0.3971  0.0067
11396W        W27205  10.246   9.176  11.705 -0.0085 -0.3665 -0.3567
11397W        W27206   7.032  17.669  14.599 -0.1756  0.1077  0.2500
11398W        W27207   4.155  15.556   3.635 -0.0956 -0.3504  0.5665
11399W        W27208   5.935   3.437  15.071 -0.2138 -0.0525  0.0496
11400W        W27209  12.083  13.046   2.852  0.2568  0.1922  0.4140
11401W        W27210   5.470  12.071   1.098  0.2678  0.1355 -0.4088
11402W        W27211  15.502   7.074  12.241 -0.1336  0.3006  0.1769
11403W        W27212  12.545   6.827  13.239 -0.1256  0.1142  0.1293
11404W        W27213   3.595   0.423  15.022  0.1012 -0.1926 -0.0468
11405W        W27214  10.618   9.733   9.513 -0.1616 -0.1192  0.0696
11406W        W27215  13.682   7.987   1.565  0.2201 -0.1237  0.1535
11407W        W27216  15.612   8.838   2.804 -0.1591  0.0480  0.2342
11408W        W27217  14.552   4.654  10.679 -0.0024 -0.2794  0.0804
11409W        W27218   0.956  13.041   5.315  0.2106 -0.1008 -0.1526
11410W        W27219   9.770   0.851  15.205  0.1205  0.3849  0.0884
11411W        W27220  15.866   1.621   3.382 -0.0840 -0.0801  0.3767
11412W        W27221  15.702  16.811   4.411  0.1101 -0.2412  0.0809
11413W        W27222  15.744   2.244  10.429 -0.0447 -0.0908 -0.0056
11414W        W27223  12.398  17.858   1.586  0.0326  0.2954  0.0251
11415W        W27224   5.643  11.038  13.237  0.2372  0.0060 -0.3605
11416W        W27225   8.216  11.397   1.726 -0.0411  0.1454 -0.1256
11417W        W27226   6.108  10.031   0.845 -0.3659 -0.0627 -0.1840
11418W        W27227   6.420   0.701  13.571  0.2498  0.2520 -0.0203
11419W        W27228  10.203   5.974   1.580  0.1705  0.1229  0.1507
11420W        W27229   0.333  17.402   0.576  0.0833  0.2237  0.0298
11421W        W27230  17.178  19.036   9.723 -0.1782 -0.2749 -0.2641
11422W        W27231  15.445   6.494  12.291 -0.1259  0.0980 -0.1318
11423W        W27232   2.478   7.325   0.124  0.2775  0.1124  0.2009
11424W        W27233   6.989  13.972   0.481  0.2187 -0.2323  0.1314
11425W        W27234  11.698  12.951   0.841 -0.2579  0.1155  0.0064
11426W        W27235   4.849   9.762  10.016  0.1351  0.3103 -0.0489
11427W        W27236   3.381   3.767   4.551 -0.1397 -0.3287 -0.0553
11428W        W27237  14.884  13.025  14.619 -0.1830 -0.0223  0.0656
11429W        W27238  12.774  16.283   2.113  0.3596  0.1636 -0.2316
11430W        W27239   7.050   6.135   2.772 -0.0465  0.2394  0.3391
11431W        W27240  14.165   2.925   1.416  0.1337  0.0019  0.3330
11432W        W27241  16.082   6.558   3.209  0.4174  0.1078 -0.0401
11433W        W27242  15.540  16.916  12.544 -0.0020 -0.2579  0.1770
11434W        W27243  13.896   6.884  11.365 -0.0083 -0.1824 -0.0002
11435W        W27244   1.772   7.269  12.047  0.0874  0.2681 -0.0592
11436W        W27245   3.220  14.786   2.886 -0.0908  0.0368  0.2694
11437W        W27246   8.718  15.280   1.228  0.0568  0.0179 -0.0084
11438W        W27247   8.683   5.575   3.605  0.0673  0.2460  0.0066
11439W        W27248  12.503   1.102  13.581  0.1028 -0.1501 -0.2538
11440W        W27249   2.699   0.900   1.965  0.5100 -0.3593  0.0537
11441W        W27250   3.523   6.796   2.364  0.1127  0.3298  0.0080
11442W        W27251  12.124  11.015   1.622 -0.5621  0.0182  0.1297
11443W        W27252   4.058   0.401  13.888  0.2290 -0.2181  0.0670
11444W        W27253  17.679   7.379  11.542 -0.1130 -0.1434  0.3439
11445W        W27254  15.276  11.556  11.271  0.2283  0.1362 -0.0446
11446W        W27255  10.265  14.555  12.510 -0.4119 -0.2611  0.0576
11447W        W27256   5.960   0.925  12.399  0.3257 -0.1821  0.1738
11448W        W27257  17.166  10.075   1.496  0.0589  0.1669 -0.0672
11449W        W27258   6.641   4.156  14.428 -0.0802 -0.1308  0.1555
11450W        W27259   2.458  17.716  14.677 -0.1579  0.1681 -0.4352
11451W        W27260  11.235   7.988   4.726 -0.0409  0.3950 -0.1152
11452W        W27261   9.562  16.718   4.876 -0.0683  0.4774  0.2546
11453W        W27262  15.132   6.971   4.075 -0.0443 -0.0478 -0.0353
11454W        W27263  13.649   1.545  14.630  0.0654 -0.0084  0.1891
11455W        W27264  14.669  11.625   2.051 -0.2062 -0.1793  0.2196
11456W        W27265   1.231   3.468  10.144  0.0042  0.1616  0.3561
11457W        W27266  13.572   1.229  10.304  0.1857 -0.0883 -0.2178
11458W        W27267  11.626   0.242  10.933  0.0137 -0.0149  0.3963
11459W        W27268  18.287  13.615  14.502 -0.3865  0.4296 -0.0969
11460W        W27269   7.111  14.265  12.171  0.1527 -0.1180 -0.0366
11461W        W27270   5.282  11.660   1.679  0.0437 -0.4261 -0.2175
11462W        W27271  12.596  18.959   0.085  0.2353 -0.1542  0.2295
11463W        W27272   7.272   5.763   1.771 -0.0681  0.0035  0.2868
11464W        W27273   0.029   0.973   2.096 -0.0647 -0.0502 -0.2835
11465W        W27274  16.888  10.415   0.470  0.0901  0.0276  0.1270
11466W        W27275   9.680  14.764  10.310  0.1378 -0.3177  0.0546
11467W        W27276   0.800  15.896  13.219 -0.2011  0.0500 -0.0413
11468W        W27277  15.976   8.386   4.584 -0.0964 -0.0618  0.0834
11469W        W27278  12.598   0.558  12.622  0.0286 -0.0227 -0.0097
11470W        W27279  18.206  14.898   1.431  0.0789 -0.0157 -0.0817
11471W        W27280  13.025  18.104  14.460 -0.1263  0.0084  0.2180
11472W        W27281  12.345   5.745   2.520  0.3533  0.0144 -0.2350
11473W        W27282  14.590   3.234   1.628 -0.0205 -0.1603 -0.1965
11474W        W27283   5.392  14.393  12.550  0.0696  0.2152 -0.3785
11475W        W27284   0.214   8.863   0.045 -0.0445 -0.0164 -0.0416
11476W        W27285   6.543  13.195   1.079  0.3111  0.1191 -0.0477
11477W        W27286  11.758   4.644  10.258  0.2135 -0.3940  0.0092
11478W        W27287   9.948  15.301  13.706  0.0824  0.0535 -0.1938
11479W        W27288  17.226   0.547   0.476 -0.1068 -0.0217  0.2187
11480W        W27289   4.484   9.236   4.592  0.2404  0.0226 -0.0558
11481W        W27290  10.697  18.503   2.320 -0.1948  0.2520 -0.0269
11482W        W27291  15.296  13.345   1.417 -0.1761 -0.2326  0.1608
11483W        W27292   0.508   9.891   1.335  0.3342 -0.0341 -0.1089
11484W        W27293  11.242  17.572  11.751  0.0115 -0.5752 -0.0565
11485W        W27294   2.190  14.925  14.522 -0.0796 -0.2572  0.0912
11486W        W27295  10.838   6.895  14.626  0.2351 -0.0058  0.2700
11487W        W27296  15.720  13.354  10.093 -0.1378 -0.0036 -0.1983
11488W        W27297   9.874   9.831   2.627  0.2101  0.0460  0.0874
11489W        W27298  14.289  13.328  13.282 -0.2757  0.0251  0.1464
11490W        W27299   4.532  15.069  13.290 -0.1733  0.2890  0.0235
11491W        W27300   4.215   9.394  14.891  0.1454 -0.0402 -0.1131
11492W        W27301   8.412  15.728   1.128  0.3763 -0.1321  0.2233
11493W        W27302  11.678   5.791   2.164 -0.0068 -0.0496  0.2300
11494W        W27303   4.021   7.262  15.222 -0.0539 -0.0811 -0.0003
11495W        W27304   0.477  18.639  14.791 -0.2459  0.0677 -0.2115
11496W        W27305   6.263  13.650   1.358 -0.0977  0.1327  0.0470
11497W        W27306  15.796  18.863   2.122 -0.3835 -0.2537  0.0647
11498W        W27307  11.858  12.802  15.130  0.0824  0.5379 -0.0141
11499W        W27308   9.368   9.982   1.711 -0.4283 -0.1503 -0.0699
11500W        W27309  12.917   7.721   4.638  0.2551 -0.3664 -0.0994
11501W        W27310  17.179  12.404  11.402 -0.3156  0.0672 -0.0566
11502W        W27311   3.330  11.747   0.474  0.0574 -0.0065 -0.0505
11503W        W27312  16.286   4.856   2.409 -0.1062 -0.1168  0.3299
11504W        W27313  18.337   9.408   4.798  0.2859  0.1241 -0.2279
11505W        W27314  12.051  10.127  10.692 -0.0747 -0.0006 -0.3786
11506W        W27315   5.508  11.289   5.301 -0.1002  0.0195  0.4365
11507W        W27316  10.201  12.698   0.305 -0.3073  0.0283 -0.1564
11508W        W27317  17.518  17.452  10.989  0.1314  0.1367  0.1029
11509W        W27318  14.174   1.324   0.478  0.0003  0.0247 -0.1597
11510W        W27319  17.052   6.759   2.285 -0.3383 -0.0281  0.3512
11511W        W27320  15.741   9.910  12.314 -0.0056 -0.0088  0.2341
11512W        W27321   8.475  11.401  10.918 -0.1689 -0.2913 -0.1084
11513W        W27322  11.271  11.053   1.234  0.0189  0.1073 -0.0318
11514W        W27323   8.214   5.463  10.350  0.2866 -0.0911 -0.1542
11515W        W27324  11.731  14.689   3.206 -0.0236 -0.0974  0.1413
11516W        W27325   7.969  17.952   2.426 -0.0107  0.1784 -0.3207
11517W        W27326  12.050  13.605  13.373  0.0602  0.0179 -0.0036
11518W        W27327  14.747   8.877  15.003  0.1910  0.0571  0.2684
11519W        W27328  16.908   3.125  14.020  0.1711 -0.0015  0.2211
11520W        W27329   6.920  11.194   0.445  0.0101  0.4624  0.0592
11521W        W27330  15.026  13.740   1.684 -0.3305 -0.1914  0.3231
11522W        W27331  16.869  13.619   1.407 -0.2874  0.0406 -0.1456
11523W        W27332  11.298   9.307  11.288 -0.0089  0.3927 -0.3784
11524W        W27333   1.760   0.628  11.047  0.1578 -0.1013 -0.0696
11525W        W27334   7.653   6.057  13.320 -0.2614  0.2530 -0.1734
11526W        W27335  16.365   1.932   5.569 -0.0744  0.0884  0.0691
11527W        W27336  14.975   6.927   5.022 -0.0804 -0.1497 -0.1060
11528W        W27337   1.782  16.360  10.943 -0.2414  0.0787  0.1615
11529W        W27338   5.525  12.083   5.099  0.0359  0.0229 -0.0767
11530W        W27339   9.757  16.039   2.133 -0.0498 -0.1915 -0.0210
11531W        W27340  18.854  14.782   1.311  0.0201  0.3478  0.0238
11532W        W27341   1.994   2.919  13.350 -0.0376  0.0418 -0.0500
11533W        W27342  13.824  17.547   1.668  0.1291 -0.1142  0.0398
11534W        W27343   5.191  10.083  14.006  0.0796  0.0414 -0.1811
11535W        W27344   9.320   6.713   1.089 -0.3922 -0.3490 -0.0068
11536W        W27345   6.290   7.904  11.201 -0.0625 -0.1797 -0.0068
11537W        W27346   2.236   5.237   5.284  0.1328  0.0478  0.1994
11538W        W27347   2.478  10.101  13.737 -0.1743 -0.2868 -0.2625
11539W        W27348  13.755  18.495   5.197 -0.1403  0.2189  0.1248
11540W        W27349   9.187   6.385   4.305  0.0761 -0.0876  0.0873
11541W        W27350  18.137  12.918  12.501  0.1781 -0.3497  0.0104
11542W        W27351   9.188  11.479   1.126  0.1549  0.1411 -0.2117
11543W        W27352  14.204   4.656   9.271 -0.0705  0.0591  0.0327
11544W        W27353   4.694   9.517   1.800 -0.5014 -0.0497  0.0040
11545W        W27354   5.133  10.290   0.791 -0.2933 -0.1348 -0.0702
11546W        W27355   9.574  18.888  14.416 -0.0207  0.0078  0.0691
11547W        W27356  17.630  12.243   2.070 -0.0853  0.2749  0.3256
11548W        W27357  11.259   2.204  13.331  0.1519 -0.3511 -0.0711
11549W        W27358  12.710   5.292  14.137 -0.0836 -0.0326  0.2474
11550W        W27359   1.355  16.842  13.616  0.2097 -0.0695  0.0523
11551W        W27360   0.690  10.837  13.778  0.1266 -0.1199 -0.2242
11552W        W27361   7.998   3.301   4.162  0.1493  0.1991  0.1494
11553W        W27362   4.518  13.910  14.281  0.1788 -0.1744  0.0788
11554W        W27363   2.441   7.735  14.177  0.0462 -0.0471  0.0921
11555W        W27364   5.410  13.540   2.311 -0.3441  0.1667 -0.0160
11556W        W27365  15.701  16.722  12.982  0.1375 -0.5283  0.0998
11557W        W27366   4.916   6.700  14.446  0.0239  0.0667 -0.0872
11558W        W27367   7.616   0.899  11.894 -0.1527  0.1370  0.0994
11559W        W27368  10.191   8.231   2.940  0.1728 -0.1413  0.2271
11560W        W27369   8.596   2.466  12.766 -0.0468  0.1465  0.2992
11561W        W27370   1.339   2.868   4.453  0.2301 -0.1776  0.2726
11562W        W27371   5.902   8.125   0.221 -0.5891  0.2024 -0.2028
11563W        W27372  13.497   0.776   0.314 -0.1616  0.1091 -0.1812
11564W        W27373   4.046   3.086   0.150  0.0391 -0.4319  0.0224
11565W        W27374   3.065  16.913  13.376  0.2574  0.0933  0.0586
11566W        W27375   9.508   5.870  11.819 -0.0740 -0.3170 -0.1603
11567W        W27376   1.410  11.350   1.259 -0.1131 -0.0748  0.0220
11568W        W27377   1.425   0.196   2.018 -0.0393  0.3125 -0.3838
11569W        W27378   3.314   4.443  10.695 -0.1533  0.1894 -0.2241
11570W        W27379   8.892  15.840   3.171  0.0796  0.0054  0.2080
11571W        W27380   0.777  17.363  14.100  0.0330 -0.1927  0.0647
11572W        W27381  12.791  18.602   1.001 -0.1908 -0.2218  0.0075
11573W        W27382  11.592  11.924   2.538  0.0105 -0.3157  0.2422
11574W        W27383   5.658   1.448  14.918 -0.2521 -0.1812 -0.1113
11575W        W27384  10.792   5.939   0.150 -0.1218 -0.1754 -0.0597
11576W        W27385  18.561   7.096  12.844 -0.1173 -0.3678 -0.0135
11577W        W27386  10.818   3.068  14.095 -0.1601  0.0369  0.1800
11578W        W27387  17.343   4.778   5.123  0.3209 -0.2308 -0.3920
11579W        W27388   2.952  13.782  11.509 -0.0884  0.1743 -0.1902
11580W        W27389   4.427  18.676   1.420  0.2970 -0.0164 -0.1585
11581W        W27390  16.868   5.604   3.945 -0.1632  0.0132  0.2684
11582W        W27391   1.740  15.032  14.301  0.2842  0.0710  0.2963
11583W        W27392  10.659   2.127  12.582 -0.1156 -0.0718 -0.1126
11584W        W27393  12.294   1.490  13.872 -0.2422  0.0827 -0.2316
11585W        W27394   4.813   2.847  12.737 -0.2297 -0.0550  0.0686
11586W        W27395   6.542  14.376   2.201 -0.1152 -0.1788  0.0687
11587W        W27396   0.969   2.332  10.332 -0.0033  0.0132 -0.1443
11588W        W27397   1.684   3.747   1.285  0.1944 -0.1173  0.1424
11589W        W27398   3.950  12.120   4.855 -0.1657  0.2067 -0.2616
11590W        W27399  15.344  15.637   5.261  0.2070  0.1634  0.1557
11591W        W27400   1.960   9.209  12.934 -0.0417 -0.0351  0.0596
11592W        W27401  10.745  12.365   1.607 -0.0594 -0.0239  0.1207
11593W        W27402  10.461   9.631  10.076 -0.0376 -0.2979  0.1194
11594W        W27403  18.581   2.795  14.194  0.4105 -0.0653 -0.0931
11595W        W27404   2.781  11.251  10.358 -0.0255  0.1660 -0.0006
11596W        W27405   7.750   4.967   1.765 -0.2372 -0.0173 -0.1879
11597W        W27406   7.306   1.450   2.728  0.1950 -0.0567  0.2217
11598W        W27407  14.774   3.899  13.639 -0.0159  0.4374 -0.2704
11599W        W27408   6.047  13.794   4.967  0.1088 -0.1056 -0.0538
11600W        W27409   3.277  11.359   3.945 -0.0824 -0.2093 -0.0500
11601W        W27410   6.634  12.512   3.691  0.1983  0.3113  0.0349
11602W        W27411  13.612   2.366   2.506  0.0687  0.2637 -0.0018
11603W        W27412   9.219   3.460   1.830 -0.0422  0.0506  0.1146
11604W        W27413   4.620   8.874  12.890 -0.2695 -0.0979  0.4474
11605W        W27414   7.644   4.721   3.891  0.1240  0.1854 -0.2188
11606W        W27415  10.832   2.715   3.834  0.3530  0.3919  0.1028
11607W        W27416  14.484   7.774   1.428 -0.0627 -0.5474 -0.1781
11608W        W27417  12.336  15.558   2.941  0.0509  0.1292 -0.0513
11609W        W27418  11.611   0.134   4.657 -0.0379 -0.1503 -0.1818
11610W        W27419  14.313   5.704  15.128  0.4701 -0.6361 -0.1383
11611W        W27420   1.541   6.858  13.310 -0.0143  0.3019 -0.3641
11612W        W27421   1.827  19.127   4.010  0.2741  0.0420  0.0729
11613W        W27422   0.665   8.424   2.167 -0.1639 -0.0134 -0.0061
11614W        W27423  17.472   0.881   4.038  0.1254 -0.3958  0.2121
11615W        W27424   1.233  10.749   1.985 -0.0282  0.1403 -0.0357
11616W        W27425  13.854  10.125   0.686  0.0584  0.1002  0.0743
11617W        W27426   6.722   2.730  13.132  0.1613 -0.3013  0.0276
11618W        W27427   0.001  18.947   4.615 -0.0077 -0.0504  0.1116
11619W        W27428   2.294  10.425  12.064  0.1121 -0.1600  0.3910
11620W        W27429  18.789   5.915  15.007  0.0047 -0.0660  0.1586
11621W        W27430   8.183  14.249  12.754 -0.1690  0.1656 -0.4352
11622W        W27431   6.834  15.907   0.159  0.0583 -0.0126 -0.2650
11623W        W27432   3.090  15.502  14.463  0.0173  0.2669  0.3546
11624W        W27433  13.666   9.186  10.692 -0.2329 -0.0145 -0.3263
11625W        W27434   3.481   8.649  15.226 -0.2695  0.1111  0.3667
11626W        W27435   9.078   2.143  12.124  0.0471 -0.0835  0.1010
11627W        W27436   0.048   4.128   2.179  0.0021 -0.0565  0.1294
11628W        W27437   4.483  13.924   4.003  0.2152 -0.0469  0.0771
11629W        W27438   3.477   4.967   0.890 -0.2793 -0.0159 -0.0308
11630W        W27439   0.094  16.824   3.969 -0.3448 -0.0672  0.1335
11631W        W27440  12.384   5.677   0.182 -0.1631  0.2627 -0.3823
11632W        W27441  11.150   4.467   1.326 -0.1027 -0.0454  0.0251
11633W        W27442   6.275  11.686   5.099 -0.3453 -0.2056 -0.0383
11634W        W27443  17.027   8.174  10.427  0.1738 -0.2068 -0.3647
11635W        W27444   8.082  14.922   0.822  0.0030  0.2415 -0.1510
11636W        W27445   0.038   0.454  13.190 -0.0350  0.1181  0.0601
11637W        W27446  16.397  13.830  14.679 -0.0327  0.1831  0.1136
11638W        W27447   3.440   2.236   0.190  0.0268 -0.1013  0.1298
11639W        W27448   4.069   2.575   4.608 -0.0018 -0.0571 -0.1757
11640W        W27449  16.096  13.899   3.573 -0.2954  0.1300 -0.2449
11641W        W27450   9.794  10.929  13.192 -0.1383 -0.0863 -0.1647
11642W        W27451  14.021  12.089   4.743  0.0414 -0.0580  0.3701
11643W        W27452  13.892   8.412  11.034 -0.2570  0.2882 -0.1154
11644W        W27453  10.457  13.383   1.883 -0.2247 -0.1761  0.0587
11645W        W27454  11.017   6.502   4.921 -0.0926 -0.1671  0.0487
11646W        W27455   8.258   5.791   2.262 -0.3481  0.0509  0.2492
11647W        W27456   0.151   9.964   4.278  0.2616  0.0022  0.2572
11648W        W27457  13.418  18.774   3.644 -0.2381 -0.0037 -0.0474
11649W        W27458   0.551   4.294   2.409  0.0703  0.0480  0.3873
11650W        W27459  10.043   3.797  11.767  0.0852 -0.0962 -0.1526
11651W        W27460  14.811   1.180   3.001 -0.3389  0.2790  0.1617
11652W        W27461   6.048  18.902   1.524  0.2195  0.0474  0.4363
11653W        W27462   3.421  19.100   3.926  0.1398  0.3905  0.0702
11654W        W27463   5.498  10.991   1.319 -0.4255  0.0982  0.0210
11655W        W27464   4.293  18.046   9.947 -0.3344 -0.0993  0.1058
11656W        W27465  15.506  13.867  10.244  0.1133  0.1599  0.1824
11657W        W27466  11.424  11.051  14.722  0.2188 -0.1220  0.0309
11658W        W27467  18.917  18.764  12.865 -0.2802 -0.0770 -0.0537
11659W        W27468   0.691   0.427  11.426 -0.0085  0.1284 -0.0019
11660W        W27469   0.317  18.834  11.913  0.2821 -0.0190 -0.0373
11661W        W27470  14.613   2.522  14.346  0.0379  0.1123 -0.1623
11662W        W27471   2.525   6.347   3.833  0.3695 -0.0885 -0.2456
11663W        W27472   4.330  18.670   3.469 -0.1867 -0.0179  0.1119
11664W        W27473  10.879  15.330  10.765  0.1442  0.2299  0.3815
11665W        W27474   9.070  14.355  11.748  0.2236  0.0280  0.0539
11666W        W27475   3.682   0.949   2.759  0.2419  0.0711  0.0177
11667W        W27476  13.861  12.455  13.318  0.0233 -0.3090  0.3236
11668W        W27477   4.404   6.416  15.133  0.1051  0.1874 -0.0007
11669W        W27478   6.561  12.452   5.845 -0.4551  0.2398  0.0617
11670W        W27479   5.723   4.961   2.665  0.1310 -0.2686 -0.1339
11671W        W27480   3.855   1.035   3.763  0.2043 -0.0683  0.1657
11672W        W27481  12.769   7.317   2.770  0.3960  0.0566  0.1659
11673W        W27482  16.815   1.933  11.258 -0.1928  0.0333 -0.0652
11674W        W27483  15.987   7.484  14.545 -0.2532 -0.1299 -0.2152
11675W        W27484  18.423  16.973  14.011 -0.0677 -0.0429  0.2090
11676W        W27485   7.793   8.669   1.197 -0.1421  0.0473  0.1283
11677W        W27486   9.304  18.996  14.834  0.0455 -0.4434  0.0369
11678W        W27487  14.460   4.241   1.633 -0.3923 -0.1651  0.0679
11679W        W27488   8.357   3.978  11.540  0.0689 -0.0989  0.1879
11680W        W27489  17.974  13.535   0.244  0.0377  0.1433  0.0079
11681W        W27490  18.668  11.229   2.593  0.1867  0.1389 -0.1309
11682W        W27491  16.794   6.230  11.025  0.1827  0.2285 -0.0804
11683W        W27492   9.436   9.201   0.090  0.0148 -0.0295  0.2481
11684W        W27493  13.448   7.034   4.891  0.0664 -0.2806  0.0194
11685W        W27494  12.550  11.300  10.630  0.2206  0.0491  0.0787
11686W        W27495   3.706   9.286   4.252  0.1064  0.0619 -0.0863
11687W        W27496  14.518  12.191  13.740  0.0332  0.1699 -0.1701
11688W        W27497   0.345   0.711   4.325  0.0398  0.0338 -0.1019
11689W        W27498  12.441  12.782   4.686 -0.0279 -0.2766  0.6277
11690W        W27499   3.999   0.149  11.189  0.1158  0.0025 -0.2120
11691W        W27500   9.715  18.086  14.978 -0.0251 -0.0543  0.2783
11692W        W27501  10.993   2.205  11.637  0.0855 -0.1573 -0.0586
11693W        W27502   9.181   0.184  11.338 -0.4514 -0.0800  0.0200
11694W        W27503  14.506   8.502   4.429 -0.0349  0.0361 -0.0180
11695W        W27504   4.785  13.125   3.755 -0.2475 -0.0870  0.2510
11696W        W27505   2.424   8.860   4.298 -0.0819 -0.2974 -0.0021
11697W        W27506  11.579   3.076  10.199 -0.1251  0.1283 -0.0995
11698W        W27507  14.575  15.349   4.189 -0.3154 -0.3210 -0.0751
11699W        W27508   2.499   8.741  14.683 -0.1046 -0.0492 -0.1662
11700W        W27509   5.501   6.447   4.185 -0.5989  0.0149 -0.0497
11701W        W27510   1.624   6.267   2.892 -0.0056 -0.0047  0.2786
11702W        W27511   4.599  19.094  14.308 -0.2776  0.0973  0.0192
11703W        W27512  15.128   9.458  10.073 -0.0013 -0.2668  0.0699
11704W        W27513  15.717   8.243   0.837 -0.0307 -0.0294  0.1437
11705W        W27514  11.517  11.879  11.423  0.0849 -0.1689  0.1328
11706W        W27515   4.441  13.306   4.463  0.3128  0.1665  0.0652
11707W        W27516   7.231  15.642  10.509  0.1197 -0.2696  0.2074
11708W        W27517  16.094   8.234   3.418  0.0945  0.0317 -0.1951
11709W        W27518   0.062  12.968  14.039  0.1359 -0.2460  0.4227
11710W        W27519   0.528  11.717   5.482 -0.1008 -0.1732  0.0518
11711W        W27520   2.272  12.977  11.018  0.2442 -0.0906 -0.3843
11712W        W27521  10.686  10.715   2.573  0.0212  0.0736  0.1748
11713W        W27522  14.220   4.322  13.618  0.0163  0.2121  0.0809
11714W        W27523   5.234  15.321   0.688 -0.0173  0.1025  0.0162
11715W        W27524   3.757   8.477  12.256  0.0071 -0.2170  0.2178
11716W        W27525  11.976   4.489   0.020  0.0047  0.0135 -0.3275
11717W        W27526   7.145   9.512   3.433  0.3715  0.1869 -0.2669
11718W        W27527  13.884   3.841  13.573 -0.0844 -0.0320 -0.1984
11719W        W27528  17.506  13.999   0.799  0.0472 -0.0755 -0.2568
11720W        W27529  16.658   6.612  12.941  0.1275 -0.2429  0.2093
11721W        W27530  13.234  11.249   4.186 -0.0132 -0.0333  0.1395
11722W        W27531   6.058   7.591  12.060  0.2048 -0.0040 -0.2461
11723W        W27532  12.272   9.424   4.797 -0.4409 -0.0109  0.2389
11724W        W27533   5.394  14.881   1.831  0.0756  0.0111  0.2050
11725W        W27534  18.409   1.022  10.316 -0.1258  0.1478  0.1603
11726W        W27535   1.605  18.528  14.464 -0.0952  0.1826 -0.1972
11727W        W27536  10.515  18.524   4.084 -0.0791  0.0993  0.0642
11728W        W27537  18.303  11.000   2.304 -0.0025  0.0423 -0.0965
11729W        W27538  19.041   9.307  12.957 -0.1896  0.2305  0.3891
11730W        W27539   6.550  13.181  12.528 -0.1501 -0.2781  0.3834
11731W        W27540   5.289   2.616  10.760 -0.1778  0.0780 -0.3446
11732W        W27541  16.177   6.783   0.875  0.2429  0.0728 -0.1206
11733W        W27542  15.693  12.777  10.815  0.1804 -0.0158 -0.1903
11734W        W27543  15.725   6.675   3.716  0.0930  0.0857 -0.1786
11735W        W27544   9.536   0.266  13.118 -0.2260 -0.3395  0.0925
11736W        W27545   0.669   9.248   3.675 -0.0548 -0.5055  0.0645
11737W        W27546  12.496   4.560   1.188  0.0104  0.6566 -0.0958
11738W        W27547   8.015  12.353  14.465  0.1625 -0.0015 -0.0447
11739W        W27548  13.985  16.481  14.991  0.0976  0.0422 -0.0136
11740W        W27549   6.984  13.187   4.430 -0.2261 -0.0364  0.2058
11741W        W27550   9.938  16.554   0.035 -0.0304 -0.0136 -0.0529
11742W        W27551  11.404   2.214   3.470  0.2247  0.1035 -0.3356
11743W        W27552  17.863  10.912  12.417 -0.2478  0.1969  0.0323
11744W        W27553   7.683  18.896   0.312 -0.4115  0.2492  0.1277
11745W        W27554   0.093   4.018  12.703  0.0512  0.1031  0.1082
11746W        W27555   5.624  12.529  14.252 -0.1543 -0.1162  0.0560
11747W        W27556   7.541  16.586   1.281 -0.0387  0.1007 -0.3216
11748W        W27557   8.770   0.065   2.648 -0.0387  0.2153 -0.0128
11749W        W27558  18.779   2.175   0.621 -0.1022 -0.1193  0.1882
11750W        W27559   1.558   1.455  11.671 -0.1107  0.1648 -0.2490
11751W        W27560   4.444   5.875  12.084  0.0130 -0.0810 -0.0764
11752W        W27561   9.350   0.801   1.061  0.0327  0.2867 -0.1786
11753W        W27562  13.498  18.964  10.420 -0.1827 -0.1581 -0.1014
11754W        W27563   8.820   8.749   5.244  0.2499  0.0718  0.1644
11755W        W27564   0.638  15.470  10.867  0.2519 -0.0336 -0.0605
11756W        W27565   0.425   4.727   2.847 -0.0176  0.0912 -0.0287
11757W        W27566  15.746   1.979  12.798 -0.0858 -0.0782 -0.0808
11758W        W27567   4.734  18.797  10.172  0.0957  0.1819  0.2422
11759W        W27568  10.709  14.505  12.956 -0.0894 -0.0449  0.0374
11760W        W27569  15.736   7.215   1.847  0.0429 -0.0312 -0.1070
11761W        W27570  11.659   8.917  11.105 -0.0299 -0.0114  0.3370
11762W        W27571   7.461  13.889  10.494 -0.1095 -0.0402 -0.1189
11763W        W27572  12.277  19.128   5.196 -0.7100 -0.0130 -0.0153
11764W        W27573   7.482   2.225   1.646 -0.0287 -0.2613  0.1087
11765W        W27574   9.241   6.815   5.269  0.1058  0.1757  0.0380
11766W        W27575  13.726  15.105   1.384 -0.1866  0.0709 -0.1177
11767W        W27576   5.556   4.866   4.076 -0.1196  0.2121 -0.1206
11768W        W27577  15.827   5.626  12.173  0.0162  0.1597 -0.0695
11769W        W27578  12.848   8.208   2.424 -0.1112  0.0895  0.2894
11770W        W27579  15.409  15.834  12.835 -0.3424  0.2221 -0.0236
11771W        W27580  18.799   6.793  13.868 -0.0639  0.5023  0.0859
11772W        W27581   6.353  17.072   2.857  0.1181 -0.2963  0.1316
11773W        W27582   5.039   4.583   2.826  0.1657  0.3855 -0.2115
11774W        W27583  18.606   3.197   3.504  0.2746 -0.0495  0.4886
11775W        W27584   5.223  10.119   2.595 -0.0446  0.0702 -0.3850
11776W        W27585   3.717   8.599  13.911  0.1731  0.0616  0.4857
11777W        W27586   3.307   0.821   3.974  0.2103 -0.1491  0.1395
11778W        W27587  10.379   8.383   3.884 -0.2860  0.0560 -0.0454
11779W        W27588  12.042  12.466   3.924 -0.1323  0.1005  0.0675
11780W        W27589  13.500  17.648  11.827 -0.3064 -0.0484  0.0747
11781W        W27590  18.337   2.211   9.867 -0.1445 -0.1746  0.2005
11782W        W27591   1.900  10.583   4.384  0.3000 -0.2948  0.2042
11783W        W27592  16.204  17.465   0.605  0.1631 -0.1449 -0.0151
11784W        W27593   5.781   5.667  11.538 -0.0285 -0.3127 -0.0029
11785W        W27594   7.848   2.623   1.630  0.0495 -0.2937 -0.3225
11786W        W27595   3.031   8.691  14.830 -0.1384  0.2677  0.0245
11787W        W27596   9.015   5.795  10.802 -0.2030 -0.0493  0.1570
11788W        W27597  11.383   8.353   9.522  0.3535 -0.0416 -0.1254
11789W        W27598  11.372   5.220  15.157 -0.0918 -0.1327 -0.0425
11790W        W27599  15.624  14.810  14.034 -0.1981  0.0593 -0.0047
11791W        W27600   9.326   2.118  12.935 -0.2208  0.4183 -0.1466
11792W        W27601   3.074   1.852  11.214  0.1887 -0.0156  0.1314
11793W        W27602  10.503   3.878   3.130 -0.0553 -0.0665  0.0762
11794W        W27603   1.189  16.233  11.546 -0.1839 -0.1470  0.1493
11795W        W27604  15.257  11.832  10.819 -0.1072 -0.0638  0.3877
11796W        W27605   3.435  15.727   0.207  0.1930 -0.2549 -0.2663
11797W        W27606  14.477  11.843   2.560 -0.0154  0.1290 -0.0518
11798W        W27607   8.754  10.854  10.227 -0.0373  0.0375  0.1563
11799W        W27608  18.491  16.506  10.953  0.2587 -0.0169 -0.0631
11800W        W27609   4.257   1.239  13.821 -0.2328  0.3556 -0.0855
11801W        W27610  14.943   9.482  14.649  0.1946  0.3300 -0.0520
11802W        W27611   0.028  17.148  13.472  0.0819  0.1745  0.0809
11803W        W27612  18.920   3.896   1.672  0.0617 -0.1151  0.1516
11804W        W27613   4.360   3.648   4.730 -0.1350  0.0700 -0.0289
11805W        W27614   7.813   7.296   2.546  0.1710  0.0535 -0.1689
11806W        W27615  16.614   7.927   2.726  0.0785  0.0552 -0.4730
11807W        W27616   8.756  18.206   0.520  0.0690  0.1871 -0.4638
11808W        W27617   6.714   0.818  14.906 -0.2473  0.1278 -0.2108
11809W        W27618   1.441   8.961   4.259 -0.0118 -0.0734 -0.1422
11810W        W27619   0.906   7.280   4.159 -0.1746 -0.1117 -0.2747
11811W        W27620   3.588   1.384   5.189 -0.3550 -0.3451  0.1468
11812W        W27621   2.519   6.419   3.330 -0.2938  0.0960 -0.1140
11813W        W27622   1.709   0.520   2.368  0.0597 -0.1678  0.0549
11814W        W27623   1.566   3.152  13.592 -0.0567  0.0108 -0.1232
11815W        W27624  10.028  13.151   1.633 -0.1614 -0.2238  0.3720
11816W        W27625  12.922  12.394  12.624  0.0076 -0.3739  0.0487
11817W        W27626   5.776   0.061  11.357  0.0928  0.1539 -0.1446
11818W        W27627  15.782  17.805   5.622 -0.1390  0.0857  0.1358
11819W        W27628   5.218  12.725   3.685  0.0778  0.0852  0.0301
11820W        W27629  12.636  18.040   2.365 -0.4844  0.0184  0.0357
11821W        W27630  16.353   4.144   2.640 -0.1927  0.1942 -0.1015
11822W        W27631   7.261   8.977   2.568  0.1701  0.1053 -0.1016
11823W        W27632   9.115  13.046   2.838  0.1648  0.1598 -0.1654
11824W        W27633   5.126   4.604  14.970 -0.2639 -0.0865  0.0950
11825W        W27634   3.224  11.076   1.332 -0.2599  0.0220  0.7076
11826W        W27635   6.010   2.411   5.021 -0.0607 -0.1934  0.0986
11827W        W27636   3.011   4.000  13.575  0.0717  0.0080  0.0466
11828W        W27637   1.612  16.182  14.303 -0.2169 -0.2605 -0.2944
11829W        W27638  12.998  14.997  13.327  0.0221 -0.0432 -0.2603
11830W        W27639  10.989   4.706  14.937  0.0927  0.3326  0.0771
11831W        W27640  10.001  10.530  12.903  0.1056  0.2169  0.2989
11832W        W27641  15.379   9.989  11.319 -0.1046  0.3138 -0.2416
11833W        W27642   3.278   5.910   4.816  0.1866 -0.0732  0.2458
11834W        W27643   0.212   0.273   2.529  0.1105  0.3285 -0.0719
11835W        W27644   9.258  13.902  14.855 -0.0442 -0.0942  0.3426
11836W        W27645  16.684   3.265  15.146  0.1222  0.2404 -0.0637
11837W        W27646   7.376   8.744   3.369  0.0806 -0.2290  0.2675
11838W        W27647  11.653   7.431   0.403 -0.0722  0.0277 -0.0722
11839W        W27648  12.190   9.110  13.504 -0.0006 -0.3017  0.0221
11840W        W27649  11.974   7.957   3.040  0.1799  0.1123  0.0946
11841W        W27650  17.109   2.244   0.233  0.1941  0.0906  0.3510
11842W        W27651   1.834   1.648   3.649  0.0921  0.0967  0.0719
11843W        W27652   7.371   1.780  11.399  0.0006  0.0944  0.1718
11844W        W27653  11.052  19.094  12.461  0.4632  0.2869  0.3095
11845W        W27654   4.136  16.945  12.300  0.1730 -0.1388  0.0315
11846W        W27655  11.257  16.317   3.455  0.0654 -0.2349  0.0532
11847W        W27656   6.545   8.355   2.723 -0.2044 -0.1916  0.0768
11848W        W27657   4.549  12.398   3.132 -0.1083  0.0879 -0.1671
11849W        W27658   7.801  17.883   3.828  0.3940  0.0547  0.3610
11850W        W27659   7.594   0.624  10.464 -0.2464  0.0677  0.0002
11851W        W27660   4.596   8.642   5.682  0.0159 -0.0072 -0.0592
11852W        W27661   1.755  13.875   4.453  0.3787  0.0413  0.0519
11853W        W27662   9.416  12.422   5.414 -0.0953 -0.0582 -0.2293
11854W        W27663   9.890  10.869  12.237 -0.0792 -0.4050  0.1223
11855W        W27664   8.444  17.913  12.718  0.0847  0.2380  0.0205
11856W        W27665  18.976   5.048   1.012  0.1497 -0.1553  0.2829
11857W        W27666   3.781   9.566  15.052  0.0250  0.1367 -0.1276
11858W        W27667   3.973  10.559  10.888 -0.1599 -0.1058 -0.0994
11859W        W27668  17.950  14.679   3.905 -0.1492  0.1575  0.0485
11860W        W27669   0.088   5.099  11.374 -0.5289 -0.0346  0.0299
11861W        W27670   8.171  13.518  14.361 -0.0294 -0.1016  0.2871
11862W        W27671   2.921  18.904  13.201  0.0566 -0.2232 -0.2067
11863W        W27672  16.416   4.516  13.871  0.2604 -0.2457 -0.3692
11864W        W27673   8.540  11.958   1.833  0.0970 -0.0104 -0.1002
11865W        W27674  17.728  15.638   4.294  0.2655 -0.0827 -0.2692
11866W        W27675   4.814   8.223   3.355  0.0101  0.3042  0.1393
11867W        W27676   0.546  14.252  14.405  0.1998 -0.2685 -0.1381
11868W        W27677   4.918  14.572  12.435 -0.1105 -0.3388  0.0806
11869W        W27678   5.777  17.206   1.078 -0.0493 -0.1069  0.1366
11870W        W27679   1.233  11.551   2.505  0.4879 -0.1000  0.0826
11871W        W27680   2.622  17.239  12.684 -0.0768 -0.2275 -0.0066
11872W        W27681  14.937  14.941   2.828 -0.2044 -0.0975 -0.2970
11873W        W27682   6.488  15.187  13.922 -0.0725 -0.2781 -0.0941
11874W        W27683   6.797  13.536  11.687 -0.2360  0.0133 -0.4983
11875W        W27684   0.081  12.220   0.953 -0.0463  0.0657  0.0140
11876W        W27685  12.810   8.777  13.989  0.0439 -0.0065 -0.3940
11877W        W27686  15.772   6.964  10.492  0.0552 -0.0778 -0.1317
11878W        W27687   0.606  16.883  12.030  0.1577  0.2702 -0.0057
11879W        W27688  16.955   0.435  12.642  0.1532  0.1034  0.4253
11880W        W27689  15.157   0.370   1.308  0.2368 -0.0996 -0.3665
11881W        W27690  11.307   9.602  10.250  0.2222 -0.2446 -0.0613
11882W        W27691  15.847  12.291  13.581 -0.2347  0.4313  0.0233
11883W        W27692  18.424   7.200   9.872 -0.0740 -0.3394  0.0423
11884W        W27693   5.195  14.521   1.494 -0.1389  0.1859 -0.0522
11885W        W27694   2.897   4.247  10.880  0.4195 -0.0518 -0.0976
11886W        W27695  16.541  12.198   4.004 -0.1971  0.1330 -0.0465
11887W        W27696  18.838   1.106   0.769  0.0671 -0.0080 -0.1796
11888W        W27697  13.142   2.235   2.727 -0.4139 -0.0609  0.2146
11889W        W27698   9.786  10.948   3.357 -0.0559  0.1662  0.3822
11890W        W27699   4.475   1.971  13.002 -0.0444 -0.1848 -0.2061
11891W        W27700  13.539   3.327   4.651  0.2184  0.1996 -0.0593
11892W        W27701   0.925   1.496   0.285  0.3375  0.0956 -0.1144
11893W        W27702   5.281   3.566  12.368  0.2901 -0.0752 -0.0296
11894W        W27703   3.456   0.543   4.634 -0.0797 -0.2433  0.1419
11895W        W27704   1.449   6.702   3.357 -0.2411  0.1452  0.3510
11896W        W27705   0.126   7.156   9.667 -0.3238  0.0311 -0.3173
11897W        W27706   9.448   0.768   1.804  0.1999 -0.2658  0.0532
11898W        W27707  13.793   2.361   4.177  0.0179 -0.0230 -0.1456
11899W        W27708   7.839  10.161  15.242  0.1577  0.1849 -0.1473
11900W        W27709  14.047   9.430  11.590 -0.1510 -0.1036 -0.1426
11901W        W27710   9.289   0.809  11.403  0.1309 -0.0649  0.0552
11902W        W27711  18.931  18.226   1.623  0.0419 -0.1378  0.1580
11903W        W27712   5.409   0.743   2.110  0.1013 -0.1714  0.1455
11904W        W27713  12.868   7.221  14.942 -0.0649  0.3877 -0.0097
11905W        W27714   6.875   3.612  10.286 -0.1687 -0.1173 -0.2889
11906W        W27715   3.738   9.017   1.312 -0.1393  0.0868 -0.0416
11907W        W27716   8.655   5.711   4.082  0.2233  0.2797 -0.0347
11908W        W27717   9.163   1.952  11.650  0.2177  0.0578  0.0319
11909W        W27718   4.712  15.418  14.008 -0.0851 -0.1880  0.0819
11910W        W27719   7.065   7.512   2.406  0.2670 -0.0331  0.2296
11911W        W27720  16.673   5.998  14.592 -0.0468 -0.3451 -0.3762
11912W        W27721  17.577   3.935  12.239  0.1288 -0.0537  0.0039
11913W        W27722   1.324  11.919  14.879  0.0901  0.1286  0.4306
11914W        W27723   4.670  10.541   3.217 -0.1932  0.0862  0.0398
11915W        W27724  11.361   4.836  14.603 -0.0563  0.1804 -0.1233
11916W        W27725  11.233   9.976   5.061 -0.2997 -0.0438  0.1292
11917W        W27726  10.870  16.146  12.243  0.1839  0.1506 -0.4496
11918W        W27727   1.339   5.472   3.649  0.0285  0.0156  0.2455
11919W        W27728   3.888   7.751  12.277  0.4709  0.0137 -0.3213
11920W        W27729   0.985  11.296  13.996  0.0405 -0.0849 -0.1572
11921W        W27730   2.807  15.029  12.906  0.3015 -0.0694 -0.0951
11922W        W27731  15.482   9.203   5.221 -0.2987 -0.1896  0.3274
11923W        W27732  13.636   1.283   0.501  0.0566  0.2456  0.2116
11924W        W27733  15.731   5.298   1.067 -0.2067 -0.0242 -0.1415
11925W        W27734   4.264   6.880   3.484 -0.1579  0.1943 -0.1788
11926W        W27735   5.478  14.040   0.014  0.0529  0.2215  0.1662
11927W        W27736   8.104   2.050  14.248 -0.0628  0.3445 -0.2937
11928W        W27737   0.009   8.891  13.168 -0.1890 -0.1121 -0.2945
11929W        W27738   5.542  13.202   4.498  0.0661 -0.1636 -0.4270
11930W        W27739   6.223   7.789   2.165 -0.1197 -0.0697 -0.0705
11931W        W27740  12.284   6.799  12.808 -0.1201 -0.1534 -0.0670
11932W        W27741   8.145  16.256  11.438 -0.2863 -0.5358 -0.0995
11933W        W27742  12.419   1.206   3.094 -0.2131 -0.1413  0.1340
11934W        W27743   4.816  13.127   0.497 -0.3611 -0.1811  0.0697
11935W        W27744  10.711   9.201  12.642 -0.2331 -0.0201 -0.1418
11936W        W27745  15.851  18.544   1.712  0.0473 -0.1327  0.1241
11937W        W27746  11.145  18.172   2.167  0.2487  0.1131  0.1440
11938W        W27747  15.320   8.979  13.394  0.2021  0.3666 -0.1234
11939W        W27748   9.710   3.560  13.189 -0.2072  0.2233  0.3283
11940W        W27749   4.842  14.109  11.621  0.1559 -0.0114 -0.0850
11941W        W27750   2.024   3.181   2.061 -0.0459 -0.2310 -0.0337
11942W        W27751  10.375  18.887   4.439  0.2402  0.1088  0.0615
11943W        W27752  13.849   7.169  11.841  0.2097 -0.2755  0.0304
11944W        W27753  15.183   2.397   3.298  0.4161 -0.1573 -0.2274
11945W        W27754   3.145   0.783   9.696  0.3566  0.1438 -0.1391
11946W        W27755   3.085   3.249  11.301 -0.1006  0.3582  0.1094
11947W        W27756   6.570   2.851  11.125  0.1581  0.2372  0.2424
11948W        W27757  17.525   8.813  11.715  0.2861  0.1949  0.1937
11949W        W27758   1.273  14.098   1.482 -0.0718  0.0179  0.1402
11950W        W27759   7.269   4.673  14.246  0.0691  0.2722 -0.3533
11951W        W27760  10.939   8.062   1.349 -0.3632  0.2378 -0.0565
11952W        W27761  10.615  18.936  13.665  0.1700  0.1546 -0.0618
11953W        W27762   9.403   6.233   3.753  0.2715  0.3479 -0.0563
11954W        W27763   3.300  18.734  14.156 -0.1100  0.0626 -0.2642
11955W        W27764  10.068  17.255   0.750  0.1853 -0.2056  0.1638
11956W        W27765  15.662  14.209   0.098 -0.1848  0.0429  0.0037
11957W        W27766  10.832  17.462  12.004  0.1133  0.0262 -0.1724
11958W        W27767   0.478   7.522   2.142  0.0066 -0.0453  0.4858
11959W        W27768  16.735   1.704  12.201  0.0077 -0.0790 -0.5246
11960W        W27769  13.441  17.891  13.526 -0.2050  0.1751 -0.3661
11961W        W27770   5.813  16.857  11.473 -0.1278 -0.1388 -0.0756
11962W        W27771   0.679  11.045  14.286  0.0001  0.0026 -0.0671
11963W        W27772   7.182   3.391   9.277  0.0892  0.4204  0.2719
11964W        W27773   2.914  12.994  12.312 -0.0666  0.1819 -0.2078
11965W        W27774  15.261   1.330  10.772  0.4404  0.0993  0.0204
11966W        W27775   3.896   9.489  13.099  0.0851 -0.2117 -0.3238
11967W        W27776   3.595  13.788   0.619 -0.0339 -0.0010  0.0449
11968W        W27777  15.869   2.927   0.505 -0.2262  0.0501 -0.0787
11969W        W27778  14.340   4.379   3.531 -0.2586 -0.2137 -0.1637
11970W        W27779   4.377   8.867  14.919  0.5090 -0.0549  0.0707
11971W        W27780  12.854   0.905   4.908  0.1765 -0.0440 -0.1140
11972W        W27781   3.968  14.222   5.263  0.1151 -0.0635  0.3250
11973W        W27782  13.190   8.077  12.359  0.0802  0.0019  0.2692
11974W        W27783  17.438   1.926  11.710  0.1162 -0.0604 -0.0332
11975W        W27784   5.209   5.556   2.983  0.0238  0.1507 -0.2124
11976W        W27785  17.311   2.835  14.768 -0.0465 -0.2412 -0.1463
11977W        W27786   4.455   3.529  10.080 -0.1061  0.0013  0.2557
11978W        W27787   2.421  18.581   2.380  0.0652 -0.3000 -0.0638
11979W        W27788  18.388  11.572   3.365  0.2340  0.0567  0.0545
11980W        W27789  13.454   9.975   4.317 -0.0884 -0.2333 -0.2485
11981W        W27790   3.553  13.735   0.092 -0.2172 -0.2751 -0.2657
11982W        W27791  12.346   6.440  13.516  0.4919  0.3057 -0.1645
11983W        W27792  12.310   7.108  14.249 -0.1898  0.1982  0.0758
11984W        W27793   7.485   6.221   1.681 -0.2149 -0.4845  0.2800
11985W        W27794  18.118  16.943  13.577  0.1473 -0.0154 -0.4203
11986W        W27795  15.855  17.074  14.408 -0.1241  0.0015 -0.0916
11987W        W27796  10.296   4.873  14.401  0.2222  0.1564  0.0948
11988W        W27797   3.736  10.128  10.800 -0.0712  0.1238  0.3897
11989W        W27798  19.136  13.748  13.734  0.2894 -0.4053  0.0358
11990W        W27799  17.613  14.073  13.695 -0.0089 -0.1951  0.1713
11991W        W27800  10.398   3.303  12.103 -0.0643 -0.2211 -0.3321
11992W        W27801  15.217   5.024   2.134  0.2287  0.1150  0.0518
11993W        W27802   8.064   8.817  10.491 -0.0427 -0.3872 -0.2469
11994W        W27803  10.152  17.288  11.823  0.1479  0.3207 -0.2815
11995W        W27804   3.687  16.607  11.031  0.2550 -0.1612  0.2942
11996W        W27805  10.267  10.953   1.027 -0.1354 -0.2473 -0.0541
11997W        W27806  18.262  11.446  14.428  0.3572 -0.0135  0.1994
11998W        W27807  11.744   2.617  13.829 -0.0624  0.1477  0.1741
11999W        W27808  10.783  17.639  14.865 -0.0021 -0.0655  0.1637
12000W        W27809  12.864  17.046   0.240 -0.2293  0.1156  0.1680
12001W        W27810  15.373   5.639  11.298 -0.0751  0.0003 -0.0844
12002W        W27811  12.492  11.591   0.087 -0.0970 -0.1977 -0.1315
12003W        W27812  15.966  10.450   2.716  0.2359  0.0153  0.0243
12004W        W27813   7.678  18.368   0.247  0.5324 -0.0168  0.4011
12005W        W27814   1.889   1.420  10.418 -0.1443 -0.3181  0.1316
12006W        W27815  11.529   1.493   4.573  0.1379  0.2721 -0.0799
12007W        W27816   4.419   3.589  14.456  0.0695 -0.1928 -0.1364
12008W        W27817  16.743   4.556   2.383  0.2235 -0.3044  0.2504
12009W        W27818  13.476   3.151   2.855 -0.1627  0.0167  0.1305
12010W        W27819  16.355  11.889  13.229  0.2813  0.1802 -0.0724
12011W        W27820   8.898   1.546   3.197 -0.3051  0.1588 -0.0757
12012W        W27821  17.274  13.031   2.131 -0.0456  0.1812 -0.0774
12013W        W27822  13.016   6.168  11.133  0.4116 -0.0408 -0.2958
12014W        W27823   8.496   3.244   1.344  0.2738 -0.0350  0.0994
12015W        W27824  11.045   6.383  10.436 -0.1083 -0.4097  0.0394
12016W        W27825  13.330   7.094  14.678  0.2563  0.0850 -0.2458
12017W        W27826  13.923   1.338  13.732  0.0635 -0.0536 -0.0512
12018W        W27827   5.729  10.613   4.688 -0.0790 -0.2265  0.3602
12019W        W27828  12.088  14.162   0.011  0.1988  0.0896 -0.2027
12020W        W27829   4.784   0.145   2.743  0.1398  0.1257 -0.0540
12021W        W27830   7.251  10.713   1.034 -0.0737  0.1524 -0.1410
12022W        W27831   6.914   9.763  12.237  0.1565  0.1704  0.1809
12023W        W27832   2.798  10.575  12.150  0.0264  0.1029  0.2802
12024W        W27833   0.024  15.637  12.783 -0.0243 -0.3819  0.1760
12025W        W27834  10.730  15.920   2.400  0.1899 -0.1137 -0.0022
12026W        W27835  18.695   7.647   0.665  0.0834 -0.1444 -0.1199
12027W        W27836   9.774  18.963  13.103 -0.2756  0.0804  0.1609
12028W        W27837  12.292  10.398   2.308 -0.0642 -0.1154 -0.0108
12029W        W27838  14.651   7.635   2.685 -0.2922 -0.2165 -0.3720
12030W        W27839   1.317   1.599   5.110  0.1558  0.0060 -0.3363
12031W        W27840   6.022   3.354  11.265  0.1722 -0.1162  0.0054
12032W        W27841   7.529  19.003  13.129 -0.1748 -0.1088 -0.0612
12033W        W27842   4.592  12.455   1.079 -0.3335 -0.2404  0.2868
12034W        W27843  14.222  11.250   4.288  0.0329  0.0510 -0.0935
12035W        W27844  10.172  18.765   3.530  0.2896 -0.2197  0.0816
12036W        W27845   7.428  11.147  11.952 -0.0937  0.0164 -0.5257
12037W        W27846   9.479  12.242  10.564  0.0926 -0.0034  0.1671
12038W        W27847  13.501   1.563   1.187  0.1809 -0.1139  0.4000
12039W        W27848   7.373   6.206  13.735 -0.1487  0.1839  0.2097
12040W        W27849  14.115   1.810   3.930 -0.0170 -0.1614 -0.0281
12041W        W27850   7.287   9.197  14.730  0.1132 -0.1732  0.0985
12042W        W27851   3.018  16.300  13.958 -0.5584 -0.2486 -0.0119
12043W        W27852  11.262   8.309  11.491  0.1459 -0.5030 -0.1275
12044W        W27853  15.846  17.987  10.642 -0.1439 -0.5143  0.3520
12045W        W27854   2.647   7.585  13.359 -0.0468 -0.0058 -0.1090
12046W        W27855   6.935   3.198  13.476  0.0398  0.6875  0.1851
12047W        W27856   4.262  18.308  13.643  0.2049  0.1429 -0.2445
12048W        W27857   9.501  10.132  13.657 -0.1418 -0.1283  0.0286
12049W        W27858  18.859   9.390   4.670 -0.0666  0.3295  0.0171
12050W        W27859   2.220  17.827   3.625  0.2526 -0.0107  0.0718
12051W        W27860   0.111  10.137  15.126 -0.1681  0.4417 -0.2593
12052W        W27861   3.833  12.153   3.782  0.0675 -0.1818  0.2579
12053W        W27862  13.532   1.881   4.262 -0.0644  0.1608 -0.2450
12054W        W27863   6.813   2.710  10.043 -0.1464  0.0186 -0.2978
12055W        W27864  10.321   9.420   4.737 -0.1309 -0.1886 -0.0227
12056W        W27865   7.959  10.103   2.080 -0.1195  0.0832 -0.2219
12057W        W27866   8.842  17.422  13.202  0.0037 -0.0515 -0.0043
12058W        W27867   1.739   5.852   1.291  0.1718  0.0063  0.0100
12059W        W27868  12.337   2.400  13.806 -0.4545  0.1468  0.1858
12060W        W27869   5.608  14.873   4.436 -0.1278  0.2014 -0.1475
12061W        W27870   3.270  16.013  10.819  0.4605 -0.4849  0.1019
12062W        W27871  15.115   4.172  13.951  0.0405 -0.5624 -0.2401
12063W        W27872  14.736   8.423   1.888 -0.1745  0.1413 -0.0488
12064W        W27873  12.187  12.049   3.704  0.0849  0.0962  0.1356
12065W        W27874  12.323   3.736   2.808 -0.1990 -0.3565 -0.0152
12066W        W27875  12.100  14.152  14.760 -0.1059  0.2023 -0.1963
12067W        W27876  10.266   2.494  12.409 -0.1250  0.4452 -0.0465
12068W        W27877   2.763   5.347  12.750 -0.1077  0.1303  0.1431
12069W        W27878  11.549   5.688   1.596 -0.1596 -0.0064 -0.0687
12070W        W27879  10.406   4.122   0.271  0.1422  0.0519 -0.0029
12071W        W27880   4.421  17.856   0.900  0.0248 -0.0783  0.1055
12072W        W27881  18.933   5.988   0.757 -0.0259  0.1603 -0.2331
12073W        W27882  15.217   6.012   1.630 -0.1125  0.0059  0.2364
12074W        W27883   4.814   6.172   4.664  0.1963 -0.0278  0.1030
12075W        W27884  15.197   9.150  14.958  0.1993 -0.0927  0.0440
12076W        W27885  10.716  14.148   5.575  0.1379 -0.1400  0.0136
12077W        W27886   4.481   2.300  10.171 -0.1241  0.3363  0.0813
12078W        W27887   8.450  10.589  12.927  0.0398  0.0664  0.0618
12079W        W27888  13.962  17.461   0.389 -0.0426 -0.0841 -0.0085
12080W        W27889  11.939   4.818  13.750  0.0610  0.1644  0.0586
12081W        W27890  13.396  10.703   1.262 -0.2748 -0.1679 -0.0322
12082W        W27891  16.306  13.543  10.256  0.0568  0.1090  0.2159
12083W        W27892   4.535   4.143   1.446  0.1083  0.0810 -0.0842
12084W        W27893  18.446  18.705  12.713 -0.0844  0.1783  0.3709
12085W        W27894  13.616   5.634  12.309 -0.0676 -0.1163  0.1157
12086W        W27895  10.503   1.170  10.808 -0.3009  0.0804  0.4297
12087W        W27896  13.286   5.071   5.399 -0.0460 -0.1419 -0.0640
12088W        W27897  11.968  17.390  14.233 -0.1347 -0.0376  0.0363
12089W        W27898  19.084  11.097   4.578  0.1355  0.1426  0.0576
12090W        W27899   6.655   9.411   0.054 -0.0673  0.1135  0.0720
12091W        W27900  15.850  14.652   0.513  0.1701 -0.0403  0.1461
12092W        W27901   6.667  11.250   3.240  0.3318 -0.0437 -0.6057
12093W        W27902   4.584   9.613   3.338 -0.1270 -0.2000 -0.1830
12094W        W27903   5.028   9.561   0.397  0.3703  0.2393 -0.2502
12095W        W27904  11.420   6.156  10.848  0.3542  0.0265 -0.1227
12096W        W27905  10.692   9.144   4.924  0.0065  0.2229  0.2336
12097W        W27906   1.501   0.772   0.651  0.1306  0.2526  0.3248
12098W        W27907   5.592   0.722   9.612 -0.1926  0.1739 -0.1135
12099W        W27908   1.805  12.462   2.269  0.1656 -0.0588  0.1994
12100W        W27909   1.954  12.977  14.230  0.0989 -0.0778 -0.2031
12101W        W27910  16.475   6.102   4.059 -0.2489  0.3844 -0.0949
12102W        W27911  10.322  14.412   3.232  0.0247  0.0566  0.0346
12103W        W27912   0.430   5.461  11.376 -0.2851  0.0522 -0.0744
12104W        W27913  18.734   1.570   0.543 -0.0151 -0.1472  0.0028
12105W        W27914  18.075   6.925  12.280 -0.1043  0.0930  0.2990
12106W        W27915  10.930  11.958   3.884  0.3458  0.2422 -0.2897
12107W        W27916   7.372  12.582  13.959 -0.1716  0.4183 -0.2041
12108W        W27917   6.390  15.786  13.531 -0.2872 -0.4095 -0.0474
12109W        W27918  13.018   2.622  11.927  0.0938  0.1962  0.1296
12110W        W27919   1.438   8.307   4.213 -0.0950  0.0401 -0.4993
12111W        W27920  10.959  18.988   0.332 -0.1373 -0.2057  0.3952
12112W        W27921   1.226   8.903   1.453  0.1885 -0.0628  0.4109
12113W        W27922  16.750   1.545  14.691  0.0705 -0.0518 -0.1166
12114W        W27923  16.971   0.101   3.968 -0.3728 -0.0283  0.0770
12115W        W27924   2.140   7.634  13.334  0.0080 -0.0419 -0.0795
12116W        W27925   8.632   5.230  13.993 -0.1039 -0.1107  0.2023
12117W        W27926  14.664  10.768  11.883 -0.3024 -0.0233  0.2462
12118W        W27927   3.079   9.229   4.841  0.1702  0.2299  0.1918
12119W        W27928  16.170  18.121   2.624 -0.2753 -0.0314 -0.1148
12120W        W27929  14.706  13.043   3.339  0.2639  0.2972 -0.0368
12121W        W27930  17.384   4.193   4.452 -0.0090  0.0313 -0.1807
12122W        W27931  11.074   9.973  12.199  0.1832  0.0753  0.0558
12123W        W27932  11.914   8.777  12.115 -0.0171  0.2443  0.1796
12124W        W27933   0.929   5.186  11.572 -0.0192 -0.2072  0.1754
12125W        W27934   4.791  16.507  14.054  0.0474 -0.0036  0.0897
12126W        W27935  14.861   4.025  13.124  0.1977 -0.3554 -0.1148
12127W        W27936   7.663   9.003  11.292 -0.3546 -0.1980  0.3422
12128W        W27937  12.300   7.881  12.410  0.1565  0.1303 -0.0711
12129W        W27938   8.664  11.871  13.549 -0.2234  0.4279 -0.1595
12130W        W27939   2.458  15.663  11.175  0.2822  0.0670 -0.0910
12131W        W27940  11.851  19.002   2.466  0.0114  0.2468 -0.0277
12132W        W27941  13.307  11.559  10.808 -0.0155 -0.2153 -0.0943
12133W        W27942   7.973   4.382   1.845  0.0335  0.1076 -0.0019
12134W        W27943  17.853   8.103  12.172  0.2013 -0.0551  0.1877
12135W        W27944  14.109  18.444  12.954  0.0015  0.1337 -0.1913
12136W        W27945   1.230   4.523  12.674  0.0866 -0.0754  0.1529
12137W        W27946  17.379   1.366   3.586  0.0593  0.0409  0.1365
12138W        W27947   8.284   3.461  11.443  0.3106  0.1790  0.2338
12139W        W27948  18.930   1.873   4.231 -0.0218 -0.1209  0.1635
12140W        W27949  14.689   5.248  11.097  0.2708 -0.0493  0.1153
12141W        W27950   9.778  17.694   1.858  0.3996 -0.0749 -0.0940
12142W        W27951  18.039  12.695   1.675  0.1720  0.1028  0.0894
12143W        W27952  16.814  14.097  11.944  0.1698  0.1441 -0.1155
12144W        W27953  16.988   5.036   3.620  0.0218 -0.2737 -0.1375
12145W        W27954   9.695   6.068   2.992 -0.2845 -0.0301  0.3222
12146W        W27955  11.087  11.018   2.777 -0.1323 -0.2804 -0.0299
12147W        W27956   3.933  11.799  12.639  0.1855  0.2828  0.1708
12148W        W27957   9.061   2.594  12.703 -0.0398 -0.0220  0.1182
12149W        W27958  11.372   2.814  12.608 -0.0058  0.3340  0.0841
12150W        W27959   6.259   4.052   5.652  0.3383  0.0496  0.0104
12151W        W27960  18.521   7.381   3.670  0.0219  0.0448 -0.2139
12152W        W27961  13.973   0.989   0.100  0.1239  0.0573 -0.0268
12153W        W27962   0.109  16.381  11.994  0.0233 -0.2473 -0.0056
12154W        W27963  16.184  17.149   3.673 -0.1015  0.2452 -0.2292
12155W        W27964   8.972   1.685  13.066 -0.1809 -0.1512 -0.1467
12156W        W27965   3.113   2.034  12.594 -0.1855 -0.0191 -0.3133
12157W        W27966   8.643   1.079   4.372 -0.2528 -0.5579 -0.2306
12158W        W27967  16.203  18.398   2.163  0.2025  0.0522 -0.1325
12159W        W27968   0.801  17.934  11.879 -0.0863  0.1894 -0.0214
12160W        W27969  15.441  14.118   4.073  0.0176  0.0532 -0.2579
12161W        W27970   8.917   9.564  12.400  0.0342  0.0502 -0.0792
12162W        W27971   2.792  13.485   5.706 -0.0308 -0.1206  0.2623
12163W        W27972   4.339   8.455  10.899 -0.0725 -0.2753  0.0978
12164W        W27973  13.043  10.562  12.959 -0.3666  0.1316 -0.2221
12165W        W27974  14.358   2.189  11.362  0.1657  0.0947 -0.0971
12166W        W27975   4.815  12.824  12.742  0.1861  0.2465 -0.1821
12167W        W27976   1.269  14.320   1.022 -0.4572  0.2294  0.0036
12168W        W27977   6.796   4.799   2.052  0.0913 -0.2701 -0.2186
12169W        W27978  17.670  12.260   4.036 -0.1098  0.0055 -0.2356
12170W        W27979  13.171   3.050  10.742  0.4269  0.0447 -0.0114
12171W        W27980  11.502  14.995  11.373  0.4061 -0.2533  0.0549
12172W        W27981  12.552  12.141   4.693 -0.2456  0.1844  0.0397
12173W        W27982   9.082   9.486  13.012  0.0114 -0.2669 -0.2395
12174W        W27983  16.264   8.181   1.935  0.3726  0.1279 -0.1765
12175W        W27984   4.148   8.068   0.848 -0.1398  0.2721  0.1182
12176W        W27985   3.363   4.150  13.145  0.1380  0.1852  0.2154
12177W        W27986  10.140  18.214  11.956 -0.0040  0.1371  0.0220
12178W        W27987  10.813   3.005  10.880 -0.0925 -0.0004  0.1350
12179W        W27988  12.930   1.394  13.378  0.2822  0.1556  0.1000
12180W        W27989   4.989  15.807   1.229 -0.0318 -0.0015  0.3420
12181W        W27990  11.451   8.838  13.484 -0.0427 -0.4840 -0.0530
12182W        W27991  16.999   5.180   2.077  0.0096  0.1060 -0.0132
12183W        W27992  18.821  18.046  11.123 -0.0780  0.0415  0.0054
12184W        W27993   0.277  18.281   4.552 -0.0323  0.0443 -0.0805
12185W        W27994  18.153   2.354  11.420  0.0290  0.2751 -0.0635
12186W        W27995  16.371   4.684  15.137 -0.1744  0.0714  0.2846
12187W        W27996  15.987   4.615   1.608  0.3328  0.0401  0.3232
12188W        W27997   4.181  15.196  12.863  0.0494  0.1390  0.4514
12189W        W27998  13.939  13.826   9.796 -0.2919  0.0310  0.1193
12190W        W27999   1.107  15.983  11.970 -0.2752  0.0757  0.0505
12191W        W28000   9.255  10.861   3.285 -0.0768 -0.3591  0.0144
12192W        W28001   6.390  15.806   4.152  0.1451 -0.0277  0.2691
12193W        W28002  11.048   3.691  13.097  0.2025  0.0936  0.0483
12194W        W28003   7.958   0.709  12.189 -0.0085  0.2520 -0.2070
12195W        W28004   3.935  18.382  12.597 -0.0166  0.0302 -0.1303
12196W        W28005   1.678   9.456   0.965  0.1250 -0.1404 -0.0366
12197W        W28006  17.321   6.179   5.074  0.0638 -0.3375 -0.0691
12198W        W28007   2.099   0.083   3.529 -0.1160 -0.4776  0.0667
12199W        W28008  18.074   6.091   4.717  0.0580 -0.0597 -0.1587
12200W        W28009   0.241  15.616   1.485 -0.3492  0.0434  0.2550
12201W        W28010  10.981   5.200  13.660  0.0856  0.1680 -0.0026
12202W        W28011   4.006  14.116   2.552  0.0381  0.0098  0.2598
12203W        W28012  11.732   9.285  11.514  0.1589  0.3875  0.0181
12204W        W28013  18.180   9.295   1.718 -0.1826 -0.1729 -0.0812
12205W        W28014  19.025   2.129  12.952 -0.0882 -0.2197 -0.3903
12206W        W28015   3.426  18.787   0.437 -0.2319 -0.0124  0.0713
12207W        W28016  17.580  11.986   3.197 -0.2219  0.2666  0.4762
12208W        W28017   5.095   4.077   2.613 -0.4344 -0.1141 -0.1323
12209W        W28018   0.806   6.123  10.732  0.3316 -0.1367  0.0367
12210W        W28019   2.445   4.744   5.219 -0.1267 -0.3302  0.0869
12211W        W28020  18.054  10.815   4.395 -0.1366  0.2681 -0.3229
12212W        W28021   6.414  10.126  11.683  0.0218 -0.1798 -0.2725
12213W        W28022   2.715   7.518   1.345 -0.0611  0.0590  0.0282
12214W        W28023  15.431  15.945  10.346  0.1098  0.3416 -0.1465
12215W        W28024  11.949   2.466  11.389 -0.1960 -0.2211  0.1995
12216W        W28025  15.328  17.581   3.598  0.0581 -0.0549  0.3011
12217W        W28026   1.484   7.975   2.209  0.1681  0.2193 -0.0010
12218W        W28027  12.810   0.188  13.769 -0.0310 -0.0094  0.1857
12219W        W28028  16.407  14.338  14.375 -0.3114 -0.3109  0.1411
12220W        W28029   8.655   7.517   4.721  0.0699  0.1727  0.2893
12221W        W28030   3.103  12.314  13.597  0.3092  0.2385 -0.2944
12222W        W28031   3.090   4.005  11.975  0.0031  0.4602  0.4122
12223W        W28032  14.722  13.972  15.171 -0.0707 -0.1600 -0.0611
12224W        W28033  17.923   9.649  13.834  0.2705  0.1686  0.2974
12225W        W28034   5.009   1.983  11.648  0.1950  0.1418 -0.2495
12226W        W28035   3.987   2.272  12.871 -0.0983 -0.2998  0.0815
12227W        W28036  14.742   2.961  14.142 -0.0587 -0.1041  0.1311
12228W        W28037  14.421  15.357  14.825 -0.2591  0.0318  0.0606
12229W        W28038  16.400  18.319   3.750  0.1978 -0.0382  0.0540
12230W        W28039   2.080  15.397  14.311 -0.0665  0.0272 -0.0767
12231W        W28040   6.887   3.461   1.959  0.1098  0.1847 -0.2944
12232W        W28041   2.475   4.170  10.657 -0.0636 -0.1714 -0.0808
12233W        W28042  18.448   5.005  11.340  0.3764 -0.2981  0.0419
12234W        W28043   7.128   4.663  10.114 -0.2257  0.0985  0.2893
12235W        W28044   9.439   9.617   2.658 -0.1504 -0.2741 -0.2985
12236W        W28045   4.580  11.266   1.562  0.0123  0.1192  0.2058
12237W        W28046   1.253  11.818   3.371 -0.0526  0.0820  0.1915
12238W        W28047   8.246   7.113   1.656 -0.2419 -0.0669 -0.3773
12239W        W28048   0.230   6.639  14.559  0.1234  0.2585  0.2005
12240W        W28049  18.723   2.028   4.652 -0.1833 -0.2059  0.0926
12241W        W28050  13.486  14.206   3.308 -0.0760  0.2471 -0.2150
12242W        W28051  14.731   0.751  12.925  0.1344  0.0641 -0.0649
12243W        W28052   6.740   7.398  13.590  0.0730  0.0086  0.1741
12244W        W28053  17.936   5.598   2.350 -0.0117 -0.2125  0.2902
12245W        W28054   9.841  14.965  12.706  0.4497 -0.2461  0.1055
12246W        W28055   0.954   0.728   3.031  0.1271 -0.1434  0.1569
12247W        W28056   0.269  11.925   0.557 -0.1281  0.0852 -0.1723
12248W        W28057   6.585   9.930   1.818 -0.0560 -0.2349  0.0231
12249W        W28058   8.560   0.868  13.112  0.5133 -0.0085 -0.1768
12250W        W28059   9.511   3.105  13.323  0.0064  0.0201  0.0419
12251W        W28060  17.631  12.678  11.471 -0.0437 -0.1803 -0.2790
12252W        W28061   1.682   8.378   1.169  0.0603  0.0359  0.0359
12253W        W28062   2.639  11.572   4.657 -0.1507 -0.2260 -0.0922
12254W        W28063   6.865   2.472  11.035  0.3444 -0.2638  0.3726
12255W        W28064  12.590  10.742   5.328  0.0768 -0.1709  0.1821
12256W        W28065   3.203  15.648   4.966  0.1859 -0.0702 -0.0463
12257W        W28066   5.528   0.847   2.606 -0.1014  0.0920 -0.1643
12258W        W28067   8.529   1.938   4.042  0.0667 -0.1186 -0.0358
12259W        W28068  16.623   8.058  10.827  0.2869  0.0403 -0.0369
12260W        W28069   5.491  12.387   2.291  0.2705 -0.0344 -0.0213
12261W        W28070  16.059   9.101   2.933 -0.1996  0.2809  0.1636
12262W        W28071   6.402  17.208  12.380  0.0412  0.0009  0.2615
12263W        W28072  11.953   6.648   0.777  0.2120  0.1159  0.0268
12264W        W28073   8.904   0.514   0.071 -0.1839  0.0553 -0.3380
12265W        W28074  18.020   7.799  14.422  0.0495  0.0251  0.2569
12266W        W28075  13.256  15.962  12.834  0.1618  0.0730 -0.3577
12267W        W28076   2.711  16.295  12.591  0.3056 -0.1921  0.0752
12268W        W28077   7.502   4.358  13.300 -0.1206 -0.0346  0.2411
12269W        W28078   2.321   0.573   2.128 -0.2046 -0.2482  0.0585
12270W        W28079  17.887  17.374   0.477 -0.3061 -0.1079  0.1261
12271W        W28080  10.286   8.907  12.509 -0.0493  0.2025  0.1489
12272W        W28081   4.350   9.177   3.198 -0.1044 -0.0124 -0.3814
12273W        W28082  15.884   8.525  10.679 -0.0344 -0.0094 -0.3082
12274W        W28083   2.928  15.266   0.689  0.0050  0.0688  0.0028
12275W        W28084   9.311   1.669  12.103  0.0493  0.0664  0.0847
12276W        W28085  10.377  11.784   9.998  0.0105 -0.1328  0.2331
12277W        W28086   5.652  15.712   3.005  0.2537  0.1084 -0.0531
12278W        W28087  18.304   2.403   0.425  0.1531 -0.0880 -0.0211
12279W        W28088   5.617  18.094   2.396  0.0056  0.1721  0.2179
12280W        W28089   3.445   8.998   2.195 -0.0807  0.2653 -0.2173
12281W        W28090   4.559  13.670  12.530 -0.1480  0.0880  0.0994
12282W        W28091   1.680  18.288  13.577  0.1255 -0.0035 -0.1821
12283W        W28092  15.211   3.806   3.895 -0.2470  0.4424 -0.3966
12284W        W28093  17.580  13.617   3.741 -0.2460 -0.2547  0.0271
12285W        W28094   9.615   5.567  10.769  0.4203  0.0398 -0.1557
12286W        W28095   8.414   7.258   3.104  0.2344  0.2035  0.1681
12287W        W28096   1.237  12.691   2.336 -0.0142 -0.3434  0.2342
12288W        W28097   7.088   8.179  12.239  0.1628  0.0199  0.0908
12289W        W28098   0.954   3.759   3.921  0.0406  0.3296  0.0768
12290W        W28099  17.076   9.629  13.851 -0.2165 -0.3059  0.0102
12291W        W28100   7.352  15.859   4.550  0.1826 -0.0170  0.1384
12292W        W28101   8.774   4.700   5.733  0.0101  0.0902 -0.0679
12293W        W28102   8.625  13.206  10.899  0.3174 -0.2101  0.1970
12294W        W28103  16.519  11.379  14.434  0.1694 -0.0295 -0.1961
12295W        W28104  18.255   1.872   1.188 -0.1438  0.1890  0.2815
12296W        W28105   4.643   6.426  13.579 -0.0783  0.1196  0.0727
12297W        W28106  11.793  15.754  14.869  0.1924  0.3150  0.0213
12298W        W28107  15.575   7.661   4.389 -0.1510 -0.1663  0.2098
12299W        W28108   8.935   0.082   5.013 -0.0168  0.0732  0.3478
12300W        W28109   1.195   3.416  12.884  0.0367  0.1773 -0.0091
12301W        W28110  16.660   1.295  10.144  0.2555  0.2547 -0.0304
12302W        W28111   0.677  13.265   0.131  0.2187 -0.1971  0.1477
12303W        W28112   0.623   5.132  14.397 -0.2207 -0.3234  0.2197
12304W        W28113  13.470   4.132   4.759  0.0186 -0.2348 -0.0441
12305W        W28114   3.585  17.003   2.101 -0.0197 -0.2436 -0.3034
12306W        W28115   1.799  17.866   0.815  0.1693 -0.0290  0.0058
12307W        W28116   7.014   1.611  13.627 -0.1855  0.0351  0.1348
12308W        W28117   2.659  10.361  14.202  0.5473 -0.2055  0.0400
12309W        W28118  17.597  17.329   3.180 -0.1951 -0.1071 -0.0375
12310W        W28119  12.060  17.925   9.943  0.0691  0.0178 -0.3463
12311W        W28120   2.204   5.029   1.995  0.2667 -0.1599 -0.1920
12312W        W28121   6.198   8.732  12.352  0.1679  0.2600 -0.3541
12313W        W28122   4.247   1.185  12.129 -0.2688 -0.1578  0.5468
12314W        W28123   2.382   4.669   2.897  0.3780  0.0516  0.2300
12315W        W28124   6.258   4.089  14.830 -0.1145  0.0320  0.2927
12316W        W28125  17.939  11.544   4.514 -0.1951 -0.2443  0.0262
12317W        W28126  19.051  12.526  13.794  0.2288 -0.1368 -0.2630
12318W        W28127  15.156   6.044  15.015 -0.2183  0.0890 -0.0349
12319W        W28128   4.382  11.249  11.376  0.1040  0.2960 -0.0391
12320W        W28129  15.034   0.785  10.778  0.3074 -0.1528  0.0358
12321W        W28130  11.427   6.220  12.295  0.1787 -0.0561  0.2258
12322W        W28131  14.568  10.455  14.042 -0.2955 -0.1803  0.1307
12323W        W28132   2.213  15.879  14.233  0.2684  0.0961  0.2764
12324W        W28133   3.845   3.866   4.705 -0.2684  0.1888 -0.4188
12325W        W28134  13.969  14.318   4.385  0.1707  0.0924 -0.0706
12326W        W28135  16.220  18.711  13.238 -0.0594 -0.1660  0.3065
12327W        W28136  12.843  10.727   1.237  0.0063  0.3154 -0.2653
12328W        W28137   4.983   1.317   2.081 -0.2099 -0.2705  0.0082
12329W        W28138   2.013  11.932   1.428  0.0942  0.0404  0.3979
12330W        W28139  12.505   0.647  11.773 -0.1403  0.2167 -0.2497
12331W        W28140   2.679   2.544  14.154 -0.2083  0.0764  0.2638
12332W        W28141   0.002  11.861  13.161  0.1965 -0.0180 -0.0231
12333W        W28142   2.842  10.313   3.267 -0.2081  0.2857 -0.0713
12334W        W28143   0.904   4.990  14.054 -0.0966  0.0693  0.0472
12335W        W28144  17.886  14.804  11.566  0.3311 -0.3980  0.0064
12336W        W28145  11.510   1.962  12.869 -0.0517  0.1304  0.0764
12337W        W28146  14.771  15.957   2.000  0.1886  0.1340  0.1614
12338W        W28147   2.232  15.574  12.978  0.1583  0.2361  0.0515
12339W        W28148   6.089  18.767  12.494 -0.3404  0.1924 -0.1283
12340W        W28149  12.678   6.659   1.698  0.1663 -0.1438 -0.2004
12341W        W28150  15.237  14.721   1.154 -0.1107 -0.1000 -0.2711
12342W        W28151   4.106  17.539  12.662  0.3226 -0.1969 -0.0936
12343W        W28152   1.197  10.186  11.423 -0.2703 -0.2244 -0.5355
12344W        W28153  17.982   3.352  12.283  0.4893 -0.0221 -0.1492
12345W        W28154  13.393   3.638   0.183 -0.0593  0.2993 -0.0220
12346W        W28155   6.931  18.587  11.232  0.0383 -0.0801  0.0647
12347W        W28156  11.410  16.774   0.437 -0.3468 -0.1361 -0.2266
12348W        W28157   7.307   4.906  11.722 -0.0511 -0.0450  0.0198
12349W        W28158  12.192  16.217  13.729 -0.3550  0.1626 -0.1200
12350W        W28159   2.725  16.882   2.044 -0.1614  0.4239 -0.2169
12351W        W28160   0.792   9.465   2.084 -0.0524  0.1958 -0.3799
12352W        W28161   4.683   0.128   5.499 -0.1928 -0.0920 -0.0843
12353W        W28162   2.469  16.363  11.199  0.1653  0.1291  0.2786
12354W        W28163   7.972  17.199   4.577  0.2326  0.2031 -0.2062
12355W        W28164   0.573   7.954   4.491 -0.3191 -0.1068 -0.1115
12356W        W28165  12.858  12.788   4.924 -0.0273 -0.0349 -0.0615
12357W        W28166   6.610  17.700  14.902 -0.2560  0.1753 -0.1816
12358W        W28167  14.294  15.224  11.237 -0.2009 -0.3214 -0.2036
12359W        W28168  10.951  14.160  14.390 -0.1904  0.1709  0.0628
12360W        W28169  12.508   0.265  13.344 -0.0098 -0.2093 -0.2790
12361W        W28170  13.692   1.729  13.536 -0.3486  0.3897 -0.0622
12362W        W28171  18.625  14.967  14.048 -0.2536  0.1799 -0.0609
12363W        W28172  15.260  11.903  14.031 -0.1500  0.0249  0.0314
12364W        W28173  17.118   4.976  10.913  0.1761  0.2305 -0.0528
12365W        W28174   4.646   6.075   3.340 -0.2934 -0.0827  0.0101
12366W        W28175  15.047   9.849  14.312 -0.0232 -0.1538  0.0785
12367W        W28176   5.988  15.176  14.656  0.2428 -0.1605  0.1025
12368W        W28177   1.208  16.742  12.287  0.0655  0.0182  0.5673
12369W        W28178   9.230   2.339  14.372  0.1160  0.0657 -0.0635
12370W        W28179   6.175  17.144   3.387  0.0746  0.1225  0.0558
12371W        W28180   7.434  15.278   1.645 -0.0252  0.2269  0.0412
12372W        W28181   4.515  10.365  11.589 -0.1555  0.1326 -0.1929
12373W        W28182   4.455  15.972   4.498  0.2070 -0.2018  0.3331
12374W        W28183  14.882   8.630   3.054  0.1978  0.0595  0.2500
12375W        W28184   3.221  15.023  10.453 -0.1737  0.2781  0.2591
12376W        W28185  14.373   4.381  11.524  0.2125 -0.1025 -0.1219
12377W        W28186  14.184  12.788  13.569  0.1573 -0.2706 -0.0788
12378W        W28187  18.478  11.628   3.948  0.0054 -0.3449 -0.2908
12379W        W28188  15.780   4.462  10.898  0.0349  0.0111  0.1446
12380W        W28189   4.170  17.491  12.207 -0.3072  0.0732 -0.3612
12381W        W28190   8.696   8.810  13.154 -0.0633 -0.1543 -0.0217
12382W        W28191  16.476  12.121   0.777 -0.2301 -0.1874 -0.2938
12383W        W28192   1.448   5.854  13.131  0.0994 -0.2587  0.2322
12384W        W28193  12.496  17.675  15.118 -0.0305  0.0866 -0.0634
12385W        W28194  11.322  12.586   1.636  0.0971 -0.2782 -0.0209
12386W        W28195  10.020  17.028  10.915 -0.0646 -0.0091 -0.0518
12387W        W28196  13.605  13.045   5.531 -0.0293  0.0596 -0.0790
12388W        W28197  13.451   2.507   5.077  0.1256 -0.2709  0.1323
12389W        W28198  11.246   3.426   3.039  0.0154 -0.1559 -0.0946
12390W        W28199   8.515  18.940  12.235 -0.1960  0.2953 -0.0870
12391W        W28200   3.846   9.129  12.401  0.2573 -0.0615  0.1157
12392W        W28201   1.854   1.574  12.853  0.0485  0.3757 -0.2458
12393W        W28202  18.076   8.102   9.888  0.1515 -0.0685  0.2305
12394W        W28203  14.639   6.889  12.874 -0.0170  0.0227  0.3287
12395W        W28204   0.453  10.562  11.748  0.2142 -0.0786  0.2574
12396W        W28205   9.344   8.772  14.288 -0.1311 -0.0315 -0.3036
12397W        W28206  12.313  13.280   0.791 -0.0758 -0.0274  0.0170
12398W        W28207   1.445  14.201   2.374 -0.1941 -0.0855  0.0749
12399W        W28208  12.701  17.048  10.784 -0.1123 -0.0367 -0.1977
12400W        W28209  17.049   1.070  14.519  0.2021 -0.2080  0.1190
12401W        W28210   5.690  15.194   4.856  0.3349  0.0489  0.2617
12402W        W28211   4.882   0.339  14.282 -0.0448 -0.1324  0.0537
12403W        W28212   0.692  13.532   5.602  0.2066  0.4557  0.1389
12404W        W28213   7.664  14.346  12.681 -0.0903 -0.2880 -0.1065
12405W        W28214  18.875  14.447   1.742 -0.3311 -0.2721 -0.0178
12406W        W28215   7.716  18.080  12.105 -0.0530 -0.1528 -0.1288
12407W        W28216   6.569   5.656  13.237 -0.2351 -0.4310 -0.3348
12408W        W28217  14.711  17.768   3.869  0.0291 -0.0596  0.0577
12409W        W28218   5.540   2.186  13.181 -0.1322  0.1600 -0.1497
12410W        W28219   4.100  14.955   3.301  0.0677 -0.0060  0.1001
12411W        W28220   5.713  16.185  14.351  0.1085  0.2767  0.0898
12412W        W28221   9.879   6.229   1.967  0.1573 -0.1650 -0.1265
12413W        W28222  14.298   0.234   3.783 -0.3381  0.0471  0.1845
12414W        W28223  14.929   3.819  10.359 -0.2340 -0.0526  0.0216
12415W        W28224  13.515   4.299   3.331  0.3673 -0.3475 -0.1914
12416W        W28225  13.320  15.210  14.235  0.1620 -0.3408 -0.1040
12417W        W28226   9.000   3.527  14.088  0.1108 -0.4390  0.2181
12418W        W28227   8.135   4.608   4.804  0.1412 -0.0544 -0.0971
12419W        W28228   8.505   5.674   4.889  0.0261 -0.1222  0.3728
12420W        W28229  16.575   4.991  14.753 -0.0500 -0.0514 -0.1867
12421W        W28230  13.198  18.511   2.436  0.2757 -0.3264 -0.1249
12422W        W28231   8.862  15.721   0.353  0.2200  0.2196 -0.5940
12423W        W28232  16.174  17.938  12.623 -0.1576 -0.0648  0.1035
12424W        W28233   5.126   8.308   4.720 -0.2570  0.4952  0.2341
12425W        W28234   6.902   4.260   0.572 -0.0393 -0.1657  0.0008
12426W        W28235  17.800   6.779  14.347  0.3727 -0.4496  0.0233
12427W        W28236   5.089   3.189   3.717 -0.0974  0.2750  0.0546
12428W        W28237  15.532   4.308  15.011  0.2496  0.1545  0.5132
12429W        W28238  10.506   8.796  10.558  0.2259  0.1287 -0.0418
12430W        W28239   6.768  17.340   4.269  0.1291 -0.4360 -0.0265
12431W        W28240   9.064  14.141  12.187 -0.0959  0.1684  0.2692
12432W        W28241   1.615  14.342  10.771 -0.2526 -0.2508 -0.2074
12433W        W28242  15.944   0.447   1.124  0.1700  0.4733  0.0016
12434W        W28243  17.280  10.792   0.779 -0.1874 -0.2497  0.1096
12435W        W28244  13.505  10.009   3.835 -0.0572 -0.1131  0.1664
12436W        W28245   2.564  11.161  14.707  0.0384  0.0225 -0.0038
12437W        W28246  10.719  10.089  11.764 -0.3190 -0.0846 -0.3363
12438W        W28247  11.779   8.958   2.299 -0.1441  0.1986 -0.1851
12439W        W28248   0.634   0.463   4.815 -0.1191 -0.0639  0.3163
12440W        W28249   0.836   2.081   3.829 -0.2412 -0.2341  0.0144
12441W        W28250   3.278   7.685   0.133  0.2337  0.3203 -0.1281
12442W        W28251  10.176   2.371  11.226  0.0967 -0.1076  0.0462
12443W        W28252   9.420  12.851   3.238  0.1244  0.0223 -0.1037
12444W        W28253  11.523   9.963   0.486  0.0368  0.1577 -0.0023
12445W        W28254  10.967   7.299  15.270  0.0952  0.0191  0.3032
12446W        W28255   2.092   8.611   1.054  0.0391  0.1093  0.2218
12447W        W28256   3.608   9.965  11.248  0.1716  0.3239 -0.0731
12448W        W28257   1.644  17.195  12.861 -0.2237  0.3815 -0.3629
12449W        W28258   3.164   1.192  12.396 -0.0914  0.1653 -0.1237
12450W        W28259   9.335   5.071  15.174 -0.2503  0.0639  0.1105
12451W        W28260   5.361   3.111   0.989 -0.1447  0.2688  0.5312
12452W        W28261   3.109   2.971  14.918  0.1834 -0.0645  0.1606
12453W        W28262  10.372   1.742  14.017 -0.0023 -0.0139  0.0510
12454W        W28263   3.238  16.542   2.646  0.0567  0.0243 -0.1755
12455W        W28264  13.782   3.090  14.660  0.1406  0.1335 -0.0690
12456W        W28265  12.160  14.973   3.910  0.0553 -0.2385 -0.0182
12457W        W28266   4.034  17.560  14.212 -0.1412 -0.1564 -0.1119
12458W        W28267  10.016  18.927  11.208  0.4279 -0.1505 -0.2987
12459W        W28268   5.611   2.113   3.982  0.0257 -0.0259  0.4663
12460W        W28269   5.679   8.611   3.767 -0.1734 -0.0612 -0.1483
12461W        W28270   2.201   0.868   3.142  0.0977  0.1417 -0.1046
12462W        W28271   0.933   0.947   2.535  0.0227 -0.1090 -0.0881
12463W        W28272  12.651  16.653  15.147  0.1520 -0.3644 -0.1457
12464W        W28273   4.362   8.060  13.538 -0.0399 -0.0070  0.0627
12465W        W28274   2.621   4.153   0.963  0.1237 -0.0617 -0.1912
12466W        W28275  16.393  10.684   4.370  0.0472  0.0450  0.1543
12467W        W28276   3.430   6.399  14.794  0.1114 -0.1046 -0.0521
12468W        W28277  12.144  18.743   0.210 -0.0081  0.0747  0.2417
12469W        W28278  11.362   4.791   4.001 -0.2106  0.3714 -0.0223
12470W        W28279   4.805  12.155  14.651  0.0968  0.2890 -0.1426
12471W        W28280   4.779  15.123  12.038  0.0574  0.1774 -0.1057
12472W        W28281   6.892  12.839   1.097  0.1425 -0.2701 -0.1089
12473W        W28282   5.195   8.268   4.178 -0.0162 -0.1945 -0.2076
12474W        W28283  13.169   3.567  14.168  0.0715  0.2803 -0.1825
12475W        W28284   4.970   7.552   0.068  0.2435  0.1695  0.0099
12476W        W28285  14.071  11.613  14.398  0.0712 -0.2588  0.4201
12477W        W28286  14.451  16.333   4.448  0.0739  0.1593 -0.1168
12478W        W28287  16.655   6.066   2.107  0.0692  0.4369 -0.1820
12479W        W28288   2.571   9.328   1.930  0.2279 -0.1306  0.2899
12480W        W28289   5.624  11.651   4.570  0.2726 -0.2367 -0.1421
12481W        W28290   9.988  16.206   3.679 -0.0633  0.3115  0.0347
12482W        W28291  18.862  11.777   1.336 -0.1121  0.2204 -0.2686
12483W        W28292   2.591   3.570   3.265  0.1137  0.2214  0.2370
12484W        W28293   4.239   3.805  14.937  0.2414  0.0017 -0.0958
12485W        W28294  15.236  17.449   0.714 -0.2893  0.1335 -0.4145
12486W        W28295   1.973  16.114   1.250 -0.0697 -0.1724 -0.1396
12487W        W28296  18.073  14.364  10.994  0.3427  0.1840  0.1208
12488W        W28297  16.751   2.373  11.615  0.0998  0.0240 -0.0288
12489W        W28298   3.282   6.915  13.538 -0.1081  0.0078  0.3423
12490W        W28299   0.780  18.713  13.711  0.0982  0.0577 -0.2017
12491W        W28300   2.505   9.421   2.529  0.5115 -0.1867 -0.1797
12492W        W28301  14.678   1.200  10.963  0.3864  0.2513 -0.0802
12493W        W28302   4.945   2.619  14.683 -0.2895  0.2470 -0.1214
12494W        W28303  10.193   9.114  13.781  0.1394 -0.2761  0.3104
12495W        W28304  15.051  13.503  11.164  0.0698  0.1836 -0.3533
12496W        W28305   4.424   0.826   2.453 -0.3011 -0.1265  0.1295
12497W        W28306  14.605  18.277  13.826  0.0646  0.0784 -0.2064
12498W        W28307   7.991   2.342   2.381 -0.2990  0.5208 -0.1750
12499W        W28308   2.907  16.818   4.785  0.0952 -0.0096 -0.1257
12500W        W28309   1.949   0.934   0.845  0.0402  0.3449 -0.1516
12501W        W28310  15.544   9.548   2.993 -0.0015 -0.0597 -0.0813
12502W        W28311  10.005  16.775  10.523  0.1936 -0.0756 -0.0069
12503W        W28312   9.129  15.811  11.561 -0.0056  0.1552  0.1254
12504W        W28313   8.821   3.156   1.774 -0.0502 -0.1495 -0.2547
12505W        W28314  15.981   4.323   0.277  0.1431 -0.0718  0.0151
12506W        W28315  11.658  15.968  11.171  0.2643  0.1560  0.1830
12507W        W28316  14.778   9.529  12.239  0.4187 -0.1337  0.0166
12508W        W28317   2.186   7.643  10.745  0.0619 -0.2718 -0.1537
12509W        W28318  14.939   0.329  13.681  0.1108  0.0025  0.1814
12510W        W28319   0.990  15.994   1.330 -0.0073  0.2464  0.1295
12511W        W28320   0.866  19.029  14.716 -0.5348 -0.0472 -0.1633
12512W        W28321   7.089  13.933   1.397 -0.0969  0.1039 -0.3488
12513W        W28322   9.687  17.110  13.747  0.1489  0.2747  0.0675
12514W        W28323  14.287   6.152  10.984 -0.2071 -0.4255 -0.3526
12515W        W28324   4.143  13.764   1.660  0.0166  0.0938  0.2368
12516W        W28325   7.194   4.132  14.420 -0.1692  0.0102  0.1677
12517W        W28326  13.177   2.837  13.063 -0.0624  0.2810  0.2441
12518W        W28327   8.609   4.871   5.333  0.1300  0.3888  0.0325
12519W        W28328  12.393  17.982  10.355 -0.2188 -0.0964 -0.2658
12520W        W28329   7.015   3.820   4.561  0.0201 -0.2304 -0.0139
12521W        W28330  14.668  14.588   4.743  0.1322 -0.1311  0.1310
12522W        W28331   3.460   0.599  13.644  0.0548  0.1197 -0.1045
12523W        W28332   0.104   2.917  10.314  0.2181  0.0608 -0.0248
12524W        W28333   7.885  10.862   3.940  0.3639  0.2569 -0.0672
12525W        W28334  10.054  18.298   2.740  0.0442  0.2142  0.3218
12526W        W28335  15.333   4.644   2.399 -0.3976  0.1765 -0.3094
12527W        W28336  13.137   1.851  13.498  0.3090  0.0862  0.1325
12528W        W28337   5.266   6.289  11.223 -0.4061 -0.4752 -0.1494
12529W        W28338  15.813   0.333  14.467 -0.1801 -0.0222  0.3070
12530W        W28339   0.986  12.758   4.847 -0.1083 -0.0359 -0.2182
12531W        W28340  13.231  15.481   4.553 -0.0965  0.1420  0.0502
12532W        W28341   4.716   2.192   9.699 -0.1904  0.3277 -0.0640
12533W        W28342   5.332   5.781  11.325 -0.1750 -0.1239  0.0349
12534W        W28343   9.500  14.042   3.691 -0.1658  0.2073  0.1215
12535W        W28344  16.283   9.500   2.392 -0.2415 -0.0640  0.3978
12536W        W28345  13.223   2.079   2.241 -0.0368  0.0909  0.0038
12537W        W28346   0.990   5.127   4.359 -0.0507  0.0318  0.0977
12538W        W28347   5.548  19.105   9.494 -0.0792 -0.0411 -0.0764
12539W        W28348  12.088  15.544  14.403  0.1551  0.1709  0.0192
12540W        W28349   9.966   0.392  13.750  0.3241  0.1245 -0.0791
12541W        W28350  11.161   5.857   3.317  0.3585  0.1285  0.0333
12542W        W28351   4.755   1.490  13.144 -0.0530  0.1299 -0.3939
12543W        W28352  18.989   7.325  12.942 -0.1239 -0.0694  0.0415
12544W        W28353   1.238  15.149  14.271  0.0155 -0.1075 -0.2665
12545W        W28354   6.826   9.518  14.486  0.0837  0.1037  0.0431
12546W        W28355   0.205  14.657   4.964  0.0513 -0.3625 -0.1805
12547W        W28356   2.022  14.106   2.232 -0.2363  0.1717 -0.0747
12548W        W28357   9.714  14.261  13.918 -0.0306 -0.0509 -0.0775
12549W        W28358  17.468  11.725  11.827  0.1142  0.0694  0.0530
12550W        W28359   8.651  11.025  11.666  0.0470  0.0193 -0.4076
12551W        W28360   6.739   4.404  13.102 -0.1069 -0.0481  0.0946
12552W        W28361   8.439  11.932  12.494 -0.0857 -0.3838 -0.0365
12553W        W28362  18.256   1.171   3.040 -0.0147 -0.2688 -0.3446
12554W        W28363   6.014   9.155   2.658  0.4530 -0.2189  0.4397
12555W        W28364  10.458   2.270   1.815  0.0500 -0.0666  0.3019
12556W        W28365  12.897   2.693   4.654 -0.2305 -0.4142 -0.0741
12557W        W28366  17.979  17.365  12.807  0.0992 -0.1647 -0.2036
12558W        W28367   4.850  13.326   3.011  0.3247  0.0825  0.1385
12559W        W28368   4.139  13.765  12.205  0.1826  0.0976 -0.1050
12560W        W28369  18.985  15.020  14.347  0.4056 -0.0638  0.1465
12561W        W28370  13.729   4.047  13.173 -0.2018 -0.1378  0.0312
12562W        W28371   9.573   8.183  12.242  0.1403 -0.0554  0.1882
12563W        W28372  16.243  16.338   0.442  0.2886 -0.0404 -0.0246
12564W        W28373   6.981   6.360  10.321 -0.2622 -0.1709  0.2061
12565W        W28374   8.722   7.609  14.793  0.2613  0.1390 -0.1105
12566W        W28375   4.105   2.007   2.823 -0.2558  0.0637 -0.0135
12567W        W28376   0.224  12.927   1.826 -0.0940  0.2657  0.1588
12568W        W28377   0.148   8.387   0.300 -0.0804 -0.2105  0.3463
12569W        W28378   0.086   1.226   2.882 -0.1481 -0.0181 -0.0406
12570W        W28379  12.421   4.760   3.724  0.0095  0.2383 -0.1438
12571W        W28380  17.069  17.767   2.474 -0.0626  0.1188  0.1116
12572W        W28381  12.063   0.936  11.062  0.0039 -0.0149  0.3283
12573W        W28382   8.385   3.695  12.889  0.2227 -0.5447 -0.0407
12574W        W28383  18.966  11.242  13.633  0.0064  0.2167 -0.2449
12575W        W28384   1.037   4.338   1.507 -0.2672  0.0917  0.0768
12576W        W28385  10.976   0.739   1.377 -0.0482  0.0255  0.0116
12577W        W28386  10.834  15.278  14.526 -0.1250  0.2555 -0.1358
12578W        W28387  16.303  10.211  11.021  0.1054  0.0718 -0.2811
12579W        W28388  13.738   0.209  10.820 -0.1846 -0.2619  0.3091
12580W        W28389  10.282   6.520   4.466  0.0409 -0.1961  0.3367
12581W        W28390  10.371   9.689   0.471  0.0833 -0.2081 -0.0044
12582W        W28391  11.802  13.992  13.453 -0.2011 -0.5239 -0.0171
12583W        W28392   8.575   6.121   1.335  0.0024 -0.0771  0.1529
12584W        W28393   4.497   5.763   5.480 -0.1377 -0.0027  0.1240
12585W        W28394   1.744  13.688  12.070  0.1592  0.0217  0.0128
12586W        W28395   1.999   5.846   9.870 -0.0639  0.0704  0.0267
12587W        W28396  17.369  18.638  15.158 -0.1440  0.0782  0.4248
12588W        W28397  10.492   8.831  11.063  0.0197 -0.1589  0.5433
12589W        W28398   9.277   1.274  13.897  0.1173  0.1354 -0.1822
12590W        W28399   0.502  19.088   3.607  0.1765  0.0967  0.0528
12591W        W28400   7.532  15.205  13.226 -0.3127  0.0207  0.2909
12592W        W28401   5.360  14.261  11.621 -0.1586  0.3709 -0.2362
12593W        W28402   5.642   0.219   1.684 -0.0622 -0.0549  0.0430
12594W        W28403  19.079   2.224   1.405  0.0713 -0.1290  0.1504
12595W        W28404  14.958  14.458   3.295  0.3232 -0.0360  0.1580
12596W        W28405   7.921  13.416  11.433  0.0880 -0.1183  0.1104
12597W        W28406  11.394  10.291  13.116  0.1203  0.2507  0.0294
12598W        W28407  11.176   8.503   4.958 -0.0626 -0.0616  0.5298
12599W        W28408   5.751   9.613   1.172  0.1622 -0.0583  0.0717
12600W        W28409  15.445   9.361   4.025  0.3130  0.0168  0.0767
12601W        W28410   3.551  15.421   1.556  0.0176 -0.1311  0.1792
12602W        W28411   5.304  15.054   2.340  0.2129  0.1490 -0.2050
12603W        W28412  11.228   7.801  13.921  0.1487 -0.0674 -0.1602
12604W        W28413   4.823   2.728   3.956  0.0356 -0.0643  0.2760
12605W        W28414   6.135   5.091  13.054 -0.2977  0.2571  0.1139
12606W        W28415  12.132   6.788  12.343  0.1474  0.0742 -0.0870
12607W        W28416  18.842  14.574  14.451 -0.0696  0.3264 -0.0298
12608W        W28417   7.849   2.030  13.457  0.1537 -0.1393 -0.3030
12609W        W28418   2.384   6.468  12.740  0.3193 -0.2221  0.1316
12610W        W28419  15.306  14.887   4.755  0.0631 -0.1576  0.0150
12611W        W28420  11.297   9.490   4.534  0.3733  0.0978 -0.0497
12612W        W28421   1.548   5.952   5.682 -0.0012 -0.1512 -0.0730
12613W        W28422  19.126   5.574  11.116  0.2349  0.0404 -0.0006
12614W        W28423   5.304   4.931  13.991  0.2227  0.2003  0.2204
12615W        W28424  11.033   5.217  11.243 -0.0105  0.0350 -0.1186
12616W        W28425  16.400   3.409  14.010  0.0502  0.1651 -0.0264
12617W        W28426  15.085  12.576  14.804  0.2318  0.1110 -0.2777
12618W        W28427   8.353   3.726  10.364  0.1678  0.0112 -0.1269
12619W        W28428   2.472  10.327  12.635  0.1862 -0.1268  0.4069
12620W        W28429  16.361   5.307  14.128  0.1141 -0.2686  0.0699
12621W        W28430   8.388  15.434  13.439  0.0318 -0.1645  0.3710
12622W        W28431  15.100   3.339  14.638 -0.2277 -0.2428 -0.7825
12623W        W28432  11.076  14.798  13.672 -0.1866  0.1186  0.1035
12624W        W28433   1.087   3.009  13.350  0.2091 -0.2305 -0.2361
12625W        W28434  11.580  11.636   1.868 -0.2144 -0.0973 -0.0663
12626W        W28435   9.931  16.054  14.557 -0.0029 -0.0331  0.2538
12627W        W28436   1.582  16.608  11.291  0.1707  0.0803  0.0761
12628W        W28437   4.884  16.201   4.952 -0.2466 -0.2558  0.0661
12629W        W28438  12.116   8.720  12.545  0.0886  0.1387  0.0850
12630W        W28439   8.957   7.302   0.533 -0.1173  0.0671  0.5665
12631W        W28440   4.306  11.868   1.556 -0.1295  0.0438  0.0720
12632W        W28441  17.848   0.979  12.708  0.0301  0.1397  0.3007
12633W        W28442   3.515  15.552  10.922  0.3348 -0.2544 -0.3746
12634W        W28443  12.435  14.281  10.503 -0.3680  0.0400 -0.1547
12635W        W28444   3.717  15.787   3.540  0.1808  0.1787  0.0047
12636W        W28445  10.733  11.664   0.589  0.2019 -0.0058 -0.0593
12637W        W28446  14.190  13.920   1.182  0.3019 -0.0535 -0.4060
12638W        W28447   2.241   2.545   1.332  0.1172  0.2776 -0.2468
12639W        W28448  16.163   5.899  12.538 -0.1376  0.2340  0.1126
12640W        W28449  13.857  10.908  12.343  0.2101  0.0649 -0.0258
12641W        W28450  12.083  14.352   2.091 -0.1514 -0.0175 -0.2321
12642W        W28451  13.642   1.598   3.881 -0.3182  0.0210  0.2830
12643W        W28452   5.890  10.273   2.933  0.2432 -0.0313  0.0723
12644W        W28453  15.204  13.781  13.078  0.6547 -0.1856  0.0917
12645W        W28454   4.395  12.605  14.295  0.0519  0.0582 -0.2179
12646W        W28455  18.353   9.375   0.081  0.0135  0.3381  0.1156
12647W        W28456   6.380  18.013  10.789 -0.0557  0.0602  0.1149
12648W        W28457  18.163   0.448   5.544 -0.0366  0.0058  0.3654
12649W        W28458  10.537   4.943  11.809 -0.3336 -0.1051  0.1126
12650W        W28459   8.731  12.405  14.756 -0.0772  0.1835 -0.0552
12651W        W28460   5.715   8.882  10.822  0.1203 -0.2581  0.3239
12652W        W28461   2.455   4.695  15.153 -0.1064  0.2425 -0.0102
12653W        W28462  12.157  11.483   5.089  0.2388  0.0285  0.0138
12654W        W28463  16.076  15.115   4.110  0.1602  0.0310 -0.1472
12655W        W28464  16.735  18.105   1.798  0.0306 -0.2488  0.1571
12656W        W28465  19.122  18.293  11.446 -0.2046 -0.0562 -0.0985
12657W        W28466   6.010   5.336   0.676 -0.4255  0.1446 -0.1209
12658W        W28467   7.324   3.975   0.629  0.0609  0.0502 -0.2736
12659W        W28468  13.994  16.339   1.129  0.3508  0.1363  0.1205
12660W        W28469  11.599  16.665   4.925 -0.2441  0.1567  0.3547
12661W        W28470   7.819   3.463  13.659 -0.1424  0.2247  0.0623
12662W        W28471  17.506   0.669  13.336  0.0698  0.1421 -0.3514
12663W        W28472   6.599   9.551   3.306  0.2660 -0.0082 -0.1793
12664W        W28473   2.605  11.151  12.087 -0.0950  0.1274 -0.0282
12665W        W28474  12.345   3.195   0.223 -0.3693 -0.1855 -0.1452
12666W        W28475  13.261   3.270  14.919 -0.0299 -0.0224  0.0937
12667W        W28476   6.491  12.019  13.121  0.0505  0.2138  0.0070
12668W        W28477   4.536   0.510   1.723 -0.3983 -0.1401 -0.0443
12669W        W28478   7.624  13.603  14.326 -0.0404 -0.1902 -0.2231
12670W        W28479   9.595   9.198   2.335  0.0595 -0.0405 -0.2157
12671W        W28480  11.650  18.047  12.996 -0.2055  0.0325  0.1357
12672W        W28481  14.159  15.762   1.070  0.1536  0.1301  0.0048
12673W        W28482   2.649  17.466   3.409  0.3677 -0.0951  0.0106
12674W        W28483  13.709  18.994   4.631 -0.0166 -0.0589 -0.0563
12675W        W28484  18.451  15.636   3.974 -0.1478  0.1337  0.0604
12676W        W28485  11.650   9.567   1.873  0.1695  0.1947 -0.1308
12677W        W28486  10.741   7.814   4.779 -0.3378  0.0376 -0.1060
12678W        W28487  10.699   6.089  14.488 -0.3167  0.2629 -0.3508
12679W        W28488   9.450   0.240  14.518  0.1633  0.1614 -0.2248
12680W        W28489  15.749   7.689  12.712 -0.0822  0.0243  0.4730
12681W        W28490   2.074  18.708  14.053 -0.2654 -0.0656 -0.0568
12682W        W28491  18.705   3.944  14.920 -0.1328 -0.2572  0.1584
12683W        W28492  18.416   2.296   3.497  0.1064 -0.1903 -0.3194
12684W        W28493   1.567   2.436   4.307  0.4930  0.1950  0.1496
12685W        W28494  11.829   4.377   3.391  0.1635  0.3834  0.1070
12686W        W28495  12.610   7.918   0.620 -0.0416 -0.0956  0.0295
12687W        W28496  13.940  14.616   3.079 -0.1141  0.0160 -0.1326
12688W        W28497  12.751  13.406  11.966  0.1070  0.1372 -0.0265
12689W        W28498   1.897  17.480  11.576  0.1882 -0.2315  0.1241
12690W        W28499  13.487   9.336  15.081  0.4070  0.2955 -0.6219
12691W        W28500   6.852  15.420   3.265 -0.1202  0.0948  0.0700
12692W        W28501   3.461   7.871  10.996  0.2938  0.0263  0.1161
12693W        W28502  15.987   6.276  15.179  0.2618 -0.0508 -0.2542
12694W        W28503   7.630  13.441   1.084 -0.2333  0.0710 -0.0020
12695W        W28504   4.721  12.256  12.576 -0.1557 -0.3305 -0.0232
12696W        W28505  12.325   1.376  14.894  0.0645  0.0975 -0.1883
12697W        W28506  16.293   5.143  12.940  0.0731  0.0841 -0.1798
12698W        W28507   4.018  16.293   0.651  0.0852  0.1798 -0.1520
12699W        W28508  14.615   0.270   1.601  0.1656  0.2343  0.0228
12700W        W28509   0.253   8.138  13.858 -0.0040 -0.0437 -0.3451
12701W        W28510  13.908  17.837  12.063 -0.1213  0.0413  0.1950
12702W        W28511   2.605  13.014   4.098  0.2450  0.0444  0.1226
12703W        W28512  14.933  11.211   4.613 -0.2555  0.2116 -0.0609
12704W        W28513   9.385   8.002  11.763  0.2305 -0.1722 -0.1888
12705W        W28514  12.718   1.464  12.166  0.0245  0.0186  0.0953
12706W        W28515  15.007  10.240  14.020 -0.0802 -0.3744  0.0525
12707W        W28516  16.080  10.370   2.183 -0.1791 -0.0843  0.1298
12708W        W28517   3.670   5.942   0.212 -0.1435 -0.3467  0.0926
12709W        W28518   8.929   1.040   1.027 -0.5263  0.2043 -0.0390
12710W        W28519   3.276   6.705  12.671 -0.1176 -0.2005 -0.0326
12711W        W28520   6.851   4.599  12.674 -0.1788 -0.4669  0.0551
12712W        W28521  15.449  16.838   1.748  0.1500 -0.2069  0.2765
12713W        W28522   4.117   1.548   0.842 -0.0715 -0.3154 -0.3575
12714W        W28523  15.575   5.812   0.017 -0.0990 -0.0765 -0.2937
12715W        W28524   2.302   1.165   1.708  0.1544 -0.1638 -0.1022
12716W        W28525  13.268   0.769  14.583  0.1987  0.1680  0.1160
12717W        W28526  10.140   5.970  10.736  0.0654  0.2422  0.1976
12718W        W28527   6.691   6.858  13.533 -0.3124 -0.0939  0.1981
12719W        W28528   2.165   2.449   2.190  0.2333 -0.2642 -0.2978
12720W        W28529  10.273   9.866   2.933 -0.0345  0.1059 -0.1079
12721W        W28530  18.833   7.504  11.840 -0.2595  0.0868 -0.1368
12722W        W28531  12.509   1.216  13.095  0.1271 -0.1096  0.0693
12723W        W28532   3.070   8.280  15.102 -0.5396  0.2307 -0.1364
12724W        W28533  10.251   0.337  14.827  0.1658  0.2096 -0.3400
12725W        W28534  13.324  14.415  13.505  0.1584 -0.0904 -0.0531
12726W        W28535  18.164  13.315  12.809  0.0315  0.4053  0.4528
12727W        W28536   6.172  15.306   4.348  0.0120  0.1047 -0.1099
12728W        W28537  15.867   7.260   1.100  0.1257 -0.2481  0.1077
12729W        W28538  17.226   2.753   1.557 -0.2007 -0.0703 -0.0321
12730W        W28539   1.152   3.394   1.877  0.3628  0.0330 -0.2743
12731W        W28540   5.714  11.546  11.192 -0.3515 -0.1498 -0.2725
12732W        W28541   0.865  15.305  11.552 -0.0799  0.1576 -0.1818
12733W        W28542  15.046   3.298   2.188  0.0609  0.0758  0.0989
12734W        W28543   1.686   0.370  14.394 -0.0661 -0.0501  0.3241
12735W        W28544   8.422   3.452   2.500 -0.0510  0.1662 -0.1709
12736W        W28545  17.279  10.982  14.202 -0.3600  0.0424 -0.1432
12737W        W28546   7.790  18.061   0.802 -0.2052  0.0793 -0.1294
12738W        W28547   7.760   3.368   0.203  0.0154 -0.1326  0.0117
12739W        W28548  10.916  18.811  15.033  0.1106 -0.2518  0.0568
12740W        W28549  14.646  10.509  10.219 -0.0743 -0.0357  0.0483
12741W        W28550   0.330   1.271   1.565 -0.0368 -0.0883  0.1635
12742W        W28551  19.119  17.365   3.956 -0.0274 -0.0685 -0.1843
12743W        W28552   8.691  17.839   4.576 -0.2600  0.2259 -0.1731
12744W        W28553   8.154  18.546  12.069  0.1323  0.3106 -0.0165
12745W        W28554  14.968   3.893   0.477 -0.1012 -0.0656 -0.1038
12746W        W28555   0.488  10.569   2.414 -0.0095  0.1638  0.1833
12747W        W28556   2.990  11.462  14.837  0.0156 -0.2178  0.0337
12748W        W28557   5.308  17.916  10.260  0.2915  0.1174  0.7002
12749W        W28558   8.875   4.627   2.789  0.1759 -0.0925  0.0985
12750W        W28559   7.939   3.308   1.993  0.2961 -0.1410 -0.1402
12751W        W28560  16.039   4.367   3.814 -0.1639 -0.2139  0.1207
12752W        W28561  11.604  14.636  14.616  0.1113  0.0571  0.0325
12753W        W28562  17.061   9.237   3.184 -0.1441  0.0589 -0.0048
12754W        W28563  10.514   1.355   9.715 -0.1977 -0.2258 -0.1228
12755W        W28564  11.170   3.864  12.225 -0.2025 -0.2089 -0.3515
12756W        W28565   3.492   8.978  12.009  0.0395  0.0332  0.4037
12757W        W28566   0.419   8.026   0.448  0.0681  0.2640  0.0168
12758W        W28567  16.668  13.542   1.975 -0.0572 -0.1863 -0.1336
12759W        W28568  14.335   1.030   2.984  0.1641  0.0447 -0.1036
12760W        W28569  10.140  13.341   4.349 -0.1572 -0.3507  0.0401
12761W        W28570  13.095   5.897  14.833  0.1127  0.0879 -0.1006
12762W        W28571  11.995  18.311  12.744 -0.2001  0.1096  0.0682
12763W        W28572  10.527   2.761  14.612  0.1247  0.1382 -0.0336
12764W        W28573   5.874  17.076   3.008  0.0567 -0.1730  0.0977
12765W        W28574   7.677  11.389   3.152 -0.0483  0.0185 -0.0644
12766W        W28575   4.045   0.195  15.084 -0.1730 -0.0620  0.0533
12767W        W28576   1.512   9.004   2.865  0.0251  0.0164 -0.0188
12768W        W28577   5.282   7.857  14.454  0.3500 -0.0992  0.4297
12769W        W28578   4.279  15.938  12.279 -0.0151  0.0962  0.2530
12770W        W28579   4.521  18.501   4.301  0.3335  0.2142 -0.0446
12771W        W28580   9.654   9.988  10.948 -0.0485  0.0749 -0.0106
12772W        W28581  11.508  17.289  12.524 -0.0937 -0.1653 -0.0393
12773W        W28582   3.968  15.099   3.748 -0.0205 -0.1380 -0.2032
12774W        W28583   8.947  19.093   3.776 -0.1113 -0.1491 -0.0857
12775W        W28584   7.635   9.110  12.730 -0.1074 -0.1660  0.0751
12776W        W28585  15.665  17.345   5.421 -0.0728 -0.0818 -0.2304
12777W        W28586  15.100   1.540   0.450 -0.0133 -0.0766 -0.2249
12778W        W28587   7.099  13.963  15.230  0.2546 -0.1162  0.0120
12779W        W28588  16.449   8.539   3.316  0.1137  0.3916  0.1360
12780W        W28589   5.538   8.486   3.149 -0.2419 -0.2331 -0.0614
12781W        W28590   3.242  18.854   2.575  0.3329  0.2035 -0.0885
12782W        W28591   7.162  12.742   3.314  0.4404  0.1579 -0.1043
12783W        W28592   0.398   0.796   3.691 -0.2689 -0.0071  0.1970
12784W        W28593   1.854   9.937   1.033  0.0439  0.1337  0.0321
12785W        W28594  12.648  16.796  14.467  0.2130 -0.1250  0.3616
12786W        W28595  11.916   7.721  13.441  0.5576 -0.0975  0.1336
12787W        W28596   6.445  18.220   4.057  0.0130  0.0812  0.1989
12788W        W28597  16.587  18.403  12.354 -0.2383  0.2441  0.2475
12789W        W28598   2.115  14.048  11.205 -0.2594  0.0144  0.2339
12790W        W28599  14.394   4.826  10.186  0.2307 -0.1749 -0.1303
12791W        W28600   1.815  18.938  14.458 -0.0184 -0.0670  0.0909
12792W        W28601  16.004   0.910   5.164 -0.0514  0.1572  0.0935
12793W        W28602  13.678   6.097  11.213  0.2062  0.5032 -0.1412
12794W        W28603  15.125  11.037   5.025  0.1700 -0.0252 -0.0217
12795W        W28604   5.119   5.182  13.166 -0.1718  0.0793 -0.3335
12796W        W28605   5.011  18.579  12.700  0.2734  0.0695 -0.3032
12797W        W28606  11.314  15.522  14.693 -0.0699  0.0607 -0.3198
12798W        W28607   9.755  14.599  13.018 -0.0872  0.1590 -0.4228
12799W        W28608  18.481  15.914   2.174  0.2291  0.0439  0.0424
12800W        W28609   2.498   8.294  11.344  0.1005 -0.2609  0.0477
12801W        W28610  14.913  12.138  14.455  0.1800 -0.0342 -0.2146
12802W        W28611  13.685  18.940   3.185 -0.4217  0.2785 -0.0121
12803W        W28612   7.913  10.236  13.706 -0.0321 -0.3914  0.1059
12804W        W28613  10.042  12.824  14.022 -0.3063 -0.0145  0.1730
12805W        W28614  10.492   3.730  12.698 -0.1294 -0.1516 -0.5270
12806W        W28615  12.027   9.708  11.976 -0.2428  0.1633 -0.2596
12807W        W28616  12.679   0.456  10.446 -0.2027  0.1547  0.4782
12808W        W28617   0.020   2.053   0.939 -0.0708  0.2960 -0.0741
12809W        W28618   9.407  18.568   1.412 -0.0641 -0.1379  0.3579
12810W        W28619  13.447  14.271  12.029  0.0805  0.0448  0.3657
12811W        W28620  10.334  12.328   1.946 -0.2524 -0.0403 -0.2883
12812W        W28621  14.746  16.971  10.807  0.0009 -0.1479 -0.4098
12813W        W28622   4.052  11.499   5.733 -0.1176 -0.0639  0.0953
12814W        W28623   9.299  13.331  10.021  0.1881  0.1855  0.1611
12815W        W28624   8.703  10.226   5.585 -0.3025  0.2054  0.3261
12816W        W28625  16.760   2.212   2.600 -0.0229  0.1147 -0.3628
12817W        W28626  11.871  13.269   1.267  0.0180 -0.1995 -0.2437
12818W        W28627  18.719   7.577   3.077 -0.0117  0.2830  0.1820
12819W        W28628   2.139   8.863  11.674  0.4446 -0.1372  0.0011
12820W        W28629   4.878  18.127  12.103  0.4445 -0.3187 -0.1374
12821W        W28630  16.801   8.349   1.179 -0.0296  0.3149  0.2379
12822W        W28631   3.612   7.076   4.691 -0.0714  0.0611 -0.0851
12823W        W28632  16.451  18.339   4.766  0.2306 -0.4128 -0.1887
12824W        W28633   9.886  15.076   1.985  0.0683  0.0714  0.1406
12825W        W28634  19.113  17.133  12.859 -0.2380  0.1214  0.0210
12826W        W28635  14.701  11.736  11.142 -0.0971  0.1056  0.2617
12827W        W28636  17.260  14.985   4.336  0.0643 -0.0788 -0.0776
12828W        W28637  13.463  12.484   0.148 -0.1747  0.0019 -0.1593
12829W        W28638  15.903   3.003  14.692 -0.1156 -0.3442  0.1517
12830W        W28639   3.273   7.741  11.801  0.0194  0.1039 -0.3470
12831W        W28640  18.760  11.246   4.151 -0.2024 -0.2389 -0.0169
12832W        W28641   9.816  13.612   4.151  0.4574 -0.2351  0.1095
12833W        W28642   9.636  17.626  12.534  0.2239 -0.1769 -0.2505
12834W        W28643   5.999  10.892   1.403  0.1190 -0.0241 -0.0475
12835W        W28644  13.744  18.164   5.597  0.0984  0.0666 -0.3853
12836W        W28645   5.457  12.784  10.084  0.3454  0.1541  0.0272
12837W        W28646   5.839   1.892  12.172 -0.2378 -0.0908  0.2083
12838W        W28647   2.202   8.742   3.422  0.2166 -0.1396  0.3548
12839W        W28648  13.840  16.845   5.120 -0.1334  0.0640  0.0373
12840W        W28649   4.069  11.669  12.173 -0.3001  0.2418  0.2326
12841W        W28650   1.467  17.349  14.728 -0.2928 -0.0070  0.3373
12842W        W28651   8.970  11.635  14.276 -0.1536  0.0492  0.2739
12843W        W28652   2.915  14.310  14.138  0.1283  0.1416 -0.0639
12844W        W28653   7.974   0.030   4.230  0.1389 -0.1549 -0.2721
12845W        W28654   4.294  18.757  11.221 -0.1550 -0.0900 -0.2555
12846W        W28655   1.334  14.680  14.065 -0.1823  0.2373  0.0254
12847W        W28656   7.918   6.571   0.238  0.0312  0.1904 -0.3489
12848W        W28657  12.234  18.135  10.982  0.1464  0.2341  0.3255
12849W        W28658   7.148  13.631   0.866 -0.0302 -0.0095 -0.1030
12850W        W28659   4.855   3.014   1.046  0.1791 -0.3013  0.0483
12851W        W28660  10.482  18.182   9.759  0.0549  0.5340 -0.0810
12852W        W28661   3.231   8.268   2.815  0.2395 -0.0428  0.0186
12853W        W28662  16.476   0.213   0.634  0.0101 -0.2329 -0.0557
12854W        W28663   9.471   1.931  12.480  0.1040  0.2073  0.0079
12855W        W28664  18.574   4.189  14.198 -0.0423 -0.0217 -0.1937
12856W        W28665   3.599  11.500   1.336  0.0717  0.0360  0.0964
12857W        W28666  12.476   5.170  11.764 -0.0542 -0.1595 -0.0746
12858W        W28667   7.258  18.789  11.957 -0.0930  0.2107 -0.1929
12859W        W28668  17.529   8.660   2.314  0.5432 -0.0229 -0.0757
12860W        W28669   5.025   8.343   1.064 -0.0665  0.0486  0.0168
12861W        W28670   7.058   7.758   3.591 -0.1141  0.0270  0.1999
12862W        W28671  12.416   6.738   0.914  0.1232 -0.0218  0.0165
12863W        W28672   3.150   9.355  11.979 -0.1160 -0.0137 -0.1087
12864W        W28673  11.160   5.282   1.583 -0.1854  0.0042 -0.3039
12865W        W28674  17.583  16.566  12.580  0.1799 -0.0554  0.3200
12866W        W28675  12.154   5.256   9.924 -0.1848  0.0050 -0.0731
12867W        W28676   8.977  17.572  11.905 -0.1914 -0.3240 -0.1780
12868W        W28677  15.392  10.265  13.135  0.0586  0.0065 -0.3777
12869W        W28678  13.228   8.792   4.010 -0.1921 -0.0447 -0.1177
12870W        W28679   9.320   8.498   2.721 -0.0878  0.1559  0.0592
12871W        W28680  10.844  19.003   3.402 -0.2109 -0.0627 -0.3905
12872W        W28681   5.986   9.548  14.142 -0.1923 -0.0707  0.0146
12873W        W28682   8.623  10.466  10.458  0.0254 -0.1130 -0.1948
12874W        W28683  14.906   9.736  13.578 -0.1132  0.1005  0.1240
12875W        W28684  16.495  11.452  11.348 -0.1176  0.1603 -0.1149
12876W        W28685  10.192   0.269  11.026  0.0887  0.1489 -0.0012
12877W        W28686   8.532  12.212  14.303  0.1742  0.3373 -0.0664
12878W        W28687   2.221   8.983   1.620 -0.1602 -0.0418  0.1781
12879W        W28688  14.532   5.968  11.388  0.2383  0.3593  0.2118
12880W        W28689   3.225   9.414   4.387 -0.2035 -0.4181 -0.1361
12881W        W28690   0.854   3.503   0.097 -0.0710 -0.3870  0.2582
12882W        W28691  15.541  18.915   5.290 -0.0235 -0.2044 -0.0840
12883W        W28692  10.624   3.183   3.810 -0.1354 -0.0621  0.1281
12884W        W28693   1.338   9.944   2.588 -0.1683  0.0392 -0.0352
12885W        W28694  10.401  11.978  11.095 -0.1736  0.1267  0.0995
12886W        W28695  16.663  12.556   2.342 -0.3198 -0.0491  0.0067
12887W        W28696  18.665  12.779  14.494 -0.1085  0.2716 -0.2036
12888W        W28697  11.370  12.714  13.273  0.1928  0.1656 -0.4064
12889W        W28698   0.332   9.761  11.782  0.1212  0.1462  0.1007
12890W        W28699   2.972   7.725  11.263  0.2296 -0.0242  0.0862
12891W        W28700  11.436  19.035   1.822 -0.1397 -0.4421 -0.0375
12892W        W28701   2.830   0.467  10.542  0.0817  0.1304 -0.0240
12893W        W28702   7.358   3.088  15.213  0.1263 -0.0521 -0.0176
12894W        W28703  12.204  13.382   3.641 -0.0781  0.0604 -0.0501
12895W        W28704  16.283   3.364   1.847 -0.0566 -0.0242  0.1513
12896W        W28705   8.467   5.064   4.912 -0.0376  0.2038 -0.0843
12897W        W28706   7.205  14.561  12.639  0.2094 -0.0619 -0.0950
12898W        W28707  16.602  17.794  14.793  0.1907 -0.4900 -0.0938
12899W        W28708   7.163   6.107  13.182 -0.2505 -0.1335 -0.0683
12900W        W28709   1.755  16.960   1.301  0.0494 -0.0668 -0.0579
12901W        W28710  18.578  12.120  12.578 -0.2571  0.3671  0.0286
12902W        W28711  10.976   2.718  14.387 -0.5054  0.0512 -0.1225
12903W        W28712  15.042   0.248   2.738  0.2150 -0.2126  0.0632
12904W        W28713   8.365  18.174   1.629  0.0265 -0.0380 -0.0993
12905W        W28714  12.735  14.356   2.913  0.2274  0.0786 -0.2421
12906W        W28715   7.496  15.411   1.118 -0.2066 -0.4215  0.1179
12907W        W28716  12.617   5.918   0.902 -0.0029  0.1709 -0.0621
12908W        W28717  18.557  17.118   6.057 -0.0317 -0.0134  0.1423
12909W        W28718  18.296   8.387  12.146 -0.3066 -0.2116 -0.3575
12910W        W28719   2.074  13.160   3.111  0.0206  0.2535  0.1015
12911W        W28720   0.157  15.830   1.039 -0.2027  0.2157  0.1094
12912W        W28721  11.622   4.686  12.636 -0.1972  0.1412  0.3991
12913W        W28722  13.266  14.534   0.164 -0.2527 -0.2950 -0.2082
12914W        W28723   8.066   4.964   3.953 -0.0307 -0.1528 -0.2626
12915W        W28724   7.621  12.905   2.610 -0.2416 -0.0103  0.0321
12916W        W28725   9.137   0.382   5.387 -0.1440 -0.1973  0.2993
12917W        W28726  17.826   9.466  14.483  0.0717  0.0560 -0.1934
12918W        W28727   6.274   9.973   3.127  0.2551  0.2720 -0.0320
12919W        W28728  18.282   1.377   0.758 -0.0066  0.0678  0.2634
12920W        W28729  15.499  17.796   2.980  0.0611  0.0612  0.2360
12921W        W28730  16.334  15.238  10.519 -0.3271 -0.1695 -0.0786
12922W        W28731  14.607  12.314   4.733  0.1726  0.0961 -0.0353
12923W        W28732   1.051  13.589   0.256 -0.1321 -0.2730 -0.1150
12924W        W28733  13.466   2.157   3.762 -0.0364 -0.0215  0.1992
12925W        W28734   1.585   0.175   4.601  0.1539 -0.5028  0.0078
12926W        W28735   5.681   1.276  13.201  0.2708 -0.0283 -0.2519
12927W        W28736  18.897   6.574  12.616  0.0967 -0.0425 -0.0769
12928W        W28737  16.312  18.692  11.393 -0.2099 -0.2102 -0.2498
12929W        W28738  15.672   1.669  10.659 -0.3285 -0.1322 -0.0921
12930W        W28739   9.518  18.840  10.947 -0.2005  0.1149  0.0389
12931W        W28740   7.303  17.401   0.072  0.0763  0.1120 -0.0112
12932W        W28741   2.411   6.961   3.557 -0.2184  0.1207  0.0348
12933W        W28742  18.616  16.763  10.581  0.2033 -0.0768 -0.0017
12934W        W28743  16.069  14.194  12.569 -0.0179 -0.0065 -0.1309
12935W        W28744   5.654   5.479   2.802 -0.1414  0.2932  0.1897
12936W        W28745   7.005  13.535  13.811  0.3556  0.0435  0.4575
12937W        W28746  15.200  17.530   1.182  0.1188 -0.2514 -0.4316
12938W        W28747   7.756   9.227   2.648  0.1309  0.0599  0.0037
12939W        W28748  12.471   8.024   1.559  0.3363  0.1700 -0.0361
12940W        W28749  17.326   3.805  11.781 -0.2028  0.5056 -0.4271
12941W        W28750   1.482   3.878   3.057 -0.1282  0.0669  0.0006
12942W        W28751   7.232   5.175  15.099 -0.0638 -0.1503 -0.3401
12943W        W28752   2.228   6.236   2.479 -0.2190 -0.0500 -0.1419
12944W        W28753   3.011   0.841  10.179  0.3682 -0.2071  0.0490
12945W        W28754  18.888  14.015   4.400 -0.1858  0.0453 -0.0236
12946W        W28755  18.119   4.982   2.536 -0.1689  0.1219 -0.4427
12947W        W28756  13.404   0.445  11.198 -0.1984  0.1555 -0.2204
12948W        W28757   4.369   0.344   1.091 -0.0178  0.0794 -0.3537
12949W        W28758  11.665  13.622  12.566  0.2492  0.0597 -0.1493
12950W        W28759  15.549  12.389  14.023 -0.2269  0.0691  0.0308
12951W        W28760  11.738  12.899  12.963 -0.0594  0.1292 -0.0320
12952W        W28761  10.200   6.245  14.857  0.0618  0.1767  0.5208
12953W        W28762   1.529   6.010   2.226  0.0027 -0.2224  0.1004
12954W        W28763   6.651  13.145  13.954  0.2065 -0.0333  0.0736
12955W        W28764  15.268  15.244   0.379  0.0640 -0.0730 -0.1477
12956W        W28765  17.114  16.271   5.657  0.1473 -0.1945  0.0618
12957W        W28766  16.993  14.917  13.065  0.0346  0.3730  0.3349
12958W        W28767   5.802   7.364   5.426  0.1153 -0.1057  0.0722
12959W        W28768   0.707   0.286   0.974 -0.0996 -0.1883  0.2196
12960W        W28769   0.851   8.874   4.436  0.0716 -0.0738  0.0713
12961W        W28770  18.996  17.322   0.709 -0.0390 -0.1572  0.2635
12962W        W28771   7.237  13.154   2.284 -0.0635  0.3399  0.0873
12963W        W28772  16.829  12.103  12.552  0.1999  0.0895  0.1056
12964W        W28773   5.568   5.913  15.081  0.0285  0.0047 -0.1023
12965W        W28774  16.674  14.162  13.716  0.2416  0.2901 -0.0839
12966W        W28775  16.710   0.657   0.456 -0.1295  0.1325 -0.1981
12967W        W28776  10.896   0.441  12.361 -0.1160 -0.2892  0.1559
12968W        W28777  17.760  18.769  13.558  0.1101 -0.2019 -0.2519
12969W        W28778  18.366   8.657   3.165 -0.3837 -0.2152  0.1366
12970W        W28779   0.127  16.062   1.739  0.0325 -0.0741 -0.0973
12971W        W28780   7.977   3.754  11.904 -0.2309  0.3462 -0.0354
12972W        W28781   9.193  14.769   1.747  0.1855  0.2883  0.1343
12973W        W28782  11.704   5.314  13.880 -0.3321  0.0755 -0.2540
12974W        W28783  10.637  13.692   3.665  0.2225 -0.0967  0.1798
12975W        W28784  17.172   5.884   1.966  0.1432 -0.0594 -0.0290
12976W        W28785   7.367   2.666  14.682 -0.0603  0.0747 -0.0841
12977W        W28786  17.667  14.042   4.742 -0.2318 -0.0606 -0.1605
12978W        W28787   7.685  13.393  11.892  0.1185  0.0061  0.1649
12979W        W28788   7.778  10.223   3.084 -0.1019 -0.4563 -0.0322
12980W        W28789   9.947   6.979  14.354 -0.1560 -0.0639 -0.1113
12981W        W28790  18.406  13.819   5.111  0.1451  0.3041 -0.0256
12982W        W28791   0.567   1.802  13.688 -0.2928 -0.1422 -0.0272
12983W        W28792   1.837  10.338   2.598  0.1950 -0.2012  0.1464
12984W        W28793   3.597   9.491   4.744  0.1449 -0.0928 -0.0027
12985W        W28794  11.333   9.918   4.178  0.2505 -0.0214  0.2813
12986W        W28795  11.526  18.719   4.667  0.0715 -0.2538 -0.0610
12987W        W28796   1.553   4.623   1.766 -0.0055 -0.0297 -0.1996
12988W        W28797  10.955   6.309   0.579  0.0116 -0.1051  0.0020
12989W        W28798  18.307   6.901   3.664 -0.0282 -0.1032  0.0497
12990W        W28799  14.758  17.003  14.786 -0.0134 -0.1803  0.0560
12991W        W28800  15.590  11.565  14.634  0.2667 -0.1422  0.2020
12992W        W28801   6.704   9.156  12.521 -0.1972  0.0174 -0.0965
12993W        W28802   3.339  14.978   0.578  0.0368  0.2272  0.2395
12994W        W28803   3.334   8.912  12.552  0.3300  0.0808  0.2784
12995W        W28804  11.979   2.945   4.951  0.1197  0.2035 -0.1293
12996W        W28805   5.744   7.731  12.811  0.0717 -0.2018  0.2285
12997W        W28806   0.043  19.028   1.696  0.1590  0.4215 -0.0385
12998W        W28807   1.893   8.235   3.565 -0.1119 -0.2667 -0.2079
12999W        W28808   2.332   5.285  15.046 -0.1386  0.1766 -0.0843
13000W        W28809   0.531  13.859   2.226  0.0315  0.1351 -0.2002
13001W        W28810  18.525   2.648  14.762 -0.0486 -0.0486 -0.2380
13002W        W28811  16.269   8.562  11.637  0.4023 -0.2688 -0.1767
13003W        W28812   4.054   6.766   2.177  0.0070 -0.1822 -0.1658
13004W        W28813   6.173  10.990   4.009  0.2938  0.0941 -0.2582
13005W        W28814   0.939   3.757   1.077  0.2473 -0.2587 -0.2527
13006W        W28815   2.467  14.573   0.450  0.3695  0.1247 -0.0729
13007W        W28816   8.517   6.038   0.687 -0.1607  0.1640 -0.1271
13008W        W28817   8.646   3.517  13.767  0.4179 -0.0566 -0.2749
13009W        W28818   3.406   1.689   1.604 -0.1142 -0.1379  0.1841
13010W        W28819   0.371  17.352  12.049  0.1242  0.0088  0.0202
13011W        W28820  18.010  11.927  10.863  0.0773  0.0198  0.0015
13012W        W28821   0.336   3.111   2.891  0.0086  0.3376  0.0675
13013W        W28822   2.464   1.870  14.210 -0.2343 -0.2622 -0.2102
13014W        W28823  17.548  17.670   4.507  0.0622  0.3216 -0.0311
13015W        W28824  12.469   4.074   1.005 -0.3182 -0.1560 -0.1932
13016W        W28825   2.604   0.310  11.573  0.0204 -0.3728 -0.0879
13017W        W28826   2.573  10.284   0.379 -0.2006 -0.0260  0.1538
13018W        W28827   2.505  18.977   1.139  0.2326  0.0951  0.0313
13019W        W28828   1.837   2.871  12.810  0.2287  0.0117 -0.0010
13020W        W28829  14.239  18.491   5.314  0.1450  0.1460 -0.1420
13021W        W28830  11.281  11.671  11.021  0.0431  0.1082 -0.0937
13022W        W28831   7.977  16.168  14.252 -0.2776  0.0915  0.0813
13023W        W28832   1.565  16.746  14.040  0.0080  0.1273  0.2331
13024W        W28833   9.469   2.450   1.515 -0.1690 -0.2046 -0.1090
13025W        W28834  15.544   0.386   3.351  0.0227 -0.0598 -0.3116
13026W        W28835  16.436  14.101   4.985 -0.1112  0.0171 -0.2107
13027W        W28836  18.033   2.361   1.383  0.0171  0.2777 -0.1555
13028W        W28837   0.912  11.122   1.124  0.3195  0.1960 -0.2951
13029W        W28838  14.250  12.495   4.450  0.1938  0.0090 -0.1474
13030W        W28839   6.371  18.865  12.951 -0.2184 -0.1259 -0.0644
13031W        W28840   0.428  18.442  12.391 -0.1801  0.0718  0.2922
13032W        W28841   4.444  15.698   1.281  0.0419 -0.1688  0.1934
13033W        W28842   5.332  15.888  15.116  0.1220  0.1712 -0.1550
13034W        W28843  15.264   4.536   0.820 -0.1482 -0.0450 -0.2413
13035W        W28844   8.109  12.861  13.605 -0.1103 -0.3828  0.0616
13036W        W28845  18.615  11.992  13.057 -0.0484  0.1525 -0.0791
13037W        W28846  14.964   8.959  14.409 -0.1932 -0.1197 -0.3164
13038W        W28847  16.683  11.171   2.541  0.1381  0.3521  0.0715
13039W        W28848  14.207   0.089  11.019 -0.2176 -0.3428  0.2516
13040W        W28849  13.061   6.859  12.024  0.1376  0.0063 -0.1884
13041W        W28850   5.889   0.476  14.744 -0.0574  0.0516  0.0572
13042W        W28851  18.199  12.451   2.650  0.1558 -0.1122 -0.0941
13043W        W28852   6.059   4.426   1.992 -0.0769  0.0112 -0.0216
13044W        W28853  17.849  18.841  12.664  0.0905 -0.1103  0.2060
13045W        W28854   6.099  11.973  15.228 -0.1726 -0.2748 -0.3031
13046W        W28855  11.680  12.512  11.270  0.1260 -0.1710 -0.3814
13047W        W28856   9.162  12.775  14.103  0.1106 -0.2730  0.0208
13048W        W28857   8.967   6.311   2.577 -0.0107  0.1283 -0.1712
13049W        W28858   9.709   8.174   2.910  0.3142  0.3094 -0.2819
13050W        W28859  16.770  11.719   0.601  0.0185 -0.3410  0.1556
13051W        W28860   3.359  18.030  15.208  0.1057  0.0105 -0.4320
13052W        W28861  15.602   6.987  14.327  0.0379  0.1221  0.0980
13053W        W28862  15.626   8.656  11.616 -0.1466 -0.1585  0.0260
13054W        W28863  18.770  10.679   0.379 -0.1906  0.2480 -0.0098
13055W        W28864  14.691  15.054   5.481  0.1804 -0.1637 -0.3139
13056W        W28865  11.772  16.776   2.849  0.0040 -0.0869 -0.2486
13057W        W28866   7.929  13.966  14.046  0.1228  0.2323 -0.0256
13058W        W28867   2.507  11.025   1.961 -0.3318 -0.3540 -0.0365
13059W        W28868  17.776  14.771  13.907 -0.3161  0.1664  0.0168
13060W        W28869   2.747   1.610  15.155 -0.2047 -0.1843 -0.1059
13061W        W28870  11.554   6.139   3.106  0.0194 -0.2153 -0.1293
13062W        W28871  16.106  10.020   2.526 -0.1706  0.1934 -0.3258
13063W        W28872  17.609  18.253   0.132 -0.1109 -0.1834 -0.1964
13064W        W28873   6.700  14.021  11.841  0.2678  0.0934  0.0193
13065W        W28874  13.505  13.086  10.832 -0.0131 -0.1126  0.2180
13066W        W28875   3.279  16.242  12.531 -0.0837  0.0620  0.2027
13067W        W28876  10.578   3.660   0.011  0.0423 -0.2358 -0.0717
13068W        W28877   2.215   8.771  10.644 -0.0503  0.1936  0.2086
13069W        W28878  15.270   9.132   0.173  0.0475  0.2125 -0.2061
13070W        W28879   5.417   1.855  14.764  0.3591  0.0508  0.1592
13071W        W28880  12.413  10.363   4.375  0.1877  0.2028 -0.2671
13072W        W28881   9.344  18.883   4.810 -0.1512  0.0234 -0.0906
13073W        W28882  14.002  14.984   5.022  0.0149  0.1749  0.2187
13074W        W28883  15.987   8.258   1.240 -0.2231  0.1150 -0.0732
13075W        W28884   1.445  11.371  13.107 -0.1452  0.0789  0.1099
13076W        W28885   7.415   9.910   4.054 -0.0443 -0.3116 -0.0551
13077W        W28886  17.080   8.846   1.127 -0.0405  0.0478  0.2262
13078W        W28887  14.942  10.754   4.592  0.0296 -0.2259 -0.0197
13079W        W28888   2.043   4.601  11.236  0.2656 -0.0264  0.1320
13080W        W28889   3.314   3.286   3.434 -0.0385 -0.0125 -0.2155
13081W        W28890   8.617   6.974   0.326  0.3328  0.0101  0.1074
13082W        W28891   1.439   1.176  12.928  0.2623 -0.0631 -0.0620
13083W        W28892   6.487   9.571   2.740 -0.2576  0.1215 -0.0083
13084W        W28893  15.116   1.322   2.612  0.1990 -0.4080 -0.3291
13085W        W28894   4.831  10.718  11.513 -0.1773 -0.2512 -0.3335
13086W        W28895   8.801  19.083  14.958  0.1516 -0.0275  0.0438
13087W        W28896   1.075   8.934  13.891  0.0083  0.0162 -0.1207
13088W        W28897  12.352  15.602   3.494  0.2322  0.1687  0.0776
13089W        W28898   8.563   0.327  10.766  0.3078  0.0540 -0.2075
13090W        W28899   8.021   1.581  12.644 -0.1099 -0.1654 -0.0882
13091W        W28900  15.581   1.081  13.478 -0.1244 -0.0899 -0.0941
13092W        W28901   1.421  16.514  12.732 -0.0381  0.0750  0.3194
13093W        W28902   9.819  16.488  13.146 -0.2049  0.0358 -0.2348
13094W        W28903   7.584  17.482  12.052  0.0787  0.2539  0.3095
13095W        W28904  18.166   0.638  10.036  0.1348  0.2028 -0.1948
13096W        W28905   7.606  13.399   0.544 -0.2336  0.1469  0.2039
13097W        W28906  15.415  16.012  11.502  0.3534 -0.1832 -0.0434
13098W        W28907  11.515  13.826   2.834 -0.0105 -0.3017  0.1072
13099W        W28908  10.437   1.566   3.803 -0.2765  0.0772  0.3514
13100W        W28909   7.280  11.271   3.525  0.4049  0.2058  0.0945
13101W        W28910   6.349  14.324  13.217 -0.3092  0.2225  0.0986
13102W        W28911   8.487  18.449   3.685 -0.2268  0.0836  0.4507
13103W        W28912  16.028  15.499  14.676 -0.0882  0.2102  0.0745
13104W        W28913  17.660   5.050   4.218  0.0221 -0.2878  0.1417
13105W        W28914  18.585  13.651   4.665 -0.2048 -0.3126 -0.3260
13106W        W28915  15.148  16.964   4.601  0.0177  0.1316  0.5414
13107W        W28916   1.891   9.784   2.547  0.0593 -0.0934  0.0650
13108W        W28917  14.725   2.598  13.863 -0.0680  0.7011  0.2627
13109W        W28918   5.556   4.527  14.391  0.0326  0.2510  0.0306
13110W        W28919   0.346  17.940   0.277  0.1363 -0.0827  0.1733
13111W        W28920   6.379  17.205   5.708  0.0890  0.2778  0.2454
13112W        W28921  16.647   9.200   4.388  0.0256 -0.0303  0.2365
13113W        W28922   6.931   1.637   4.382  0.1488 -0.0322  0.1402
13114W        W28923  15.092  14.706  14.974  0.1120  0.1118 -0.6371
13115W        W28924  12.085   2.769  13.496  0.0062  0.2235 -0.0005
13116W        W28925   0.160  17.226   2.506  0.1680  0.1082 -0.0630
13117W        W28926   9.781   1.749   3.865  0.0457 -0.1712  0.2821
13118W        W28927  12.688  13.582  10.715 -0.0296 -0.2268 -0.1665
13119W        W28928  10.839   9.162  11.495 -0.1920 -0.0333 -0.1509
13120W        W28929  14.343   6.725   3.040 -0.3201 -0.2824 -0.0696
13121W        W28930  16.826  17.205  13.511 -0.0541 -0.0472  0.0351
13122W        W28931   3.336  12.340   1.545  0.1127 -0.1198  0.2281
13123W        W28932   1.167  10.301  11.942  0.0707  0.0831 -0.2579
13124W        W28933   4.397   9.010   5.041  0.1825  0.0053 -0.1365
13125W        W28934  18.847   0.504   4.968  0.2169 -0.1378 -0.1932
13126W        W28935  10.534  10.899  14.447 -0.2288 -0.0612 -0.1354
13127W        W28936  11.139  13.001   1.904 -0.3153  0.1242  0.2954
13128W        W28937  16.435  17.511  11.215 -0.0656  0.1321  0.0200
13129W        W28938   3.552   6.213  12.584 -0.0845  0.0803  0.0239
13130W        W28939   5.781   1.213   2.934  0.0945  0.1137  0.0599
13131W        W28940  14.000  10.030   3.934  0.4897  0.0588 -0.0142
13132W        W28941   6.890  14.482  15.245 -0.2569 -0.3525  0.0186
13133W        W28942  17.958   3.469   4.100  0.1237 -0.2549  0.1764
13134W        W28943  16.164   3.617  13.642 -0.1472 -0.1904  0.3542
13135W        W28944  14.507  14.943  12.861  0.1315 -0.1376  0.1326
13136W        W28945  16.574  15.078  10.953 -0.1758 -0.0679 -0.0229
13137W        W28946   7.436   4.399   1.107 -0.1078 -0.2009  0.1108
13138W        W28947   4.947   0.795  10.535  0.1874 -0.2950 -0.3589
13139W        W28948   7.061  16.125  10.673 -0.0264  0.0964  0.1729
13140W        W28949  16.363  15.437  13.669  0.0433  0.1370 -0.0323
13141W        W28950  16.326   2.119  10.266 -0.1279 -0.1386 -0.1116
13142W        W28951   2.335   9.269   0.444  0.0221  0.0869  0.0860
13143W        W28952  18.415  18.490   3.607  0.0374  0.2528 -0.1602
13144W        W28953   9.779  17.959   2.375  0.0766  0.5065  0.1949
13145W        W28954  12.774   9.790  11.604 -0.0282  0.3039 -0.1096
13146W        W28955   5.152  10.800  13.398 -0.3137  0.1949 -0.1406
13147W        W28956   1.547   6.375  14.074  0.2441 -0.0892 -0.1065
13148W        W28957   8.657  18.246   2.088 -0.3672  0.1136 -0.0973
13149W        W28958   4.209   9.212   0.077 -0.2816  0.2237 -0.1361
13150W        W28959  12.828  10.386   0.434  0.1113  0.1743 -0.2854
13151W        W28960   6.914  18.490  13.682 -0.2120 -0.1763 -0.4210
13152W        W28961   6.711   6.535  15.257 -0.3099 -0.2578  0.0795
13153W        W28962  11.022  10.339  12.644 -0.0002  0.0327  0.2569
13154W        W28963   5.099  10.446  10.668 -0.1291 -0.1260 -0.0134
13155W        W28964   3.214   2.298  10.958 -0.1665 -0.1658  0.0612
13156W        W28965   5.231  17.239   1.147  0.1872  0.1779  0.2147
13157W        W28966   4.436  14.365   2.657  0.3583  0.2292 -0.4013
13158W        W28967   6.109   2.546  10.303  0.1009  0.0239  0.1051
13159W        W28968   4.012   3.055  13.843  0.2485 -0.2036 -0.2894
13160W        W28969  11.054   9.727  14.018 -0.1056  0.1731  0.1519
13161W        W28970   2.945   2.499   5.285  0.1499  0.2023 -0.2194
13162W        W28971   7.864  12.095   4.213 -0.2953  0.2116 -0.2403
13163W        W28972  14.920  18.012   5.315  0.0733 -0.0198 -0.2558
13164W        W28973   5.564  16.327  12.637 -0.0040 -0.3340  0.3814
13165W        W28974  11.156   5.595   2.851  0.1785 -0.2292 -0.2028
13166W        W28975   8.709  18.490  11.302 -0.0592  0.2014 -0.1624
13167W        W28976  11.717   0.126  11.435 -0.0125 -0.2721 -0.2425
13168W        W28977   7.812   8.548  11.472  0.0281  0.1387 -0.1138
13169W        W28978   0.774   8.927   6.166  0.1982  0.1563  0.0923
13170W        W28979   6.301   6.895  15.089 -0.4882 -0.4418  0.4467
13171W        W28980  17.170   9.607   1.465  0.2082  0.0084  0.1021
13172W        W28981   5.878  13.528   4.554  0.2658 -0.1835 -0.1805
13173W        W28982  11.288  13.207  13.988  0.3743  0.2518  0.1484
13174W        W28983   4.463  12.459  13.693 -0.1281 -0.0438  0.1511
13175W        W28984   4.186  14.303   1.926  0.1339  0.0353  0.2373
13176W        W28985   2.675   1.641   3.350  0.4602  0.0611 -0.1672
13177W        W28986   8.174   3.498  14.009 -0.1347 -0.1523 -0.0935
13178W        W28987   7.689  10.933  12.599  0.0378 -0.3651 -0.0878
13179W        W28988   3.029  12.298   4.283 -0.1060  0.0997 -0.0841
13180W        W28989  16.044   5.828   4.305  0.0236 -0.1436  0.1066
13181W        W28990  17.736  12.515  12.499 -0.2609  0.1929  0.0632
13182W        W28991  15.584   3.356  14.474 -0.0059  0.1304 -0.1851
13183W        W28992  15.405  12.515   0.387  0.0912 -0.1699  0.0429
13184W        W28993  11.949  16.828   3.599  0.0870  0.3314  0.1799
13185W        W28994   7.120  16.378   0.022 -0.1297  0.0403  0.2326
13186W        W28995   1.936  14.487   3.681 -0.2083 -0.3284  0.0608
13187W        W28996  15.333  11.856   3.792  0.1328 -0.1530 -0.2740
13188W        W28997  15.577   8.864   1.581  0.2313 -0.2019  0.3576
13189W        W28998  12.462   4.512  13.775 -0.2727  0.1663  0.1564
13190W        W28999   5.774  15.530  11.764 -0.0256 -0.1910 -0.1469
13191W        W29000   0.966   3.112   9.864  0.0820 -0.1802  0.0905
13192W        W29001   8.031   7.748   2.452 -0.3202 -0.0636  0.2241
13193W        W29002   9.826   3.994  10.928  0.0149 -0.0168 -0.0920
13194W        W29003  12.176   0.982   0.329 -0.1290 -0.0572 -0.0192
13195W        W29004  16.137  14.071  12.047  0.1040 -0.2172 -0.5159
13196W        W29005  13.181  15.183  11.071 -0.1819 -0.1324 -0.4456
13197W        W29006  12.486   0.691  10.862  0.4566  0.0447  0.1330
13198W        W29007   7.404   4.629   4.339 -0.0252 -0.2674 -0.2021
13199W        W29008   8.218   1.653   5.154  0.2464  0.0129  0.0789
13200W        W29009  15.532   1.462  14.602 -0.0746 -0.1766  0.3684
13201W        W29010   7.762   1.931   3.557  0.1083  0.0855 -0.1143
13202W        W29011  12.380   1.343  12.619 -0.0717  0.1670  0.3694
13203W        W29012   2.544  16.282   3.596  0.0237 -0.0313 -0.1837
13204W        W29013  10.889  12.958   4.784 -0.0386 -0.0621  0.0399
13205W        W29014   9.686  14.456   0.990  0.0862 -0.4841 -0.1185
13206W        W29015  10.409   6.460  14.373 -0.0281  0.0684  0.0939
13207W        W29016  13.539   5.550  12.890 -0.3499 -0.1317 -0.1229
13208W        W29017   5.399  18.749   5.035  0.3576 -0.2157 -0.2630
13209W        W29018   1.031   8.218   0.232  0.1717  0.1274  0.1376
13210W        W29019  14.703   8.546  14.171 -0.2515 -0.1688 -0.4072
13211W        W29020   7.981   0.602  14.401 -0.0696 -0.0743 -0.2050
13212W        W29021  13.052  16.039   0.166 -0.2027  0.1626  0.1845
13213W        W29022  14.383  10.996  14.915  0.0502 -0.0799  0.0249
13214W        W29023   2.532   1.057  14.183 -0.1999  0.0062  0.4760
13215W        W29024  18.637   3.156  14.564  0.0254  0.2969 -0.0669
13216W        W29025  10.776   1.499   4.969 -0.1294 -0.2622 -0.4226
13217W        W29026  16.016  12.318   2.619  0.0655 -0.1524  0.1543
13218W        W29027   8.498   1.413   3.563 -0.2173  0.0793 -0.1083
13219W        W29028   2.139  14.271  14.063 -0.1483 -0.0990  0.0511
13220W        W29029  13.395  12.764   2.452  0.3216  0.0435 -0.3349
13221W        W29030   4.220  16.624   4.458 -0.2335  0.0711  0.0642
13222W        W29031  10.052  11.307   1.930  0.5412 -0.1427 -0.2331
13223W        W29032   8.141   6.885   0.986 -0.1201  0.0219 -0.1688
13224W        W29033   7.966   4.122   2.791  0.0747  0.0441 -0.0562
13225W        W29034  11.328   7.701   5.644 -0.1231  0.2997 -0.1764
13226W        W29035   7.348  10.345   4.315 -0.1323 -0.4107 -0.0561
13227W        W29036   9.726  12.045   3.596  0.0353 -0.3600 -0.0136
13228W        W29037  12.244  15.042   4.781  0.1413  0.0320  0.0734
13229W        W29038   1.605   9.835  14.163 -0.0030 -0.1694 -0.1003
13230W        W29039   0.537   7.480   0.441 -0.3756  0.6157 -0.2644
13231W        W29040   9.476  18.518  12.908  0.4167 -0.2866  0.0988
13232W        W29041   2.210  12.662   3.887 -0.1325  0.1624  0.2532
13233W        W29042   6.008  11.106   0.031 -0.3150 -0.2588 -0.1555
13234W        W29043   8.731   8.208  13.762 -0.0389  0.0343 -0.2519
13235W        W29044   1.011   9.206   5.358 -0.0048  0.2322  0.3232
13236W        W29045   8.932   3.852  12.928  0.1535  0.2910  0.1560
13237W        W29046  10.673   4.484  11.788  0.2616  0.0810  0.0447
13238W        W29047  11.973   7.122   2.283 -0.1924 -0.1343 -0.1852
13239W        W29048  10.937   2.172  13.730 -0.0443 -0.2364  0.0122
13240W        W29049  10.753   3.305  10.468 -0.0540  0.1924  0.2696
13241W        W29050  11.780   3.238  14.654 -0.1356 -0.0975 -0.0918
13242W        W29051   9.101   8.384   3.870  0.1015 -0.2044  0.4490
13243W        W29052  14.135   9.592   2.652 -0.2895  0.3183 -0.2041
13244W        W29053  14.545  19.130  11.634 -0.1687  0.1563 -0.0750
13245W        W29054  17.576  14.756   5.306 -0.0032  0.1643  0.2124
13246W        W29055   2.243   6.809  11.196 -0.0886 -0.0435  0.3115
13247W        W29056  15.947  10.858  11.661 -0.1762 -0.1523  0.0323
13248W        W29057  18.130   1.368  10.612  0.1023  0.6527  0.0200
13249W        W29058   3.005   9.752  12.204  0.0325 -0.1508 -0.2513
13250W        W29059  18.576  15.775  11.282  0.2831 -0.0016  0.1407
13251W        W29060  10.204  13.297   3.771 -0.2766 -0.1196 -0.0450
13252W        W29061   5.641  12.235  11.894  0.4527  0.5792 -0.0242
13253W        W29062  12.452   0.588   4.064  0.1156  0.0723  0.1745
13254W        W29063   2.080   8.092   1.113 -0.0933 -0.1996 -0.2853
13255W        W29064   5.732  17.498   3.982  0.1804  0.1251  0.0289
13256W        W29065   7.092  12.302   1.218  0.0225 -0.0711  0.0183
13257W        W29066   7.929   8.716   3.473  0.0886 -0.1722  0.1123
13258W        W29067   8.159  10.629   3.218  0.1978  0.0320 -0.2214
13259W        W29068   6.674   5.938  10.957  0.1229  0.0433 -0.0715
13260W        W29069  17.222  14.466   4.476  0.1402 -0.0863  0.1411
13261W        W29070   8.150  12.035   5.660  0.0061 -0.2914 -0.0929
13262W        W29071   2.866   9.608  13.914 -0.0700 -0.0637  0.3286
13263W        W29072   5.553  12.248   3.718 -0.2419  0.1449 -0.3204
13264W        W29073  11.373   1.238  13.693 -0.0337  0.0334  0.2508
13265W        W29074  15.425   7.422  10.744  0.0936 -0.0617 -0.1621
13266W        W29075   6.452  12.836   3.337 -0.0607 -0.0747  0.0667
13267W        W29076  17.437   8.456   4.892  0.2483  0.4096 -0.4467
13268W        W29077   6.821   1.975  12.674  0.2802 -0.1359 -0.2401
13269W        W29078   2.824   5.452   0.419 -0.0103 -0.4194 -0.1002
13270W        W29079  19.020  15.939   2.180  0.0478 -0.1042 -0.1488
13271W        W29080   1.255  12.821   3.649  0.1378  0.0837  0.1708
13272W        W29081  11.063   1.493   2.510 -0.1164  0.1934  0.1526
13273W        W29082   0.263  14.605   1.306  0.2732  0.0710  0.1109
13274W        W29083  16.788   4.191   1.391 -0.1919  0.1582  0.1650
13275W        W29084  16.379   7.426   4.812  0.4124 -0.1456 -0.0285
13276W        W29085   6.094  12.910  14.617 -0.0869  0.2019  0.0292
13277W        W29086   5.445   5.509  10.549  0.2782  0.3897  0.0474
13278W        W29087  16.133  14.800   4.530  0.2155 -0.3117 -0.3734
13279W        W29088  10.059   2.269   2.307  0.1027 -0.1778  0.3931
13280W        W29089   0.267  15.155   3.499  0.2636 -0.0599  0.3038
13281W        W29090   6.449   6.560   0.421 -0.0438 -0.0862  0.1249
13282W        W29091  14.395   2.433  10.439  0.2835  0.0554  0.0671
13283W        W29092   4.015   5.608   0.349  0.2600  0.0877  0.1553
13284W        W29093  12.227  18.609  11.392  0.1786  0.0171 -0.3447
13285W        W29094  18.846  14.730  10.684 -0.0088 -0.1912  0.0184
13286W        W29095   5.868  15.548  10.790 -0.0763 -0.1679  0.0486
13287W        W29096  13.603  10.236  13.484 -0.2949  0.3949  0.1918
13288W        W29097  14.600   2.626   3.835 -0.0182  0.1381 -0.2045
13289W        W29098   3.257  10.813   3.710  0.0634 -0.2971  0.0911
13290W        W29099  16.112   0.331  12.432  0.1309  0.0936 -0.2195
13291W        W29100   4.757  12.672   6.097 -0.1592  0.1769  0.2324
13292W        W29101   1.395  17.777   0.528 -0.0901  0.1329 -0.1338
13293W        W29102   3.241  13.220  12.593  0.2462  0.3541  0.2054
13294W        W29103  16.453   3.755   2.953  0.0474 -0.2033  0.1674
13295W        W29104  15.308  12.803   0.010  0.1359  0.2396  0.0091
13296W        W29105   7.027   8.389  12.675  0.3845 -0.0110 -0.2228
13297W        W29106  11.227  14.847   3.760 -0.0931  0.0422 -0.1118
13298W        W29107  15.638  10.657   0.283  0.0069 -0.3108 -0.0212
13299W        W29108  12.657  10.824  11.876 -0.1119  0.1157 -0.1093
13300W        W29109  14.812   4.051  12.379 -0.1157  0.0211  0.3473
13301W        W29110   2.746  16.427   1.643  0.2308 -0.0147 -0.2222
13302W        W29111  15.256   4.351  11.113  0.2115  0.2724 -0.4680
13303W        W29112   9.518   5.306   5.645  0.0435 -0.1073 -0.1981
13304W        W29113  12.785  11.326  13.583  0.1588  0.0707 -0.3186
13305W        W29114   3.182  10.980  12.265  0.2512 -0.0324 -0.0051
13306W        W29115   0.795   6.882   0.926 -0.2070  0.0549 -0.2655
13307W        W29116  14.866   5.481  11.630 -0.0924 -0.0127  0.0212
13308W        W29117   9.438   9.453  11.668  0.1399  0.0312 -0.0797
13309W        W29118  17.390  19.114   4.210  0.0944 -0.0059  0.0163
13310W        W29119   0.636   2.094   4.559 -0.0973  0.3684 -0.0413
13311W        W29120   7.436  14.431  10.773  0.0133 -0.1834 -0.4231
13312W        W29121  17.362   4.059  13.185 -0.2212  0.2606  0.0488
13313W        W29122   0.792   3.538   0.637 -0.1520 -0.0715  0.0474
13314W        W29123  19.000   3.632  13.510  0.3119 -0.0426 -0.0988
13315W        W29124   7.407  16.245  13.483 -0.0710 -0.0296  0.0505
13316W        W29125  11.831   4.200  12.726 -0.0636 -0.1476  0.1167
13317W        W29126   7.018  12.060  12.738  0.3007  0.0369 -0.0450
13318W        W29127   9.671  18.851   3.119 -0.1812  0.1157 -0.2444
13319W        W29128   5.512   8.363   0.208  0.0758  0.1194  0.2017
13320W        W29129  14.536   4.504   4.128  0.2224  0.2741 -0.1261
13321W        W29130   8.295   7.539  11.082  0.0488 -0.0734 -0.0088
13322W        W29131  12.969   0.997  13.720 -0.0029 -0.2173  0.1485
13323W        W29132   6.686   7.577  11.302  0.1831 -0.3161 -0.2514
13324W        W29133   2.428   2.547   4.118 -0.2541 -0.1785  0.1898
13325W        W29134  17.289  14.228  11.653 -0.2521  0.3173 -0.1423
13326W        W29135   9.627   9.022   5.302 -0.0892 -0.0565  0.0479
13327W        W29136  16.960  18.720   4.323 -0.2005 -0.3459  0.1612
13328W        W29137   4.812   7.465   4.164 -0.4408  0.1298  0.2842
13329W        W29138  13.692   2.932   4.293  0.0512 -0.0986 -0.1390
13330W        W29139   2.103   6.073  13.843  0.0233 -0.1711 -0.0663
13331W        W29140   6.969   6.336   5.305 -0.2276 -0.1274 -0.2438
13332W        W29141  11.302  15.189  12.849 -0.0353  0.0078  0.0215
13333W        W29142  13.070  14.459   3.535 -0.2956  0.2870  0.0347
13334W        W29143   5.501   1.643  10.665 -0.1682  0.2270 -0.1402
13335W        W29144   5.749  11.384  12.839  0.1065 -0.2726  0.0726
13336W        W29145   3.507  18.311  10.274 -0.1613 -0.1114 -0.0001
13337W        W29146   2.460  13.629  11.436  0.0280 -0.1932  0.0614
13338W        W29147  15.985  15.471   2.163 -0.2681  0.1322 -0.1289
13339W        W29148   9.574   3.457   0.459  0.0215 -0.4378  0.0881
13340W        W29149   6.118  15.818  11.597  0.0565  0.1615 -0.1585
13341W        W29150  18.072   2.169   0.802 -0.0048 -0.0330 -0.0934
13342W        W29151  16.635  11.932   2.932 -0.2630 -0.1576  0.2617
13343W        W29152   1.825   0.477   1.878  0.0996 -0.0122  0.0180
13344W        W29153  12.052  16.256  11.199  0.1828  0.1372  0.3711
13345W        W29154  14.899   5.591   1.278  0.3877 -0.0756  0.3941
13346W        W29155  10.849   8.529   0.215 -0.0163 -0.1584  0.3440
13347W        W29156  17.800  17.801   5.099 -0.0472 -0.0458 -0.1891
13348W        W29157   7.214  17.318   2.844  0.0532 -0.2390 -0.0171
13349W        W29158  13.458  16.661  14.409 -0.1534  0.0190  0.1996
13350W        W29159   5.462  18.762  14.060  0.0847 -0.1979 -0.2307
13351W        W29160   6.931   0.566   4.983  0.0012 -0.2886  0.1151
13352W        W29161  15.849   8.183   9.879  0.1616  0.2254 -0.2871
13353W        W29162   9.660  14.240   2.642 -0.0220 -0.2567  0.0998
13354W        W29163  18.783  15.585   0.298  0.0490  0.2313 -0.1391
13355W        W29164  16.785  14.836   4.501 -0.4196 -0.2694  0.4038
13356W        W29165   0.462  10.222   2.780 -0.1402 -0.0001  0.0296
13357W        W29166   2.540   1.064  10.226  0.0943 -0.2638 -0.0861
13358W        W29167  17.693   6.260  14.344  0.0403  0.1439  0.1244
13359W        W29168  17.985  14.301   4.199  0.0982 -0.2159 -0.0485
13360W        W29169   6.680   0.222  13.690  0.0523 -0.1765 -0.0596
13361W        W29170   0.251  17.092  13.986 -0.2258  0.0126  0.1937
13362W        W29171   6.637  12.460  12.650 -0.5817  0.0428 -0.2839
13363W        W29172  13.697  18.173  13.878 -0.0384 -0.0299  0.1407
13364W        W29173   4.496   7.708   1.720  0.2690 -0.0660 -0.0614
13365W        W29174   2.383   9.731   3.729 -0.1905 -0.0734  0.3559
13366W        W29175   3.735  13.273  10.416  0.3398  0.1028  0.2325
13367W        W29176   3.328   5.383   1.163  0.3713 -0.0288 -0.1921
13368W        W29177   9.037  15.410  11.135 -0.1589  0.0081  0.0858
13369W        W29178   1.299   9.845  12.724  0.0257  0.0226  0.1122
13370W        W29179  11.782  10.074   5.128  0.2286  0.1583 -0.2042
13371W        W29180  13.494   7.301   5.326 -0.1273  0.3271 -0.0050
13372W        W29181   4.078   0.646   2.014  0.1182 -0.1592  0.1753
13373W        W29182  19.007  10.050   0.293 -0.0966 -0.0030  0.1692
13374W        W29183   8.881   3.607   4.256  0.4141  0.0434 -0.1605
13375W        W29184  17.719  18.285  11.751  0.0304 -0.0071  0.0168
13376W        W29185  14.110   3.672  15.218 -0.0119  0.2032  0.2235
13377W        W29186   2.746   5.324  13.747 -0.3619  0.0702 -0.2110
13378W        W29187  12.950   9.393  12.861 -0.1330 -0.1998  0.0732
13379W        W29188  10.447   7.367  10.802 -0.3089  0.3838 -0.0546
13380W        W29189  16.430  16.233  13.068 -0.1903  0.1335  0.0234
13381W        W29190   5.558   7.886   1.870  0.2581  0.1361  0.0415
13382W        W29191  16.711  11.600  12.565  0.1973  0.0862  0.0285
13383W        W29192   2.814   7.690  10.304  0.0281  0.4539  0.1508
13384W        W29193  13.240  17.814   2.824  0.2968 -0.0837 -0.2608
13385W        W29194  10.270  17.933   5.220 -0.0510  0.1056 -0.3422
13386W        W29195  13.009   0.747   0.501  0.0747  0.0220  0.2046
13387W        W29196  18.340   0.652  10.676 -0.1221  0.2208 -0.1616
13388W        W29197   7.959  18.077   4.338  0.1848  0.1081  0.0552
13389W        W29198  18.184   2.075  11.999 -0.1493  0.3384  0.0856
13390W        W29199   5.322  18.797  13.562  0.0233 -0.1474 -0.2546
13391W        W29200  13.648  17.471   0.816  0.0248 -0.0014  0.2802
13392W        W29201   1.518  13.498  11.437  0.1420  0.1836  0.2076
13393W        W29202  13.457  12.657  13.008  0.0116 -0.1023 -0.1033
13394W        W29203  12.038  18.833   0.715 -0.1865 -0.0923 -0.0267
13395W        W29204   9.290   3.123   4.958  0.1476  0.0030 -0.0410
13396W        W29205   4.154   5.392   3.155 -0.4530 -0.1082 -0.1055
13397W        W29206   0.682   2.694   1.815 -0.0177  0.0072  0.2674
13398W        W29207  14.894  15.400   5.046 -0.3099 -0.1976 -0.1432
13399W        W29208   3.416  10.625   2.684  0.0748  0.1637 -0.3890
13400W        W29209  11.235  11.468  13.943  0.0449  0.0762 -0.0228
13401W        W29210   9.690   8.461  11.284  0.2655 -0.1877 -0.1561
13402W        W29211   7.843  12.514   2.049 -0.1917 -0.0440  0.1364
13403W        W29212   8.172  14.260   2.311 -0.0023  0.2589  0.0963
13404W        W29213   2.128   4.541  10.715 -0.3956  0.1577  0.3157
13405W        W29214  12.059   0.522  12.358  0.0831  0.2119  0.1643
13406W        W29215  17.867  10.719   5.420  0.2660  0.0970 -0.2714
13407W        W29216  11.237  12.899   5.186  0.2834  0.2443 -0.3529
13408W        W29217  12.221  15.312  11.280  0.0156 -0.2928  0.0690
13409W        W29218  14.383  15.609   5.218 -0.1696  0.0800  0.0512
13410W        W29219  10.274   8.871   4.576 -0.0858 -0.0202  0.2498
13411W        W29220  17.919  12.651  12.982 -0.0138  0.0111 -0.1924
13412W        W29221   9.920  12.353   0.628 -0.0312 -0.1638  0.1359
13413W        W29222   4.848  10.675   4.752  0.1483  0.1349  0.0149
13414W        W29223  10.866   4.619  14.377  0.1569  0.1523 -0.0410
13415W        W29224  17.557  16.743  15.081  0.2745  0.0426  0.0156
13416W        W29225  13.051  18.380  11.611  0.0709 -0.1745 -0.2446
13417W        W29226  18.155   7.447   4.381 -0.2221 -0.0286  0.0086
13418W        W29227  18.511  12.566  11.334 -0.1084  0.2082 -0.0045
13419W        W29228   2.658   4.641  10.461  0.1514 -0.0772 -0.0936
13420W        W29229  16.067  10.414  11.479  0.1087  0.1712 -0.0761
13421W        W29230  10.324   5.018   0.163 -0.2867  0.0547 -0.0127
13422W        W29231   3.109   9.231   1.392  0.0399 -0.1537 -0.0677
13423W        W29232  13.041   5.982  13.508  0.1132  0.1070 -0.0189
13424W        W29233   4.074   6.195  12.089  0.3476 -0.0913  0.1990
13425W        W29234  12.042   4.912  12.441  0.0776 -0.1062  0.3748
13426W        W29235   3.250   2.351  14.929 -0.1515 -0.1341 -0.2196
13427W        W29236   2.023   2.606   2.631  0.2326  0.1144 -0.2279
13428W        W29237   2.308  11.152  13.275  0.1744  0.0429 -0.0945
13429W        W29238   8.162   9.969  14.210 -0.0738  0.0544  0.0845
13430W        W29239   9.869   1.551  13.211 -0.2472  0.2544 -0.0070
13431W        W29240   2.604   5.972   4.834 -0.0865  0.3477  0.3498
13432W        W29241   5.446  18.959  10.288 -0.0843  0.4361 -0.0478
13433W        W29242  12.679   6.672   4.493  0.0023 -0.2594  0.3622
13434W        W29243   5.130  10.781  10.190  0.1904  0.2683  0.1007
13435W        W29244   9.435  17.251   2.072  0.1391  0.0209 -0.0391
13436W        W29245  14.764  12.244  12.914 -0.3000 -0.0371 -0.2073
13437W        W29246   0.778   1.665   3.481  0.0334 -0.5818 -0.0068
13438W        W29247  10.799  18.245  12.637 -0.2470 -0.0893 -0.2172
13439W        W29248   5.883  11.669   2.978  0.2181 -0.1410  0.0301
13440W        W29249  17.161   3.385   3.358  0.0559 -0.1474  0.2640
13441W        W29250  13.195  13.257   2.382 -0.2865  0.2690 -0.1198
13442W        W29251   6.671  18.647   3.699 -0.2103 -0.1648  0.0050
13443W        W29252  13.722  12.968  13.348  0.2131 -0.3999  0.0554
13444W        W29253   4.173   4.780  15.013 -0.0138  0.0014  0.3032
13445W        W29254  10.249  13.687   0.295  0.2167  0.2966 -0.2264
13446W        W29255  10.113   7.938   2.533 -0.0675 -0.1246  0.0873
13447W        W29256   7.487  14.988   0.179 -0.0182  0.4092 -0.0002
13448W        W29257   2.689  17.326   2.336 -0.5229  0.3330 -0.1627
13449W        W29258   8.463  17.070  10.930  0.1843  0.1726 -0.1625
13450W        W29259   7.514  17.244  11.202 -0.0832 -0.3230 -0.0140
13451W        W29260  12.377   9.497   3.485  0.1441 -0.1593 -0.3194
13452W        W29261  11.824  11.547   2.364  0.1363  0.0374 -0.2053
13453W        W29262   4.485  13.758  14.976  0.1295  0.1143 -0.1350
13454W        W29263  15.607  10.144   2.512  0.1142 -0.2858 -0.1051
13455W        W29264   1.973   8.926   3.049  0.0732  0.2577  0.3943
13456W        W29265  13.615   7.597   2.596 -0.1887 -0.3098  0.0035
13457W        W29266  11.785   3.608  13.709 -0.2137 -0.1063  0.2054
13458W        W29267  10.978  13.510   3.282  0.0096 -0.0656 -0.1536
13459W        W29268  16.089   0.586   2.815  0.2150  0.3568  0.1077
13460W        W29269  13.244  18.585   0.705 -0.0603 -0.0161 -0.1010
13461W        W29270  14.485  11.705  13.677 -0.0850  0.1534  0.4865
13462W        W29271   7.966  10.237   5.143  0.2970 -0.2021 -0.0173
13463W        W29272   9.176  17.666  13.831 -0.2103  0.1173 -0.0036
13464W        W29273  15.243   6.574  10.924  0.1041 -0.0678  0.0734
13465W        W29274  18.026   9.482   3.979  0.2260  0.0077 -0.0967
13466W        W29275   1.216   7.795  13.624  0.0488 -0.1023 -0.0177
13467W        W29276   3.598  12.583  11.489 -0.0240  0.1333  0.2182
13468W        W29277  12.820  14.405   0.712  0.1115  0.0938 -0.2419
13469W        W29278  14.974   1.971  11.436  0.1452  0.0063 -0.4341
13470W        W29279  11.910  12.790  11.951  0.1493  0.0103 -0.1999
13471W        W29280   4.939   7.030  14.952  0.1016 -0.0267 -0.1120
13472W        W29281  15.994  16.252   3.958  0.3371  0.2558 -0.1752
13473W        W29282  17.331   0.902   0.977  0.2574 -0.1663 -0.2455
13474W        W29283   9.305  13.112   1.954  0.1368 -0.1357  0.0943
13475W        W29284   6.627   8.750  14.033 -0.0008  0.0487 -0.1437
13476W        W29285   9.791   7.925  13.579 -0.2618 -0.1333  0.2663
13477W        W29286   1.200   4.152  14.711 -0.0154 -0.3199 -0.0586
13478W        W29287   7.197  18.453   1.128  0.1784 -0.1107 -0.2778
13479W        W29288  13.948   4.797   0.887  0.1230  0.0013  0.0535
13480W        W29289  18.643  17.367   2.557 -0.2961  0.0647  0.2358
13481W        W29290   3.461   4.702  14.304 -0.1501 -0.1109  0.1443
13482W        W29291  15.290   2.803   3.592  0.1875 -0.0569 -0.0247
13483W        W29292  16.803  10.778   4.630  0.0468 -0.2970 -0.0203
13484W        W29293   4.259   4.529  13.103 -0.1252  0.0757  0.2373
13485W        W29294  16.991   4.815  10.452  0.0674  0.0503 -0.0092
13486W        W29295   6.858  17.664   4.789 -0.0791  0.1444 -0.0461
13487W        W29296  10.432  10.394  13.452  0.0553  0.0713 -0.1170
13488W        W29297   4.182   9.593   5.364  0.2227 -0.0846  0.3612
13489W        W29298   4.503   7.259  10.544 -0.2648  0.1230  0.0587
13490W        W29299  16.846   3.977  11.606  0.1819 -0.2286 -0.0108
13491W        W29300  12.930   6.377  12.149  0.0845 -0.0727  0.0798
13492W        W29301  16.037   4.962   3.985 -0.4153 -0.1186  0.1291
13493W        W29302  18.788  11.610  11.210  0.0181 -0.2901  0.0525
13494W        W29303  17.472  19.005   2.664  0.2155  0.2180  0.4401
13495W        W29304   2.581  15.896  12.884 -0.4702 -0.2633  0.0690
13496W        W29305   7.953   1.005   3.464 -0.1972  0.1516  0.1019
13497W        W29306   7.598   5.611  10.088 -0.2019  0.0020  0.1232
13498W        W29307   1.777   7.530   2.515  0.1564  0.0054  0.0462
13499W        W29308   0.631   3.487   2.645  0.1271 -0.1812 -0.2353
13500W        W29309  10.427  11.099   1.575  0.1112 -0.2316  0.1325
13501W        W29310  11.048  10.470   4.362  0.1583 -0.0987  0.1163
13502W        W29311   5.939   2.485  14.481  0.2191 -0.4911 -0.2054
13503W        W29312   1.428   1.996   0.809  0.0149 -0.0918 -0.0090
13504W        W29313   3.098   6.662   0.619  0.0526  0.3661 -0.0022
13505W        W29314   1.621   7.554  13.441  0.1079  0.2603 -0.0422
13506W        W29315  17.724   2.571  10.514 -0.3766  0.0494  0.3434
13507W        W29316   0.367   5.669  13.675  0.0543 -0.2090 -0.3990
13508W        W29317  11.187   3.050   3.445  0.1575  0.2323  0.0125
13509W        W29318  18.475   0.326   1.990 -0.1075 -0.0525 -0.1105
13510W        W29319   6.134  12.702   4.093  0.3096 -0.4181  0.2986
13511W        W29320  15.597  12.898  11.695  0.4193 -0.1086 -0.1985
13512W        W29321  18.341  12.330  14.907  0.0943 -0.0416 -0.1446
13513W        W29322   2.259  10.396  14.575 -0.1535 -0.2749  0.2557
13514W        W29323  15.580   6.897   0.078  0.1432  0.2658 -0.3607
13515W        W29324  15.563   7.154   3.919 -0.2256 -0.4836  0.3946
13516W        W29325  16.734   8.773  14.325  0.0882 -0.0553 -0.1135
13517W        W29326  18.381  13.820   0.225  0.0642  0.0998  0.2610
13518W        W29327  10.980   2.985   2.864 -0.1438  0.1118 -0.4344
13519W        W29328  12.911   2.282  11.538 -0.1878 -0.6322 -0.0697
13520W        W29329   4.471  17.465  12.955 -0.0118  0.1651  0.1241
13521W        W29330  14.306   0.338  14.813 -0.1204  0.2609 -0.0326
13522W        W29331  18.865   6.992   2.378 -0.0667  0.1230 -0.0547
13523W        W29332  16.502   1.521   1.436 -0.1913 -0.0473 -0.0679
13524W        W29333  18.446  18.906  12.218  0.3584 -0.1528 -0.0781
13525W        W29334  13.630  11.740   4.619 -0.1748 -0.0987 -0.1818
13526W        W29335  11.337   2.054  10.573  0.1895  0.1533  0.1743
13527W        W29336   8.344   1.154  10.740 -0.2074  0.2632 -0.2515
13528W        W29337  15.538  14.442   4.915 -0.0191  0.3600 -0.0934
13529W        W29338   6.644   6.594   1.628 -0.0002 -0.3824  0.2411
13530W        W29339   1.503  12.664  15.110  0.2112 -0.1896 -0.1480
13531W        W29340  10.031   6.619   0.268 -0.1866 -0.3260 -0.1178
13532W        W29341  15.722  15.116   4.491 -0.0432 -0.3109 -0.2727
13533W        W29342  10.972  11.536   3.526 -0.0435 -0.1499  0.3197
13534W        W29343   8.825  19.085   1.714 -0.0291  0.1316 -0.4382
13535W        W29344   2.882   6.557   1.735 -0.1447 -0.2548 -0.2882
13536W        W29345   8.045   4.636  12.103 -0.3572 -0.1124  0.1396
13537W        W29346  10.919  16.812  13.091  0.0626  0.2371  0.0842
13538W        W29347  16.108  11.367  13.212 -0.1467 -0.0855 -0.1557
13539W        W29348   8.140   7.072  14.297  0.0433 -0.2275 -0.2566
13540W        W29349  10.346   2.842  11.300 -0.1937  0.1685  0.2054
13541W        W29350   2.659  14.339   0.972  0.1019 -0.1505  0.3673
13542W        W29351   5.523  12.823  10.871 -0.1934 -0.1484  0.1108
13543W        W29352   8.881  13.291  13.618 -0.3830 -0.1524  0.2778
13544W        W29353   3.598  13.205   4.832  0.0148 -0.0175 -0.2725
13545W        W29354   9.582   4.013  11.596  0.1375  0.1183  0.3037
13546W        W29355   2.981   4.330   1.266 -0.0956 -0.0780  0.1110
13547W        W29356   6.561  11.267  10.927  0.0884 -0.1021  0.0246
13548W        W29357   1.140  17.878  11.321  0.3411 -0.2737 -0.0835
13549W        W29358   2.625   4.134   3.082  0.3723 -0.2301  0.0505
13550W        W29359   3.911   9.582   3.862  0.2379  0.0379  0.1110
13551W        W29360  18.052   7.044  14.772 -0.2346  0.1712  0.1761
13552W        W29361  13.337   5.919   0.160 -0.2330 -0.3064 -0.1607
13553W        W29362  10.327  18.248   1.022 -0.0633  0.1228  0.0569
13554W        W29363   1.298  17.227  12.399  0.1003  0.2091 -0.3020
13555W        W29364   6.194  13.515   9.458  0.1777  0.2024  0.2278
13556W        W29365   7.244   4.664  13.695 -0.0261  0.0736  0.0195
13557W        W29366  10.856  17.587  14.291 -0.1896  0.1499  0.0784
13558W        W29367  16.449   3.922   1.576  0.1161 -0.4466  0.0588
13559W        W29368   4.116  12.838   9.737 -0.0595  0.0574 -0.0558
13560W        W29369  12.945  16.151  14.506 -0.0237  0.1876  0.2556
13561W        W29370  15.036  17.012   2.656 -0.1415  0.0229 -0.1189
13562W        W29371  14.217   0.145  13.155 -0.1059  0.0887  0.0568
13563W        W29372  15.770  15.926  13.326 -0.0348 -0.2897  0.4257
13564W        W29373  12.488  16.502  11.118 -0.0360 -0.1018  0.0133
13565W        W29374  13.693   5.165   1.504  0.0010  0.1996 -0.1219
13566W        W29375   1.871  10.764   1.317 -0.1745  0.1031 -0.2643
13567W        W29376   2.165  18.637  11.793  0.1768 -0.0102 -0.0653
13568W        W29377   9.249   9.254  14.217 -0.2200 -0.1460 -0.2578
13569W        W29378   6.516  10.747  10.490 -0.1347 -0.0375  0.1311
13570W        W29379  16.155  12.348  13.162  0.2635 -0.2843 -0.3637
13571W        W29380  17.605  10.026   4.595  0.0632 -0.4113 -0.1136
13572W        W29381  18.823   2.141  13.598 -0.1169  0.0330 -0.2991
13573W        W29382   1.204  14.281  11.050 -0.0562 -0.0417  0.0750
13574W        W29383   3.873  17.680  14.722 -0.0640 -0.0104 -0.0410
13575W        W29384   3.019  12.740   5.219 -0.1201 -0.2966  0.1151
13576W        W29385  12.001   0.886  14.592  0.0498  0.0679 -0.0554
13577W        W29386  15.528   8.434   5.589 -0.0349  0.1350  0.3237
13578W        W29387  15.921  16.077   0.730  0.2819 -0.0538  0.0847
13579W        W29388  13.757   6.609  12.778 -0.2255  0.1890  0.1610
13580W        W29389   0.707   4.658   1.182 -0.0624  0.3939 -0.1140
13581W        W29390  16.956  11.065  13.394 -0.0710 -0.1402  0.1509
13582W        W29391   1.153  16.749   4.643  0.3212  0.0898  0.0654
13583W        W29392  12.897   7.601   3.188 -0.1397  0.1919 -0.0861
13584W        W29393  12.496  15.380  14.636 -0.0204 -0.3728 -0.1801
13585W        W29394   7.183  13.056   2.806  0.0661 -0.0610 -0.1216
13586W        W29395   4.464   9.885  11.762 -0.1866  0.0038 -0.2408
13587W        W29396  12.362  14.734   1.852  0.2235 -0.1202  0.1055
13588W        W29397   6.900   8.977  14.420 -0.1193 -0.0241 -0.0424
13589W        W29398   2.547   8.692   2.031  0.1120  0.1726 -0.1010
13590W        W29399  16.208  16.598  14.416  0.3514 -0.3273 -0.2741
13591W        W29400  13.390   4.576  12.625  0.2197  0.0990 -0.0224
13592W        W29401   0.420   0.656   2.202 -0.3144  0.0298 -0.3595
13593W        W29402   0.605   5.474  11.868 -0.0641 -0.1099 -0.2629
13594W        W29403   3.316   3.428   4.184 -0.2075  0.1388 -0.1594
13595W        W29404   1.851  16.733  12.863 -0.1328 -0.1816 -0.2881
13596W        W29405   1.450  12.706  10.722  0.1437 -0.0118  0.1011
13597W        W29406  18.020  14.717   4.960  0.0827 -0.3440 -0.2616
13598W        W29407  16.914   0.943   5.014 -0.2256  0.1899  0.1512
13599W        W29408   0.669   7.517   3.339 -0.1207  0.3725  0.0966
13600W        W29409  10.128   0.422  11.472  0.0102  0.0735  0.1636
13601W        W29410  15.669  15.586   4.514  0.0369 -0.1094 -0.3735
13602W        W29411  17.873  17.245   1.738 -0.0723 -0.2452 -0.0649
13603W        W29412   7.444  11.981   1.916  0.0209  0.2617 -0.0294
13604W        W29413  18.062   5.959   4.067 -0.3518 -0.2295 -0.0193
13605W        W29414  17.290  15.337  11.068  0.2976 -0.0776  0.1275
13606W        W29415   0.758  10.146   4.234 -0.0808 -0.3942 -0.0606
13607W        W29416   9.399   1.219   2.486 -0.4268 -0.0537 -0.1360
13608W        W29417  18.170   0.451  14.586 -0.4081  0.0022 -0.2238
13609W        W29418   0.730   6.069   3.331  0.0512  0.0295 -0.1205
13610W        W29419   3.379   0.705  10.608  0.0821 -0.2140 -0.1501
13611W        W29420  16.384   9.970  10.206  0.0392 -0.0264  0.3040
13612W        W29421   7.881  17.381   9.625  0.0692 -0.2777 -0.1455
13613W        W29422  16.476  12.514  13.503 -0.2395  0.0613 -0.0518
13614W        W29423   3.966   8.885  14.548  0.0066 -0.2214 -0.3471
13615W        W29424  12.531  10.406  13.211 -0.0632 -0.1901 -0.0155
13616W        W29425  13.140  10.282   1.522 -0.3335 -0.1607 -0.0254
13617W        W29426  12.028  12.678  13.288 -0.2067 -0.0823  0.1285
13618W        W29427  13.698  14.761   4.652 -0.2563 -0.0443 -0.0771
13619W        W29428  11.950  10.425   1.463  0.2941 -0.3398  0.0604
13620W        W29429  15.952   9.568   2.707  0.1375 -0.3565 -0.1066
13621W        W29430   7.955   9.657  12.846 -0.1134  0.0472  0.1772
13622W        W29431  18.218  17.284   3.720 -0.3836 -0.1825 -0.1483
13623W        W29432   8.536  13.122  14.500  0.1009  0.0588 -0.0442
13624W        W29433   3.357  18.323   2.586 -0.2481 -0.1581 -0.3381
13625W        W29434  18.971   5.827   1.203  0.4107 -0.0531 -0.0768
13626W        W29435  15.832  11.132  12.362  0.3981  0.0917  0.2553
13627W        W29436  19.106   2.134   4.984  0.6220 -0.1909 -0.0441
13628W        W29437  15.328  16.613   2.583 -0.0587  0.3343  0.0991
13629W        W29438   6.123   4.051   1.642 -0.5991  0.0377 -0.4583
13630W        W29439   4.149   4.418  14.337 -0.2155 -0.0952 -0.0904
13631W        W29440  12.527   6.979   2.103  0.1644 -0.0916 -0.1576
13632W        W29441  18.578   5.682  14.537  0.1276  0.1241 -0.0576
13633W        W29442   4.784   0.522   0.016  0.1547 -0.0789 -0.1300
13634W        W29443   5.305   3.779   4.826 -0.0185  0.0720 -0.4014
13635W        W29444  16.568   1.200  11.788 -0.4062 -0.2862 -0.0176
13636W        W29445  11.350  16.318  12.444 -0.0293  0.2089 -0.0557
13637W        W29446  17.471  14.561   4.047 -0.0383  0.5426 -0.2709
13638W        W29447   9.378   3.612  10.500 -0.1236 -0.0388 -0.0101
13639W        W29448  14.916   7.156   1.088  0.0420 -0.1001 -0.0467
13640W        W29449   7.956   1.163  14.232  0.0013 -0.1665 -0.3039
13641W        W29450   5.318  15.205  11.779 -0.2288 -0.1377  0.1416
13642W        W29451  11.892   2.060   0.961  0.2696  0.2561  0.0467
13643W        W29452  13.701  11.311  13.342  0.1438  0.2388 -0.1239
13644W        W29453  15.178  17.279  12.458  0.0973  0.0248 -0.1401
13645W        W29454  11.160   8.938  12.676  0.0117  0.0004 -0.0815
13646W        W29455  10.638   4.857  12.742  0.2331 -0.0671 -0.0226
13647W        W29456  10.906   0.987  12.193 -0.0245  0.0079 -0.0440
13648W        W29457   1.041   8.103   4.619  0.1261 -0.3024 -0.3026
13649W        W29458   7.067  15.337   2.067 -0.5022  0.2542 -0.1664
13650W        W29459   7.430   0.223  10.659  0.3397 -0.2988 -0.1384
13651W        W29460  15.746   9.110   4.779 -0.1517 -0.1937  0.1571
13652W        W29461   9.052   2.014   1.369 -0.1379  0.2720  0.0650
13653W        W29462  11.118  10.135  11.367  0.0772 -0.0610 -0.2488
13654W        W29463   8.469   8.834   3.514  0.0815  0.1738 -0.0423
13655W        W29464  17.174  10.538  14.871 -0.2222  0.0474  0.2515
13656W        W29465   9.859   5.105  10.642 -0.0321  0.1515 -0.0945
13657W        W29466   8.694   1.476  14.473  0.2983  0.0571 -0.2818
13658W        W29467   7.240  18.583  13.203  0.1262  0.0027 -0.2283
13659W        W29468   9.023  11.810   2.966 -0.0047 -0.3686  0.2313
13660W        W29469  17.129  14.681   0.069  0.0231  0.3860 -0.2656
13661W        W29470  14.915   2.312   2.865  0.0993  0.0825  0.2463
13662W        W29471  17.989   1.552   4.448 -0.3033  0.3057 -0.0157
13663W        W29472  12.125   8.001  11.406 -0.1961  0.3426  0.2283
13664W        W29473  17.601   0.697   1.397  0.0483 -0.2141 -0.1237
13665W        W29474  13.891  10.688  11.125 -0.2495  0.0763 -0.1673
13666W        W29475  12.669   5.449  13.537 -0.2437  0.2627  0.0859
13667W        W29476   5.453   2.674  12.081  0.0431 -0.0636  0.0382
13668W        W29477  13.933   1.824  10.727  0.1123 -0.0408  0.2425
13669W        W29478   4.543   1.710   4.836  0.2555 -0.0044 -0.1440
13670W        W29479   9.308   4.327  13.773 -0.2355  0.4828 -0.1015
13671W        W29480  11.983  16.944  10.496  0.1481 -0.2880  0.1878
13672W        W29481   9.153  11.249   3.526  0.1548  0.0235  0.0471
13673W        W29482   2.515  14.013   3.943 -0.1359  0.0437  0.1087
13674W        W29483  16.496   8.705  14.772 -0.1497  0.0685  0.1101
13675W        W29484  18.293   0.897  14.553  0.1297  0.1102 -0.1085
13676W        W29485  17.858   1.240   2.467  0.1862  0.3129  0.1973
13677W        W29486  10.303   6.470  11.896 -0.1446 -0.0228  0.0766
13678W        W29487   2.964   3.662   3.879  0.3921  0.3126 -0.1994
13679W        W29488   4.552  11.007   3.578 -0.1040 -0.1721  0.0728
13680W        W29489   1.640   2.309  11.327 -0.0170  0.3049  0.0621
13681W        W29490  13.631  13.816   1.795 -0.1655 -0.1093 -0.1737
13682W        W29491   1.753   6.073  10.580  0.0045 -0.1530 -0.0769
13683W        W29492  12.215  18.197   5.180  0.1569 -0.1276 -0.0714
13684W        W29493  14.376  18.379  11.513 -0.0923  0.1888  0.3934
13685W        W29494  13.850   0.079  14.921  0.0685 -0.1069 -0.0194
13686W        W29495  10.234   6.360   2.391  0.1219  0.1547  0.0329
13687W        W29496   8.668  10.025   1.141  0.1053  0.0596 -0.1762
13688W        W29497   8.648   6.728  14.147 -0.1476 -0.2224  0.0918
13689W        W29498  11.038  13.290   1.504  0.0829 -0.4052 -0.5075
13690W        W29499   7.915  16.373   5.382  0.3511 -0.0221 -0.1873
13691W        W29500  14.953  12.332  13.966  0.3518 -0.0154 -0.4882
13692W        W29501   3.139  14.559  10.872 -0.0545  0.0456 -0.0232
13693W        W29502   4.395   7.204   0.302  0.0398  0.1386 -0.0342
13694W        W29503   1.577   8.524  14.034  0.1761 -0.0628  0.0028
13695W        W29504  10.725   0.724  13.754  0.0034  0.1873  0.0999
13696W        W29505  14.145   2.955   5.145  0.1028  0.2119  0.0777
13697W        W29506  15.060   7.645  13.945  0.1894 -0.1002  0.0833
13698W        W29507   3.001  13.528  12.886 -0.1210  0.1520  0.3769
13699W        W29508   8.773   6.693   4.969  0.1465  0.2077  0.1701
13700W        W29509   3.472  15.252  14.788 -0.1869  0.2105  0.0418
13701W        W29510  13.712  16.321  13.559  0.0212  0.1463 -0.1267
13702W        W29511  14.335   2.767   0.939  0.1188  0.0115  0.1361
13703W        W29512   4.916   6.690  11.547  0.2576 -0.1038 -0.1678
13704W        W29513   0.535  13.051  15.029 -0.0790 -0.1167  0.2868
13705W        W29514   9.434  11.872  12.996 -0.0545 -0.0506 -0.0246
13706W        W29515  14.451   1.943  10.709 -0.1035  0.1861  0.0399
13707W        W29516   1.386  18.225   0.685 -0.0864  0.1613 -0.1382
13708W        W29517  16.697  17.672  13.553 -0.0789 -0.1309 -0.2691
13709W        W29518   3.305  13.278  12.068  0.1110  0.0724 -0.0780
13710W        W29519   4.831  15.733  15.253 -0.3655 -0.2856 -0.1335
13711W        W29520  18.425   5.520   3.154  0.1316 -0.2065  0.0703
13712W        W29521  13.304   3.943  10.587 -0.0285  0.1685  0.2203
13713W        W29522  14.409   7.175  14.065 -0.3019 -0.2496  0.0291
13714W        W29523   1.494  11.761  11.150 -0.0713 -0.3034  0.2026
13715W        W29524  12.819   5.472   0.927  0.0341  0.1675  0.3066
13716W        W29525   0.525   6.874   5.716 -0.4247 -0.3968  0.0399
13717W        W29526  10.298   2.064   3.672 -0.2645  0.0191 -0.1131
13718W        W29527  17.965  16.536  14.405 -0.2794  0.0531 -0.3937
13719W        W29528  17.344   5.624  14.086  0.0512  0.2926  0.2568
13720W        W29529   6.634   5.152   1.179  0.0674  0.1229  0.0855
13721W        W29530  13.876  11.183  15.243  0.2278  0.2735  0.0298
13722W        W29531   6.348  12.822   0.186  0.0623 -0.1466  0.4314
13723W        W29532  15.349  13.300   0.019 -0.4593  0.2595  0.3201
13724W        W29533  10.658   5.132   1.258  0.1150  0.0012  0.0991
13725W        W29534  10.132   1.246   1.228 -0.0304  0.1684  0.0755
13726W        W29535   2.882  17.898   1.011 -0.2376  0.4782  0.4473
13727W        W29536  16.098   0.454   3.311 -0.0474 -0.0226 -0.2502
13728W        W29537   5.166  15.254   1.360 -0.1124 -0.2760  0.1144
13729W        W29538   6.141   3.058  10.374  0.0287 -0.0632 -0.0621
13730W        W29539   0.461   4.299   3.309  0.2948 -0.1659 -0.1697
13731W        W29540   7.563  10.712   3.551  0.0990  0.3433 -0.1983
13732W        W29541   0.797   3.593  14.859  0.2600  0.1848  0.4811
13733W        W29542   2.642   5.136  10.134  0.1056 -0.1934  0.1725
13734W        W29543  13.745   8.295   1.156 -0.0597  0.1153 -0.1216
13735W        W29544   2.475  12.521   6.062 -0.0654 -0.0259 -0.1627
13736W        W29545   8.553  16.007  15.233 -0.1353  0.3358 -0.2253
13737W        W29546   2.054  10.481  14.998  0.1927 -0.1262  0.0939
13738W        W29547  12.041   9.985   3.615 -0.3869 -0.0843  0.0749
13739W        W29548  19.042   5.392   9.569 -0.0589 -0.3370 -0.1499
13740W        W29549   2.422   6.951   3.028 -0.0142 -0.0979 -0.0318
13741W        W29550  10.421   6.286   1.941 -0.1378 -0.1660 -0.0231
13742W        W29551   1.988  15.993  10.629  0.0715  0.0774  0.2885
13743W        W29552   7.142  12.774  11.287  0.1573 -0.3497 -0.0171
13744W        W29553   2.344  17.778   2.096  0.1134  0.1428 -0.0405
13745W        W29554  16.297  13.541  10.774 -0.0487 -0.2655  0.3073
13746W        W29555   9.773  12.257  12.461 -0.1626 -0.0677 -0.0216
13747W        W29556  14.816   3.574  13.264 -0.1002  0.1006 -0.2627
13748W        W29557  13.554   2.878  15.040  0.0224 -0.1071  0.0306
13749W        W29558  13.998   6.590   0.490 -0.0822  0.0837  0.0107
13750W        W29559   8.699   1.626   1.214  0.1795 -0.2814  0.0637
13751W        W29560  16.376   1.512   4.595 -0.2330  0.0508  0.1487
13752W        W29561  13.333  10.196  14.919 -0.3002 -0.0234  0.3547
13753W        W29562  12.237   9.294  11.829  0.4773 -0.0921 -0.0625
13754W        W29563   2.259  11.764   4.994  0.0181  0.0223 -0.2259
13755W        W29564   6.246   1.858   0.823 -0.0004  0.1473 -0.1132
13756W        W29565  14.335  14.290   2.966 -0.0283  0.2304  0.2649
13757W        W29566   2.130  14.026  10.287  0.1256 -0.0544 -0.1090
13758W        W29567  10.186  14.694  10.358  0.0393  0.2449  0.0282
13759W        W29568   9.063   0.216  10.785  0.0975  0.0697  0.0971
13760W        W29569  15.438   2.829  14.856  0.1309  0.0051  0.2438
13761W        W29570  13.943  16.670  14.532  0.2086 -0.2215 -0.3379
13762W        W29571   2.648   2.951   4.443  0.0984 -0.2925 -0.0292
13763W        W29572   5.037   5.023   4.502 -0.0182 -0.0551  0.4508
13764W        W29573   4.053  15.439  14.815 -0.0123  0.2178  0.1665
13765W        W29574  12.536  12.126   0.188  0.1064 -0.3368 -0.0027
13766W        W29575  14.828   8.150   1.291 -0.0401 -0.0013 -0.0694
13767W        W29576  18.820  18.553   3.341 -0.2486  0.0229 -0.0557
13768W        W29577  10.683   7.547  12.722 -0.1258 -0.5842  0.0408
13769W        W29578  16.636   4.271  13.483  0.0939 -0.2721 -0.3838
13770W        W29579  18.094  18.630   0.860 -0.1919  0.1082  0.0633
13771W        W29580  18.950  14.561   4.354 -0.2381 -0.0277  0.0914
13772W        W29581   7.607  13.908   4.508  0.0130  0.1398  0.0207
13773W        W29582   3.094   9.462   5.298 -0.2736 -0.1687  0.0677
13774W        W29583  14.613  14.722  11.546 -0.0147 -0.2670  0.2394
13775W        W29584   1.017  16.873   2.008 -0.1018  0.0633  0.0909
13776W        W29585   9.778   9.494  14.349 -0.3392 -0.1273  0.5322
13777W        W29586   6.797   8.813   2.652  0.0998  0.1287 -0.3800
13778W        W29587   4.988   1.856   3.318  0.2206  0.0610  0.0851
13779W        W29588  13.652  16.554   0.747 -0.2686 -0.1107  0.0885
13780W        W29589   2.075  11.697   3.868  0.1582  0.0025 -0.0457
13781W        W29590  11.787  11.726   4.315  0.1213 -0.1723  0.0448
13782W        W29591  12.909   7.794   1.516  0.2082 -0.3425 -0.1395
13783W        W29592   2.453   7.155  11.906 -0.1744 -0.2220 -0.2063
13784W        W29593   8.644   5.872  13.730 -0.1772 -0.1695  0.3934
13785W        W29594   7.295  14.579   4.972 -0.0232 -0.0956 -0.0437
13786W        W29595  10.088  15.269   1.534  0.1340  0.1264 -0.0932
13787W        W29596   0.897  17.380   2.274 -0.0809  0.4050 -0.1876
13788W        W29597   0.294  10.291   1.687 -0.4128 -0.0966 -0.1428
13789W        W29598   4.267   7.776   2.134  0.2471 -0.3025  0.0969
13790W        W29599  12.176   6.627   2.345  0.1583 -0.2305 -0.0860
13791W        W29600   6.989  10.047  14.380  0.0796  0.2516  0.1427
13792W        W29601  17.690   7.907   1.235 -0.0316 -0.3355 -0.2415
13793W        W29602   2.711  15.322  13.396  0.2722 -0.0935  0.1185
13794W        W29603   6.534  14.123  10.962  0.0178 -0.0574  0.3527
13795W        W29604  16.896  12.594  12.719 -0.0425  0.3737 -0.1647
13796W        W29605   6.912  12.722   2.461 -0.1755  0.0941  0.0248
13797W        W29606   1.942   1.906  13.945 -0.2475 -0.2484 -0.0657
13798W        W29607  14.524   1.947   1.513  0.1947  0.1535 -0.2154
13799W        W29608   4.589   7.237  13.876  0.2572 -0.0607 -0.2499
13800W        W29609   6.361  15.037  11.826 -0.0580 -0.0841 -0.0163
13801W        W29610   5.780   9.072   4.563  0.3175  0.0986  0.0924
13802W        W29611  12.723  15.827   1.134 -0.0533  0.1060 -0.2053
13803W        W29612   5.900  13.101   0.272  0.1949 -0.1460  0.1505
13804W        W29613   5.149   2.726   2.844  0.1039 -0.2817  0.1208
13805W        W29614   5.883   7.787  14.647  0.0310 -0.2135 -0.0470
13806W        W29615   1.599  14.284   3.149 -0.2645  0.1722  0.0767
13807W        W29616   1.524  10.475   4.728 -0.2402  0.1449 -0.2944
13808W        W29617   1.845   5.058  14.753 -0.0237 -0.1208  0.0830
13809W        W29618   4.031  11.534  13.635 -0.2672  0.0600  0.1536
13810W        W29619   6.158  16.383   1.197 -0.1424  0.0438 -0.1858
13811W        W29620  11.409   1.604   1.262 -0.0223  0.0950 -0.0541
13812W        W29621  16.541  12.088   0.262  0.1185  0.5070  0.1027
13813W        W29622   9.355  15.750   3.266 -0.0597  0.1651 -0.5498
13814W        W29623   7.547   9.048   4.500 -0.1988  0.0128 -0.0052
13815W        W29624  13.468  18.112   5.049  0.0161 -0.1801  0.2106
13816W        W29625   0.298  13.058   4.196  0.1270  0.1748 -0.1569
13817W        W29626  18.900  18.403   3.807  0.2347 -0.0048 -0.0386
13818W        W29627  15.926  17.188  13.835  0.2687 -0.4486 -0.0802
13819W        W29628   0.614   3.776   4.308  0.3614  0.4220  0.2747
13820W        W29629   0.084   1.734  13.746 -0.0868  0.2400 -0.1221
13821W        W29630   7.415  15.472   0.548 -0.2509  0.1382  0.2818
13822W        W29631  11.520   1.221   1.623 -0.1286  0.1103 -0.0670
13823W        W29632   8.450  10.708   9.874  0.2979 -0.3716  0.2091
13824W        W29633   1.995   1.014   3.588 -0.1056 -0.1044 -0.0571
13825W        W29634   8.787  10.671  11.095 -0.0675  0.3301  0.0029
13826W        W29635   8.206  17.168  10.226 -0.0313  0.3134  0.0463
13827W        W29636   5.462  11.960   3.278  0.3135  0.3219  0.1132
13828W        W29637  15.186  11.290  14.994  0.0368 -0.0068  0.1761
13829W        W29638   8.142  13.593  12.070  0.0556  0.2019  0.1758
13830W        W29639  17.986   3.886  12.605 -0.2026 -0.2721 -0.0197
13831W        W29640   2.306   5.032  10.605 -0.0498 -0.0479 -0.0052
13832W        W29641   1.136   1.942   0.215  0.0219  0.2647 -0.0026
13833W        W29642  11.104   8.800   3.924  0.0487  0.2552 -0.2515
13834W        W29643   6.528  17.849   4.403 -0.0349 -0.0790 -0.2404
13835W        W29644   2.123   4.120   4.331  0.2747 -0.1416 -0.0538
13836W        W29645   9.017   6.370   5.271  0.0230 -0.0481  0.1230
13837W        W29646   2.327  17.504   5.005 -0.1068 -0.1224  0.5420
13838W        W29647   0.252  18.205   1.026 -0.0592  0.0415 -0.0649
13839W        W29648  10.048   3.940   3.544 -0.1294  0.1646 -0.1604
13840W        W29649  11.668  18.451  11.472  0.1114 -0.0477  0.4505
13841W        W29650  16.839   4.159  14.024 -0.0498  0.4477 -0.1006
13842W        W29651   0.697   3.797   3.382 -0.0222 -0.0241  0.1557
13843W        W29652   0.857   0.767   0.689 -0.0673  0.2244  0.3477
13844W        W29653  16.666   5.933  12.424 -0.1684 -0.0173 -0.2354
13845W        W29654   7.021   4.302   4.191  0.0081 -0.0721  0.1218
13846W        W29655   0.524   1.491   5.002  0.1438 -0.4728 -0.0446
13847W        W29656   4.655  13.130  11.266 -0.0557  0.0295  0.1616
13848W        W29657   3.296   0.777  11.976  0.1092 -0.2049 -0.0434
13849W        W29658   9.011   4.373  10.370  0.1209  0.1057  0.2702
13850W        W29659  13.580  12.551   2.057 -0.0384  0.0059  0.2953
13851W        W29660   9.816  15.594   2.059  0.0725  0.2274 -0.1127
13852W        W29661   3.193   3.631   2.545 -0.0401 -0.3099  0.0426
13853W        W29662  12.583   0.032  14.878  0.1816  0.1323 -0.1339
13854W        W29663   7.831   7.661   4.171 -0.0234  0.0047  0.2916
13855W        W29664   6.002   0.105   2.635  0.0325  0.0111 -0.0796
13856W        W29665   5.370   2.583  10.248 -0.2231  0.1879  0.1193
13857W        W29666  11.651  14.766   1.373  0.0284  0.1690  0.7244
13858W        W29667  12.318   0.102  13.845 -0.0732 -0.0008  0.1083
13859W        W29668  15.603   1.526   2.494 -0.0829 -0.0556  0.1630
13860W        W29669  10.851   2.249   3.664  0.4327 -0.1773 -0.1877
13861W        W29670  12.453   9.986  12.490  0.3145  0.3212 -0.0673
13862W        W29671   8.105   5.202  12.054 -0.1434  0.0006 -0.4799
13863W        W29672   3.059  12.306   1.942 -0.0672 -0.4308 -0.0900
13864W        W29673  16.458   4.752  13.303 -0.1577  0.0830 -0.2386
13865W        W29674   7.495  10.354   1.987  0.0712  0.0479  0.0840
13866W        W29675   1.900   0.252  14.806  0.1889 -0.2461 -0.1112
13867W        W29676   1.875   3.554   5.530 -0.2783  0.1288 -0.3878
13868W        W29677  14.635  17.575   1.722 -0.1125 -0.0853  0.2168
13869W        W29678  14.201   2.946  13.335  0.0221  0.2292 -0.2735
13870W        W29679  12.380  12.558  13.989 -0.0297  0.1520  0.3677
13871W        W29680   1.191   2.879   3.962 -0.3190 -0.0970  0.0210
13872W        W29681  10.911  14.118   1.683 -0.0474  0.1064  0.3274
13873W        W29682  18.652   3.086   3.007 -0.0145 -0.1231 -0.2855
13874W        W29683  17.217   3.219   1.359 -0.2045 -0.0688 -0.1464
13875W        W29684   4.083   1.803  13.915  0.0441  0.3213 -0.0415
13876W        W29685   2.842   3.769  10.202  0.1382  0.2630  0.1282
13877W        W29686   6.599  15.709  13.068 -0.1383  0.0017 -0.0255
13878W        W29687   0.492   8.763  13.319 -0.0354  0.3659  0.2508
13879W        W29688   5.827   8.198   2.834 -0.1404  0.0763  0.1678
13880W        W29689   0.686  13.558   5.128  0.0817  0.1899 -0.0552
13881W        W29690  13.660  13.035   5.038  0.1239 -0.0373  0.1670
13882W        W29691   7.181   0.701  13.605 -0.0060 -0.2852  0.1825
13883W        W29692  18.162   1.906   9.384  0.0656  0.0175  0.1707
13884W        W29693  18.840   8.215   2.436 -0.3179 -0.1953  0.2003
13885W        W29694   2.666   0.130  13.935  0.1457 -0.2625  0.1299
13886W        W29695   9.731  10.278   0.852 -0.2537 -0.0623 -0.0369
13887W        W29696   3.693   3.311   4.877 -0.1006  0.0112 -0.2851
13888W        W29697  16.760   9.571   2.294 -0.1096  0.1295  0.0536
13889W        W29698   2.627  14.660   5.002  0.0904 -0.1886  0.2726
13890W        W29699  18.902   6.052   3.512 -0.4217  0.0481 -0.1476
13891W        W29700  13.765  17.635   4.305 -0.2736  0.2519 -0.1815
13892W        W29701   6.952   7.851   1.917 -0.0780 -0.1804 -0.0903
13893W        W29702  14.732   0.252   1.008  0.0617  0.0878  0.0514
13894W        W29703  12.314  10.734   0.700 -0.0180 -0.3791  0.0227
13895W        W29704   8.695   0.601   5.098 -0.4665  0.2172  0.1359
13896W        W29705   9.219   5.138   1.307  0.0119 -0.3833 -0.2668
13897W        W29706  13.876  12.315  11.961  0.0321  0.0879 -0.1928
13898W        W29707   2.632   0.153   0.750  0.0877  0.1711  0.1243
13899W        W29708   5.836   9.507   5.369  0.0286  0.2718  0.1358
13900W        W29709  18.551  16.413  12.517  0.1014 -0.1705 -0.1026
13901W        W29710   0.230   4.564  11.608 -0.1211 -0.1328 -0.2044
13902W        W29711  18.126   1.993   0.235  0.0620 -0.1729  0.0717
13903W        W29712  14.634  16.471  10.556  0.1114 -0.0342  0.1875
13904W        W29713   4.425  16.019  10.587  0.1093 -0.0539 -0.0222
13905W        W29714   4.651   7.168   2.595  0.1307 -0.1344 -0.3128
13906W        W29715  11.423   6.300   9.474 -0.0833 -0.0655 -0.2005
13907W        W29716   9.486   7.884  13.136  0.4444  0.0279 -0.1115
13908W        W29717  13.719   3.050  10.459 -0.1974 -0.2265 -0.3184
13909W        W29718  18.100   8.118   0.004 -0.1552  0.2401 -0.0695
13910W        W29719   0.495  13.774  10.153 -0.4884  0.0281 -0.3103
13911W        W29720  18.251   1.321   4.067  0.1109  0.0227  0.3786
13912W        W29721  14.155   6.754  13.124 -0.1456 -0.2217 -0.1276
13913W        W29722   2.481   3.709  14.160  0.2629  0.2350 -0.0587
13914W        W29723  17.083   4.620   2.783 -0.3661  0.1802  0.1249
13915W        W29724  16.014   5.420   1.494  0.3547  0.2211 -0.1230
13916W        W29725  13.144   7.143   5.611 -0.1474  0.1996 -0.0913
13917W        W29726   8.301  17.659   1.461 -0.1880 -0.3341  0.1807
13918W        W29727  10.934  17.166  12.500 -0.0986 -0.1269  0.1302
13919W        W29728  18.102  18.473  12.348 -0.1979 -0.1289 -0.2521
13920W        W29729   0.250   2.614   1.526  0.1719  0.0587  0.2368
13921W        W29730   2.049  12.908   0.578 -0.2677 -0.0795 -0.0486
13922W        W29731   5.532  16.716   2.921  0.1493 -0.2008  0.0334
13923W        W29732   3.039   1.355  10.415  0.0545  0.1459 -0.2295
13924W        W29733   5.584  10.193  11.868 -0.0713  0.0639  0.0005
13925W        W29734   4.183   8.708  12.728 -0.2416 -0.3267  0.1878
13926W        W29735   8.383   2.475   3.234 -0.3671  0.0492  0.2628
13927W        W29736  13.787  13.912   3.674  0.1770 -0.0239  0.2836
13928W        W29737   2.786   8.136   2.086 -0.0051  0.2200  0.0767
13929W        W29738  13.708   4.060   2.238 -0.3220  0.1083  0.4652
13930W        W29739   6.951   0.487  11.447 -0.0204  0.0233 -0.0754
13931W        W29740   7.001  12.027  15.027 -0.1914  0.1672  0.3977
13932W        W29741  12.165  14.460   3.930 -0.4026 -0.2691 -0.3672
13933W        W29742  14.992   6.515  10.317  0.0236 -0.2025  0.1724
13934W        W29743   8.352  12.939   1.273  0.0760  0.3133 -0.0634
13935W        W29744  15.571  14.524   3.737  0.0625  0.2954 -0.0772
13936W        W29745   6.180   8.389   4.536 -0.0956 -0.1588 -0.1646
13937W        W29746  12.814  11.835   5.563  0.3147  0.0025 -0.1581
13938W        W29747   4.429   4.005  13.027 -0.2308 -0.2456  0.1084
13939W        W29748   2.271  10.701  13.447 -0.0760 -0.2440  0.2791
13940W        W29749   3.538  14.438  11.950 -0.1208  0.0727 -0.3962
13941W        W29750  12.761  16.097   4.611  0.0521 -0.1764  0.1355
13942W        W29751   7.122   3.977  10.931  0.0852 -0.0381 -0.1867
13943W        W29752   3.818  15.984  11.613 -0.0834  0.0520  0.0852
13944W        W29753  13.209  12.742   2.877  0.0340  0.0293  0.0979
13945W        W29754   8.274   3.145  12.903 -0.2525  0.0551  0.2721
13946W        W29755  14.325  10.540   1.949  0.0183 -0.0954 -0.1183
13947W        W29756   5.025   4.809   3.381 -0.0064  0.0896  0.1384
13948W        W29757   7.479  10.559   5.045  0.0856 -0.2371 -0.0065
13949W        W29758   2.040   4.092   1.210  0.0210 -0.1312  0.0172
13950W        W29759   7.551   6.951   3.932  0.1204 -0.4960  0.1191
13951W        W29760  13.389  12.145  12.825  0.0392 -0.0531  0.1079
13952W        W29761   8.958   5.124  14.336  0.2663 -0.0936  0.1921
13953W        W29762   7.630  14.074  14.575  0.1281  0.0681 -0.0896
13954W        W29763  13.245   0.264  14.252 -0.0929 -0.1833  0.2806
13955W        W29764   4.193  14.215   4.295  0.2041 -0.3410 -0.1158
13956W        W29765   9.671  13.714   2.654  0.2647  0.1388  0.0618
13957W        W29766  17.457   5.438   2.154  0.0759  0.3868  0.3170
13958W        W29767  15.681   7.823   4.885 -0.2188  0.0502 -0.0413
13959W        W29768  14.230  12.013  12.933 -0.2946  0.1049  0.2823
13960W        W29769   0.839  12.651   1.302 -0.0101 -0.0094 -0.2046
13961W        W29770  16.065  18.014  13.468  0.2841 -0.0314 -0.0344
13962W        W29771   6.590   6.931  11.043 -0.2297 -0.1644 -0.2705
13963W        W29772  10.683  13.507  11.737  0.1779  0.0314 -0.1758
13964W        W29773   6.945   7.262   4.250 -0.3075 -0.2821 -0.0032
13965W        W29774  17.204   0.735   1.772 -0.1503 -0.0371  0.0124
13966W        W29775  13.648  13.054   1.009  0.0751 -0.1177  0.2341
13967W        W29776  14.225   5.147   1.213 -0.4640 -0.2315 -0.0325
13968W        W29777  12.605  11.238  14.333  0.1211  0.2164  0.0439
13969W        W29778   3.721  17.250  13.397 -0.0343  0.1777  0.2609
13970W        W29779  14.996   6.943  14.590 -0.0452  0.1450 -0.0667
13971W        W29780   3.910  14.258   3.894 -0.2286 -0.0251  0.0304
13972W        W29781  13.949   3.196   3.605  0.1801  0.0252 -0.2827
13973W        W29782  13.954  11.817  10.180  0.2180 -0.1532 -0.1614
13974W        W29783   5.184   4.044   4.431 -0.4031 -0.1866 -0.0096
13975W        W29784   8.361  15.188   1.613 -0.2020 -0.1512  0.2118
13976W        W29785  11.013  12.484  15.064 -0.1191  0.1956  0.0058
13977W        W29786   3.022   6.928   4.633 -0.0277 -0.0409 -0.0224
13978W        W29787   3.931  10.976   0.384 -0.0725 -0.1117 -0.1587
13979W        W29788   8.596   6.317  11.325 -0.0531 -0.2506  0.2467
13980W        W29789  11.408  13.776  11.795  0.1917  0.1934  0.1002
13981W        W29790   7.798   4.906  14.396  0.2790  0.1710  0.4007
13982W        W29791  13.633   3.832   2.959  0.2636  0.2948 -0.1866
13983W        W29792  10.364  11.054  10.685 -0.0374  0.1285  0.2195
13984W        W29793   8.307   7.861   1.287 -0.2285  0.0429  0.1484
13985W        W29794  16.466   3.770   3.634 -0.0925 -0.0803 -0.0117
13986W        W29795   1.285   7.620  11.864 -0.1836  0.0666  0.3837
13987W        W29796  13.903  12.589   3.547 -0.0882 -0.2816 -0.1764
13988W        W29797   7.490   4.838  11.186  0.1096 -0.0061  0.3517
13989W        W29798   6.095   3.716  10.337  0.1811  0.0360  0.0368
13990W        W29799   8.885  13.140   3.850  0.2190 -0.0640  0.2053
13991W        W29800   2.115  17.724   4.638  0.3136  0.1653  0.1622
13992W        W29801  16.294  18.303   1.683 -0.0078 -0.1643 -0.0572
13993W        W29802   4.601  11.756   2.542 -0.0656 -0.2120 -0.0436
13994W        W29803  17.206  17.582  11.581  0.1184 -0.1032  0.1541
13995W        W29804  17.999  11.497  15.267  0.3171  0.1455 -0.1707
13996W        W29805  18.200  12.675   5.706  0.1068  0.1708  0.0580
13997W        W29806  12.518  17.945   0.253  0.0367  0.0439  0.2473
13998W        W29807   8.393   3.465   1.876 -0.0163 -0.1162 -0.0004
13999W        W29808   4.670   8.931   2.924 -0.1246 -0.1139 -0.1470
14000W        W29809  13.941   7.909  11.261 -0.0568 -0.2946 -0.2709
14001W        W29810   4.351  12.446   4.853 -0.0647 -0.1093 -0.0720
14002W        W29811   8.527  13.887   4.010 -0.1758 -0.0141  0.0185
14003W        W29812   7.386   7.047  12.416 -0.0419  0.1462 -0.0162
14004W        W29813  13.170  13.091   5.226  0.1775 -0.3510  0.3469
14005W        W29814   3.236  16.671  12.858 -0.0378 -0.2361 -0.0957
14006W        W29815   4.756   3.805  12.670  0.1938 -0.2140  0.0787
14007W        W29816   9.464  17.859  14.458  0.2087 -0.1555 -0.0475
14008W        W29817  13.192  15.437   3.895 -0.2330 -0.1146 -0.2503
14009W        W29818   1.409  12.859   5.620 -0.1628  0.2169  0.2449
14010W        W29819  14.187  10.091  12.846  0.0772  0.0303 -0.1155
14011W        W29820   4.920   0.470  12.332  0.2003 -0.2645  0.3298
14012W        W29821   8.565  15.823   5.132 -0.3101 -0.0008  0.3592
14013W        W29822  14.864  18.218  11.545 -0.2945  0.0326  0.1825
14014W        W29823   0.262   6.599  12.771  0.1168 -0.1949  0.0527
14015W        W29824  12.758  15.761   2.205  0.0805 -0.0220 -0.0583
14016W        W29825   0.646   5.571   2.461  0.1902 -0.0405  0.1907
14017W        W29826  18.904  13.744   3.927  0.0224  0.0336 -0.1730
14018W        W29827   7.306  10.733  12.265 -0.0546 -0.0429 -0.1158
14019W        W29828   1.647   3.241  14.669  0.0749 -0.1507  0.1407
14020W        W29829  11.121  18.991   4.821 -0.0549 -0.2414  0.4434
14021W        W29830  16.205   9.527  10.476  0.0790  0.0195  0.0005
14022W        W29831   2.680   3.335  10.041  0.1352  0.0362  0.0933
14023W        W29832  17.709  13.405  13.078  0.1818 -0.2027 -0.1027
14024W        W29833   2.588  16.957  13.180  0.1606 -0.2727 -0.0243
14025W        W29834   2.583  15.532   2.414  0.0635 -0.0122  0.0299
14026W        W29835   8.866  16.190   4.249  0.3281  0.1752  0.2518
14027W        W29836  13.026  13.708   1.258  0.1250 -0.0627 -0.1671
14028W        W29837   1.569   1.308   3.907  0.0884  0.0281 -0.1766
14029W        W29838   5.657   0.238   4.320 -0.0274  0.0498 -0.2056
14030W        W29839   1.099  19.074  13.885  0.2403 -0.2373 -0.0029
14031W        W29840   9.420  14.620  12.204 -0.2884  0.0018  0.2142
14032W        W29841   6.241   6.801   4.452 -0.1048  0.0105  0.2508
14033W        W29842   1.017  15.069   0.231  0.2659 -0.2823  0.3292
14034W        W29843  12.405   2.720  12.516 -0.1996 -0.2649  0.0957
14035W        W29844  12.965  13.899   0.752 -0.1351 -0.0496 -0.0037
14036W        W29845  15.072  17.515   5.315  0.3952 -0.1720  0.1092
14037W        W29846   1.206   5.133   3.183 -0.2138 -0.1919 -0.2818
14038W        W29847  11.776  15.176   2.942  0.1876 -0.2972  0.2086
14039W        W29848  10.001  15.075   4.172 -0.2656  0.1849 -0.2639
14040W        W29849   4.104   1.251   2.644  0.1364 -0.1254 -0.0427
14041W        W29850  13.779  16.462   2.417  0.1218  0.0123  0.1736
14042W        W29851  10.127   6.029   2.753  0.1422  0.1519 -0.3238
14043W        W29852   9.133   4.278   0.975  0.2411 -0.2436  0.4343
14044W        W29853   9.893  13.466  13.476  0.0489 -0.1416 -0.0139
14045W        W29854   7.756  18.044  13.729  0.5416 -0.0172 -0.0485
14046W        W29855  14.262   0.046  15.208  0.0189 -0.0261  0.1374
14047W        W29856  15.407   7.591   1.677 -0.2058 -0.0685  0.2923
14048W        W29857  15.896  14.043   3.164 -0.0519 -0.0487  0.3520
14049W        W29858   5.344   8.096  12.948  0.2146  0.5616 -0.0932
14050W        W29859  18.576  15.995  10.775 -0.1347  0.0814  0.0209
14051W        W29860   8.747  12.133   3.757 -0.1751  0.0969  0.0149
14052W        W29861  16.926   6.490   0.455 -0.0817 -0.0023  0.0086
14053W        W29862   9.962   6.450   4.988  0.0247  0.1546  0.0801
14054W        W29863   3.104  11.012   2.571  0.0031  0.0250 -0.1142
14055W        W29864   1.451   1.800   2.335  0.1652 -0.0682  0.0328
14056W        W29865   4.716   9.893  11.317 -0.0185 -0.0963  0.0475
14057W        W29866  12.404   4.254  15.181  0.1275  0.0420  0.0888
14058W        W29867  14.856   7.980   4.454 -0.3583  0.0220  0.1825
14059W        W29868  19.097   8.793   1.102  0.0022 -0.0474 -0.0095
14060W        W29869  12.602   2.964   1.936  0.0382  0.1942  0.3388
14061W        W29870  10.882  12.684   2.648 -0.0402 -0.5983 -0.1533
14062W        W29871  14.166  16.419  11.871 -0.1918  0.1711 -0.1572
14063W        W29872  11.493  15.161  13.833 -0.2421  0.0787 -0.0705
14064W        W29873   2.940  13.838  14.106  0.0322 -0.1133 -0.0299
14065W        W29874  12.935  17.321   3.812 -0.2336 -0.1070 -0.0324
14066W        W29875   0.969   1.952  13.024 -0.1317 -0.1413  0.2108
14067W        W29876   9.605  10.436  12.350  0.1367  0.1244 -0.0201
14068W        W29877  16.549   3.635  12.907 -0.3862  0.1546 -0.0481
14069W        W29878  10.307   5.099   3.811  0.0800 -0.0949  0.1004
14070W        W29879   4.002   1.338  14.679  0.1691 -0.1262 -0.1356
14071W        W29880   7.591  17.838  11.197  0.0914  0.1912  0.2188
14072W        W29881   9.544   8.756  10.713  0.0619  0.0816  0.0966
14073W        W29882  17.381  17.953   4.902 -0.0907 -0.1965  0.0812
14074W        W29883   8.782  13.591  11.928 -0.0655 -0.0443  0.1074
14075W        W29884  10.658   0.410  11.809  0.2242  0.0492 -0.5338
14076W        W29885   3.570  18.076  11.917 -0.0308 -0.1502 -0.2128
14077W        W29886  11.594  12.167   2.103 -0.4226  0.1480 -0.2073
14078W        W29887   2.708  11.060   2.939  0.0909 -0.0409  0.1081
14079W        W29888  13.567   9.476   4.538 -0.0283 -0.0269  0.0055
14080W        W29889  16.529   1.548  11.068 -0.1990  0.2041 -0.5242
14081W        W29890  14.305   7.001   0.753 -0.2274  0.0442  0.0973
14082W        W29891   9.775   9.651   0.339 -0.2216  0.1346 -0.2435
14083W        W29892   0.225   7.686  11.252  0.1290  0.3358  0.0810
14084W        W29893   6.555   0.916  11.735  0.0583  0.1289  0.2273
14085W        W29894  18.984  12.875   1.492  0.2211 -0.2898 -0.2829
14086W        W29895  14.844   7.929  14.951  0.0584  0.1001 -0.1023
14087W        W29896   0.324  17.024   3.531  0.1004 -0.2051  0.0926
14088W        W29897  10.296   6.585   3.452 -0.1373 -0.1177 -0.0159
14089W        W29898  11.210  14.715   9.641 -0.1481 -0.0891  0.2212
14090W        W29899   0.339   5.687  14.471  0.0354 -0.1076 -0.1230
14091W        W29900   0.951   8.633  13.440 -0.2626  0.1449 -0.0149
14092W        W29901  12.429  17.860  12.077  0.1419  0.2538 -0.4456
14093W        W29902  17.241   5.194   2.548  0.0831  0.0194 -0.1891
14094W        W29903   6.015  12.000  12.101  0.1558  0.0359  0.1002
14095W        W29904  18.042  18.134   1.500  0.0023  0.0275  0.0074
14096W        W29905  10.549   3.830   2.082  0.1645  0.6482  0.2978
14097W        W29906   6.578  15.626   4.593  0.1000 -0.0352 -0.3171
14098W        W29907  18.887  14.830   0.059 -0.2381  0.0840  0.0494
14099W        W29908  18.934   1.508   4.748  0.2491  0.2714  0.1091
14100W        W29909   7.948   0.347   4.648  0.1138 -0.1156  0.6116
14101W        W29910   6.763   6.907   3.492  0.0775  0.0023 -0.0437
14102W        W29911  17.165   1.988  12.209 -0.0486 -0.2403 -0.1309
14103W        W29912   3.233  10.939   0.447  0.0841 -0.1622 -0.3996
14104W        W29913  17.220   6.813   3.477  0.1854 -0.0573  0.1462
14105W        W29914   7.720   3.332   5.380 -0.0779 -0.2520 -0.2177
14106W        W29915  11.763   6.465  14.290 -0.0149 -0.0309  0.0467
14107W        W29916   7.053   7.471  12.359 -0.2328 -0.4249 -0.1180
14108W        W29917   0.712  18.467  11.977 -0.3644 -0.3122  0.0603
14109W        W29918   4.282   8.587   0.680 -0.4084 -0.2454 -0.3292
14110W        W29919   6.323   6.210  14.043 -0.2700 -0.1092 -0.0393
14111W        W29920   5.218   3.030  13.139 -0.2742 -0.1634  0.2925
14112W        W29921   0.220   9.328   0.415  0.1918  0.1025  0.0800
14113W        W29922   9.790  13.022   3.474  0.2930  0.2084 -0.1116
14114W        W29923  15.524  13.024   2.995  0.2045 -0.2709  0.2073
14115W        W29924   0.724   2.584  11.652 -0.1061  0.2738 -0.1786
14116W        W29925   3.283  18.036  13.329  0.1653 -0.5796 -0.5818
14117W        W29926  15.400   1.978  14.587 -0.1377  0.3183 -0.1028
14118W        W29927   8.296   7.903  12.830  0.0783 -0.1818  0.1917
14119W        W29928   4.919  12.838   1.711 -0.3312  0.4464  0.0986
14120W        W29929   3.435   9.418  12.382  0.0561  0.1609 -0.1007
14121W        W29930   6.049   4.570  12.239 -0.2717  0.2362 -0.1530
14122W        W29931   4.663  13.043  13.470  0.5146 -0.0922  0.5370
14123W        W29932  13.981   3.683  11.205 -0.0068  0.1861  0.1582
14124W        W29933   6.002  12.536   1.582  0.0052  0.0214  0.1230
14125W        W29934  16.424  13.901  12.720  0.2714 -0.2361  0.0442
14126W        W29935   2.120  16.542   5.082  0.3000  0.0946 -0.0714
14127W        W29936  18.625  10.665   0.863  0.1392  0.1242 -0.2881
14128W        W29937   4.514   0.342  14.848 -0.0319  0.1241  0.0855
14129W        W29938  11.415  17.855   1.833  0.1177 -0.1856 -0.1540
14130W        W29939  11.608   6.647   1.269 -0.0101  0.3965 -0.1586
14131W        W29940   3.171  15.514  10.506 -0.1049  0.0463 -0.5226
14132W        W29941   7.350  17.343   2.239 -0.1670  0.0734  0.5500
14133W        W29942  11.372   8.280   0.043 -0.0743  0.0866 -0.3001
14134W        W29943   0.561  16.358   9.711  0.0954  0.1361 -0.2512
14135W        W29944   1.485   8.092  11.864 -0.0717 -0.0669 -0.0833
14136W        W29945   9.770  17.881  11.978 -0.0516 -0.1569  0.0127
14137W        W29946  13.369   6.147   9.836  0.2689 -0.2000  0.2634
14138W        W29947   3.632  10.653  13.079  0.1393  0.0194  0.3253
14139W        W29948   2.847   6.383  12.582  0.2054  0.1196 -0.0930
14140W        W29949  13.291   2.481  12.344  0.0140  0.1589 -0.1044
14141W        W29950   2.457   3.393   3.732 -0.2896  0.0665  0.4075
14142W        W29951   6.425   4.645  14.825 -0.0848  0.0682 -0.1476
14143W        W29952  10.561  13.766  14.510 -0.3810 -0.2085  0.2098
14144W        W29953  14.436   0.297   2.070 -0.3198  0.0667 -0.0740
14145W        W29954   3.493  18.630   2.920  0.0388  0.1653 -0.1962
14146W        W29955   4.118  15.852   0.916  0.0546 -0.3999 -0.3232
14147W        W29956   1.901   5.151  11.861 -0.0771 -0.1156 -0.0270
14148W        W29957   0.322  11.134  13.935 -0.2818  0.1696 -0.0976
14149W        W29958   7.517   1.308   0.571 -0.2311 -0.0258 -0.1293
14150W        W29959  13.666   0.165  12.531 -0.0604  0.0060 -0.2586
14151W        W29960  13.735   7.315   1.784 -0.0033 -0.0840 -0.2959
14152W        W29961   8.071  11.149   2.222 -0.1125 -0.1620  0.2587
14153W        W29962  17.770   8.799   0.565  0.0835 -0.1133  0.0329
14154W        W29963  11.768  13.766   1.376 -0.0105 -0.0788  0.0801
14155W        W29964   6.775  12.527  11.630 -0.2280 -0.0767  0.1909
14156W        W29965  16.481  14.679   1.141 -0.0212  0.1010  0.2036
14157W        W29966  17.311  18.744   4.656  0.1371  0.2436  0.0785
14158W        W29967  11.721   4.660  11.708 -0.0869  0.2958 -0.2045
14159W        W29968   0.968   6.267  12.353  0.0893 -0.0874  0.1022
14160W        W29969   3.612  13.752  12.093  0.0895 -0.0965 -0.0628
14161W        W29970   1.740  11.385  14.390  0.1776 -0.0047 -0.0769
14162W        W29971   1.157   2.862  13.866 -0.0516 -0.3329 -0.2074
14163W        W29972   0.662   6.850   4.495 -0.1534 -0.1617 -0.2490
14164W        W29973   7.826   1.196  12.261  0.1194 -0.0656  0.2153
14165W        W29974   2.930  16.546   4.319  0.1900  0.0423  0.0891
14166W        W29975   8.439   2.785  10.374  0.1798 -0.1566 -0.2114
14167W        W29976  11.359   5.658  12.499  0.0599 -0.2546 -0.0623
14168W        W29977   6.424   2.476  14.365 -0.1649 -0.0359 -0.2238
14169W        W29978   1.627   4.467  12.401 -0.1321  0.0964  0.1853
14170W        W29979   3.824  16.970   3.823 -0.2384 -0.3547  0.1026
14171W        W29980   2.653   5.719  14.750 -0.2210  0.0743 -0.3383
14172W        W29981   7.446   7.190  11.921 -0.0482 -0.2220  0.0786
14173W        W29982   2.191   1.352   0.807 -0.0841  0.2353 -0.0476
14174W        W29983   0.930  13.552   0.798  0.4449  0.1197  0.0423
14175W        W29984   6.395  11.487  13.101  0.1922 -0.0261  0.0644
14176W        W29985   5.170   6.050  12.658  0.1698 -0.1713 -0.0767
14177W        W29986   3.163  13.360   1.885 -0.0620 -0.0620  0.2268
14178W        W29987   2.878   6.005  14.373 -0.0421  0.2071  0.1064
14179W        W29988   4.037   3.507  14.087  0.4294  0.1115 -0.0130
14180W        W29989  12.772  11.138  14.816 -0.0511  0.4643  0.1897
14181W        W29990   6.002  14.905   4.687 -0.1213 -0.0976 -0.0743
14182W        W29991  17.161   1.907   3.625 -0.0979  0.1266 -0.2086
14183W        W29992   6.348   1.425  11.589 -0.1352 -0.1111  0.0299
14184W        W29993   7.360  17.957   0.190  0.0360 -0.0384  0.0442
14185W        W29994  18.799   1.298   3.331 -0.0307  0.4086  0.1457
14186W        W29995   0.534  13.876   0.643  0.1241  0.0085  0.1004
14187W        W29996  16.659   5.380   9.350  0.2248 -0.0633  0.2174
14188W        W29997  18.385  10.659   0.018  0.0339  0.2562  0.1164
14189W        W29998   2.668  17.060  12.203 -0.2707  0.2081 -0.2710
14190W        W29999   0.965  10.244  13.052 -0.1240 -0.4858 -0.1503
14191W        W30000  16.597   8.151  12.444 -0.0703 -0.3117  0.3307
14192W        W30001  18.647   6.286  12.980  0.0608 -0.0505  0.1245
14193W        W30002  10.772   2.677   1.807  0.0624 -0.1240  0.1149
14194W        W30003  14.721   5.760   3.477  0.0192 -0.0464  0.4513
14195W        W30004   4.282   8.475  12.198  0.1379 -0.2411  0.0257
14196W        W30005  11.103  12.843   3.802  0.0958 -0.2428 -0.2326
14197W        W30006  10.879  13.121  12.400  0.1294 -0.0438  0.1619
14198W        W30007   9.651   2.054  13.975 -0.2523  0.1278 -0.0174
14199W        W30008  15.989   4.108   0.762 -0.0867 -0.1194 -0.1109
14200W        W30009   1.237   8.868  14.820  0.2075 -0.0187 -0.0070
14201W        W30010  15.540  11.369   1.588  0.0301  0.2714 -0.2124
14202W        W30011  11.729   6.886   0.319 -0.0186 -0.0489 -0.1795
14203W        W30012  14.235  18.422   3.429 -0.1765  0.3328  0.0636
14204W        W30013   2.893  13.514  12.271 -0.0824  0.2896 -0.3396
14205W        W30014  12.210  10.371  14.747  0.0194  0.0141 -0.0354
14206W        W30015  18.015   6.958   1.412  0.3435 -0.0062  0.4006
14207W        W30016  11.761  11.708   2.922 -0.1025  0.1220 -0.0702
14208W        W30017   0.670  14.640   5.624 -0.2397  0.2461  0.3257
14209W        W30018  11.569  14.138  12.592  0.1308 -0.2963  0.0372
14210W        W30019   1.553   5.856   4.375 -0.0775  0.2734  0.2636
14211W        W30020   9.056  14.731  14.508  0.1994  0.1389  0.0057
14212W        W30021  10.310  14.477  12.045 -0.3113 -0.0443  0.1539
14213W        W30022  12.464   0.021   4.768  0.1354 -0.0831 -0.0866
14214W        W30023   6.656   4.455   5.337 -0.1397 -0.0396  0.0843
14215W        W30024  17.969   5.042   2.068 -0.2110 -0.2143  0.2032
14216W        W30025   2.621   1.105  13.608  0.3538  0.0382 -0.0692
14217W        W30026   7.889   1.956  15.177  0.0302 -0.0612  0.1678
14218W        W30027  16.664   2.867  11.414 -0.0893 -0.2751 -0.0235
14219W        W30028   2.928  17.299   4.607  0.0613 -0.0273  0.2767
14220W        W30029   1.123   5.522   4.634 -0.1960 -0.0588  0.0641
14221W        W30030   5.871   6.861   0.625  0.3921  0.2164  0.0478
14222W        W30031   1.995  16.967   4.077  0.0324 -0.1622  0.1430
14223W        W30032   6.294  13.807  10.618 -0.0763  0.0963 -0.1691
14224W        W30033  15.184  15.771   0.287  0.3180  0.1613 -0.5929
14225W        W30034  10.808  11.308   4.761  0.0648  0.1268 -0.2453
14226W        W30035  13.724   2.720   3.632  0.2690  0.0153 -0.3115
14227W        W30036  13.209  10.331   3.443  0.2072  0.2807 -0.1892
14228W        W30037   8.323  14.856   4.996 -0.1185 -0.0048  0.3671
14229W        W30038  17.837   3.359  10.683 -0.2785  0.0414 -0.1426
14230W        W30039  17.196  16.386  13.501  0.0470  0.4966 -0.1979
14231W        W30040   7.818   5.207  12.967  0.4838 -0.1001  0.1446
14232W        W30041   1.683   9.904   1.702  0.2611  0.0176 -0.2128
14233W        W30042   0.060  18.959   3.333  0.1328  0.0349 -0.2923
14234W        W30043  15.735  19.063  15.091  0.2351 -0.1585 -0.4016
14235W        W30044   2.516   5.412   4.788 -0.2431  0.2833 -0.2006
14236W        W30045   3.312   8.202  11.510 -0.1274  0.1151  0.2969
14237W        W30046  14.312   4.742   4.557 -0.0550  0.0016 -0.0808
14238W        W30047  14.863   6.766   0.745  0.2449  0.4356 -0.0715
14239W        W30048  18.969   2.175  11.914 -0.0272 -0.1562  0.3945
14240W        W30049  17.323  18.582   5.121 -0.0628 -0.0953 -0.2567
14241W        W30050   0.520  16.179  13.753 -0.0377  0.3867 -0.7189
14242W        W30051   5.247  12.232   0.413  0.5067 -0.1783 -0.1042
14243W        W30052   3.428   7.278  11.870 -0.0202 -0.1624  0.0178
14244W        W30053  14.059   9.725  10.764  0.1358 -0.2744  0.2670
14245W        W30054  18.216  13.502  14.017 -0.2728  0.0190  0.0879
14246W        W30055  12.979  14.050   4.407  0.1723 -0.0076  0.3609
14247W        W30056   7.673  13.926  12.456 -0.1167 -0.1516  0.1969
14248W        W30057  18.917  18.864   4.168  0.1467  0.1556  0.1316
14249W        W30058  15.185  12.180  10.382 -0.1364  0.2062  0.0096
14250W        W30059  12.661  11.969   2.463 -0.1746 -0.1674 -0.1125
14251W        W30060  19.107  13.106   4.712 -0.1143 -0.1014 -0.0992
14252W        W30061   9.773  11.543   0.248  0.0258  0.0316 -0.0758
14253W        W30062   4.315  13.512  14.477  0.1172 -0.3265  0.0948
14254W        W30063   7.794   4.789  13.361 -0.2182 -0.3129 -0.0284
14255W        W30064  14.898   1.220  14.027  0.1864  0.3500 -0.1552
14256W        W30065  15.478  11.489  14.176 -0.2530  0.1032  0.2464
14257W        W30066   0.821   9.717   4.024  0.1652  0.2113 -0.2016
14258W        W30067  15.724  11.045  14.985 -0.0937  0.2796  0.3860
14259W        W30068   4.431  18.222  12.326  0.0977  0.2410  0.0841
14260W        W30069  13.101  15.956   1.423 -0.2578 -0.2053 -0.0080
14261W        W30070   7.197   5.315   5.513 -0.1886  0.4626  0.4214
14262W        W30071  13.736   2.613  14.586 -0.1638  0.0212 -0.1767
14263W        W30072  18.169   8.030   1.183 -0.3822 -0.1375  0.1722
14264W        W30073  18.370   8.666  11.728  0.0313 -0.0748 -0.0146
14265W        W30074  11.932   2.168  14.115  0.1311  0.0363 -0.2313
14266W        W30075   8.913   5.218  12.627 -0.0787 -0.2299 -0.0805
14267W        W30076  17.478  14.557  14.935  0.0498  0.0425 -0.4817
14268W        W30077   8.157  15.792   3.507  0.0584 -0.1253 -0.1131
14269W        W30078   3.308  10.333   3.793 -0.0985 -0.1430 -0.2055
14270W        W30079   1.578   8.331  15.042  0.5434  0.0858 -0.1164
14271W        W30080   9.044  11.168  10.497  0.1964  0.0002 -0.2710
14272W        W30081  11.161  17.737   1.003  0.4341 -0.0373 -0.1534
14273W        W30082  11.017   8.373  13.962 -0.0715 -0.3647 -0.1137
14274W        W30083  15.097   2.050  15.060 -0.3043 -0.0974 -0.3649
14275W        W30084   8.107  15.408   0.751 -0.0075 -0.0306 -0.0564
14276W        W30085  13.997   3.393  14.260 -0.0827 -0.1749  0.3092
14277W        W30086  17.931   1.707   5.170 -0.3461  0.0312 -0.2445
14278W        W30087  15.002  15.302  12.805  0.0929 -0.0884 -0.2228
14279W        W30088  14.303  18.427   2.392 -0.1088 -0.2707 -0.2320
14280W        W30089  13.808  11.307   3.472 -0.1243 -0.2899 -0.0293
14281W        W30090   1.700   2.889  11.455 -0.1665  0.1348 -0.0328
14282W        W30091  18.384  10.292  11.577 -0.0900 -0.0430 -0.0243
14283W        W30092   6.345  11.361   4.339 -0.0115 -0.0752  0.0039
14284W        W30093  13.299  10.109   0.481  0.4406  0.0106  0.1936
14285W        W30094  10.017  17.792  12.821  0.1795 -0.0215 -0.2748
14286W        W30095  17.860   9.618   2.109  0.0143  0.0819 -0.0428
14287W        W30096   1.173  12.915  12.010 -0.2077 -0.2462 -0.0211
14288W        W30097   0.502  12.488   1.714 -0.1916 -0.1471 -0.0292
14289W        W30098  18.195  15.673   0.281  0.1345  0.0878  0.3367
14290W        W30099   5.031  12.044  10.514 -0.1641  0.0832  0.0889
14291W        W30100  16.019  13.732   2.049 -0.1878 -0.0466 -0.2283
14292W        W30101  16.084   5.057   1.865  0.0562 -0.0579  0.1649
14293W        W30102  16.154  14.394   0.151 -0.0131  0.2124 -0.4292
14294W        W30103   2.075  13.530  13.398 -0.2186  0.2879 -0.1252
14295W        W30104   2.781   2.659   3.225  0.2003  0.0692 -0.2703
14296W        W30105   8.863  13.871   0.902 -0.1431 -0.0676 -0.4044
14297W        W30106   7.778  16.994   2.205  0.0069 -0.1251 -0.0023
14298W        W30107   1.496  10.743   5.740  0.0178 -0.5076 -0.1979
14299W        W30108  16.661   0.489  11.205  0.3656  0.2216 -0.0065
14300W        W30109  16.775  18.657  13.233  0.0858  0.0223  0.0541
14301W        W30110   9.938   4.393   0.301 -0.2547 -0.1380  0.2363
14302W        W30111  14.478  18.334  13.339  0.0377 -0.0265 -0.1241
14303W        W30112  18.564  15.024   0.953 -0.1569 -0.1530 -0.0684
14304W        W30113   3.004  18.167  12.403  0.0325 -0.1907 -0.2716
14305W        W30114   6.963  15.987  14.388 -0.3417  0.1284  0.1420
14306W        W30115   9.302  16.433  13.995 -0.0815  0.0890  0.1068
14307W        W30116   6.619  15.351   1.752 -0.0314  0.0805 -0.3827
14308W        W30117   7.215  14.780   1.643 -0.0115 -0.1264  0.1900
14309W        W30118   1.128   8.242   2.529 -0.2272 -0.1263  0.0187
14310W        W30119  17.196  11.436  13.861 -0.1456 -0.2166 -0.1495
14311W        W30120  14.975  16.112   4.601  0.2509 -0.2266 -0.0397
14312W        W30121  11.464  11.712  13.458  0.1759 -0.1737 -0.0022
14313W        W30122   0.724  11.482   0.622  0.0222  0.1941  0.0873
14314W        W30123   9.549  16.213   4.945  0.2197  0.0538 -0.0359
14315W        W30124  16.406  16.980   5.785 -0.0682 -0.0458 -0.3366
14316W        W30125  11.254   6.552   0.966  0.0535 -0.0921  0.0552
14317W        W30126  11.787  10.701  14.607  0.1881  0.2418  0.2115
14318W        W30127  15.534   1.167   1.304 -0.1515 -0.3455  0.3962
14319W        W30128   1.477   0.175  11.775 -0.3821  0.1947 -0.0134
14320W        W30129   7.982  18.012  11.611  0.0547  0.1501 -0.0181
14321W        W30130   2.809  17.180   5.109 -0.1124 -0.2898 -0.3850
14322W        W30131   8.251  17.989   5.840 -0.0724 -0.4699 -0.0195
14323W        W30132   2.171  18.887  13.238  0.1491  0.1602  0.2436
14324W        W30133   5.738   7.831   0.660  0.3979 -0.2706 -0.0427
14325W        W30134  12.483  15.425   5.603 -0.3695  0.1038 -0.2463
14326W        W30135   0.716  16.618   4.779 -0.0813  0.0756 -0.3115
14327W        W30136   3.313   8.707  14.399  0.1476 -0.1634 -0.1577
14328W        W30137  18.081   3.367  14.656 -0.2750  0.0050 -0.2985
14329W        W30138  11.378  18.499  10.868 -0.3482 -0.0580 -0.1263
14330W        W30139   3.887  10.779  11.421 -0.0566  0.1632 -0.0840
14331W        W30140  18.642   5.066   2.731 -0.2609 -0.0409 -0.0072
14332W        W30141   7.904   0.008   1.526 -0.3270  0.3061 -0.1419
14333W        W30142  11.879   8.638   2.663  0.2455  0.1552  0.0370
14334W        W30143   9.144   1.578  12.618 -0.1188  0.2072 -0.1498
14335W        W30144  12.859   4.254   1.722 -0.0886 -0.1296  0.0508
14336W        W30145  10.282  13.961  14.139 -0.0323 -0.0854  0.1145
14337W        W30146   8.101  13.035   2.921  0.0811  0.1146 -0.1760
14338W        W30147   7.332   2.245  10.436  0.1847 -0.0193  0.0907
14339W        W30148  14.099   7.494   4.001 -0.0475  0.3281 -0.0447
14340W        W30149  12.277   1.405   0.627  0.0293 -0.1814 -0.1369
14341W        W30150   1.599   2.576  14.114  0.0104  0.0478  0.2717
14342W        W30151   7.914   4.733  15.075  0.4782  0.0387  0.3110
14343W        W30152   3.053   1.930  10.273 -0.0565  0.1624  0.4079
14344W        W30153   6.852  18.068  11.004  0.4045 -0.3109 -0.3312
14345W        W30154   2.955   7.561  14.546  0.0120  0.1402  0.1480
14346W        W30155   3.668  17.128   1.127 -0.3711  0.1295  0.1894
14347W        W30156  13.360   2.212   0.514  0.1826  0.2407 -0.1599
14348W        W30157   9.056  15.886  11.065 -0.2563  0.0950 -0.2639
14349W        W30158   1.659  11.338   2.139  0.0775 -0.1837  0.1455
14350W        W30159  17.186  17.502   0.397 -0.0298 -0.4672  0.0349
14351W        W30160   0.400  12.617  14.153  0.1280  0.1325 -0.2021
14352W        W30161  10.416  12.583  13.127 -0.2121  0.1506  0.1906
14353W        W30162   9.489  13.345   2.369 -0.0191 -0.3930 -0.0449
14354W        W30163   7.367  17.674   4.638  0.1863  0.2010 -0.0801
14355W        W30164  11.962   0.494  14.205 -0.3564  0.0883 -0.1696
14356W        W30165  16.828   6.855   1.669  0.5401 -0.1693  0.3358
14357W        W30166   1.584  13.560  10.813  0.0797 -0.2874 -0.1757
14358W        W30167  16.644  16.993   4.606 -0.2096  0.0785  0.1666
14359W        W30168  16.635  17.246  14.938  0.0884  0.0365 -0.1673
14360W        W30169  15.642  18.404  14.108  0.2139 -0.0762  0.0712
14361W        W30170  18.776  17.288   2.036 -0.0569  0.1366  0.1426
14362W        W30171   9.043   0.869   3.937 -0.2838 -0.0581 -0.1658
14363W        W30172   0.466  11.087  14.780  0.2273  0.0511  0.0934
14364W        W30173  15.339  14.047   2.588 -0.0403 -0.0642 -0.1685
14365W        W30174  11.645  12.951   1.708  0.1283  0.2168 -0.1228
14366W        W30175  10.470  14.843  14.235  0.1278 -0.3696 -0.2087
14367W        W30176   4.036  12.321   5.383 -0.0364 -0.0404  0.2626
14368W        W30177   3.961  11.446  11.532 -0.0756 -0.1596 -0.3091
14369W        W30178  17.842   8.762   5.097  0.1654 -0.4087  0.0219
14370W        W30179  16.567   6.795  11.543  0.1324 -0.0155 -0.3230
14371W        W30180  14.402   7.747  12.606  0.1185  0.3213  0.0194
14372W        W30181  14.124   8.434   4.133  0.2264 -0.0153  0.0539
14373W        W30182  16.289  17.769   1.638  0.0077  0.1191  0.1759
14374W        W30183  12.737  15.699  10.703  0.2420  0.2383 -0.2270
14375W        W30184   2.710   5.435  10.957 -0.4037  0.0278 -0.0348
14376W        W30185   9.304   1.940   3.582  0.2183 -0.0537  0.1475
14377W        W30186   3.266  15.674   5.428 -0.1988  0.1841 -0.1235
14378W        W30187  16.365   7.529   3.729  0.0630  0.3080  0.0904
14379W        W30188  12.133  10.150  11.622 -0.1758 -0.1240  0.0146
14380W        W30189   2.922   7.556   2.339  0.4243  0.2098 -0.0044
14381W        W30190   5.159  16.963   3.750  0.3201  0.2041  0.1866
14382W        W30191  16.239  16.679  12.886 -0.1249  0.0478 -0.0616
14383W        W30192   8.490   3.677   3.849  0.2260 -0.3221  0.1091
14384W        W30193  13.117   9.579   0.676 -0.1408 -0.3551  0.1643
14385W        W30194   7.720   8.709   2.776 -0.0757 -0.1653 -0.2310
14386W        W30195  18.390  11.262  13.991 -0.0775 -0.0899 -0.1002
14387W        W30196   0.138  11.427   4.185  0.1646 -0.1305  0.1513
14388W        W30197   9.913  15.196  10.284  0.1518 -0.3241  0.0592
14389W        W30198  16.785   1.369  13.227  0.1484  0.3710  0.3723
14390W        W30199  13.775  11.993  10.617  0.0078 -0.1622 -0.3875
14391W        W30200  17.894  11.418  10.901 -0.0091  0.1186  0.3817
14392W        W30201   0.191  15.331  13.515  0.0908 -0.1754  0.0059
14393W        W30202  16.739   2.966   1.583 -0.1322  0.0020 -0.1376
14394W        W30203  18.137   2.376   3.002 -0.1378 -0.0832 -0.0481
14395W        W30204  16.637  16.635   2.238 -0.1388  0.0697 -0.0537
14396W        W30205   1.098  11.441  12.104 -0.0462 -0.0085  0.3401
14397W        W30206  19.064  12.753  13.059  0.0805 -0.0201 -0.2747
14398W        W30207  16.149   9.813  11.899  0.1991 -0.0413 -0.0351
14399W        W30208   0.121   9.754  11.331  0.0060 -0.0467 -0.1943
14400W        W30209   8.814  15.897   0.868  0.1946  0.1605  0.1377
14401W        W30210   6.113   8.316   2.455  0.0238 -0.0057  0.2488
14402W        W30211   2.278  17.931   4.169 -0.2083 -0.0101  0.1926
14403W        W30212  14.227  12.118  12.472  0.2177  0.1429 -0.1274
14404W        W30213   3.194   1.992   3.033  0.1707 -0.2277  0.1004
14405W        W30214  15.684   4.084  11.979 -0.1594  0.0551 -0.1249
14406W        W30215  16.300   9.935   2.031  0.3042  0.0104  0.0784
14407W        W30216   5.244  18.785  11.356  0.0365 -0.0812  0.2399
14408W        W30217   9.239   3.074  12.717 -0.2651 -0.3031 -0.3563
14409W        W30218  13.805  15.369   3.785 -0.0054  0.0441 -0.0113
14410W        W30219   2.965   8.035  12.236 -0.2106 -0.0046  0.1032
14411W        W30220  15.059   8.407  15.093 -0.2535  0.1137 -0.1672
14412W        W30221   7.062  11.613  14.125 -0.0757  0.2988  0.1257
14413W        W30222  11.936   4.864   0.669  0.1919  0.2911  0.1835
14414W        W30223   6.238   9.175   3.281  0.1319  0.0870 -0.2373
14415W        W30224  13.687  10.409   5.224  0.1610  0.3268 -0.0788
14416W        W30225  18.271   2.883   2.778  0.0383  0.0748 -0.2259
14417W        W30226   8.627   4.058   1.130 -0.0944 -0.0548 -0.3239
14418W        W30227   7.466  10.259  14.781 -0.2102 -0.0075 -0.0915
14419W        W30228   2.012  14.463  13.070 -0.0249  0.1176 -0.2973
14420W        W30229  13.244  14.179   1.026  0.1213  0.0761 -0.0213
14421W        W30230  18.335   9.898   4.501  0.1927 -0.3285  0.3156
14422W        W30231   0.631  13.842   0.122 -0.3622  0.3302  0.1297
14423W        W30232  17.914  11.532   3.239  0.0338 -0.1053  0.2466
14424W        W30233  11.858   6.490   2.751 -0.0410  0.1963  0.3149
14425W        W30234  19.019  16.555  10.826 -0.5384 -0.2496 -0.0517
14426W        W30235  13.703  12.275   0.510 -0.0522 -0.3248 -0.2438
14427W        W30236   2.416   4.018   1.705 -0.0367 -0.4780  0.0049
14428W        W30237   2.995  12.370   4.890 -0.1718  0.1912 -0.3172
14429W        W30238  12.182   1.805   0.235  0.1843  0.1258  0.1571
14430W        W30239  18.237   1.810  10.133 -0.1240  0.0378  0.3499
14431W        W30240   6.881   7.032  14.438 -0.1567 -0.0613 -0.1101
14432W        W30241  12.373  10.386   0.161  0.5076 -0.1473 -0.1307
14433W        W30242   6.233   0.198  10.069 -0.3600  0.3986  0.0359
14434W        W30243   0.481   3.721  13.323 -0.0716  0.1489 -0.2950
14435W        W30244   6.325  14.835   1.935 -0.1232  0.1025  0.1362
14436W        W30245  17.093  17.332  10.714  0.2503 -0.2808 -0.4703
14437W        W30246   1.695  13.244  13.374 -0.1536  0.0388  0.0337
14438W        W30247   5.060   5.746   1.576 -0.1902  0.0063  0.2704
14439W        W30248   4.159   7.104   1.278  0.2704 -0.2812 -0.0584
14440W        W30249  15.610   5.271  10.440  0.1233 -0.2211  0.2935
14441W        W30250   1.029  15.424  13.880 -0.4937 -0.0934 -0.2969
14442W        W30251   0.453  11.279   4.671  0.0525  0.0305  0.0847
14443W        W30252  14.098   1.849   2.764  0.0558 -0.3937 -0.0222
14444W        W30253  18.547   6.114   3.864  0.0155  0.1475 -0.3205
14445W        W30254   0.959  14.661  14.433  0.3626 -0.1501  0.0300
14446W        W30255  17.982   5.221   4.620  0.0138  0.1117 -0.2453
14447W        W30256   3.027   2.878  14.419  0.0665  0.2794 -0.0802
14448W        W30257   9.358   3.234  14.758  0.1114 -0.2481 -0.3428
14449W        W30258  12.815  11.481   4.370  0.0688  0.1480 -0.0228
14450W        W30259   2.061  17.626  14.915 -0.4170 -0.0344  0.0009
14451W        W30260   8.002   0.653   2.587 -0.0488  0.1292 -0.0307
14452W        W30261   2.149  13.454  11.792  0.3007 -0.0296  0.2475
14453W        W30262   6.161  11.614   0.271  0.0515 -0.4420  0.0452
14454W        W30263  15.059  18.462  12.075 -0.0004  0.0245 -0.3719
14455W        W30264  16.699   7.156   0.747  0.0311  0.1099  0.0767
14456W        W30265   5.891  11.956  11.065  0.0996 -0.0862 -0.2851
14457W        W30266   9.794  10.833   0.890 -0.1363  0.0227  0.0469
14458W        W30267   3.432   9.010  14.728  0.1625  0.0311 -0.3077
14459W        W30268  17.899  17.809   5.656  0.1090  0.0860  0.2669
14460W        W30269  10.949  10.959  10.717  0.4555 -0.0501  0.2134
14461W        W30270   8.523  10.183  13.315 -0.2601  0.1880  0.0242
14462W        W30271   8.491   9.355   4.499  0.1113 -0.2113  0.2133
14463W        W30272   2.382  12.752   1.430  0.2856  0.0120 -0.0376
14464W        W30273   0.273  18.777   4.253 -0.0459 -0.0431  0.2689
14465W        W30274   8.695  19.100   0.158  0.1408 -0.0548 -0.1998
14466W        W30275   7.153  10.893   2.516 -0.0939  0.3952  0.1289
14467W        W30276   1.198  15.793  14.166 -0.1591  0.3806 -0.0495
14468W        W30277   7.686  13.862   2.602  0.0817 -0.0968 -0.1918
14469W        W30278  18.072   5.217  13.330 -0.0259 -0.0775  0.0182
14470W        W30279  19.031   0.979  14.531  0.2076  0.0939  0.0634
14471W        W30280   2.230   5.759  15.110  0.1012  0.0197 -0.0420
14472W        W30281  16.067  17.516  14.336 -0.2426 -0.2574  0.1558
14473W        W30282   5.710   2.098   4.650  0.0928  0.1442 -0.0649
14474W        W30283  14.951  15.060   2.286 -0.2364 -0.1355  0.2062
14475W        W30284   6.186  10.429   5.743 -0.2780 -0.1347  0.0715
14476W        W30285  16.913   1.505   3.165 -0.2408  0.0308  0.0101
14477W        W30286  14.695  19.131  13.364 -0.0743  0.0346  0.1092
14478W        W30287  18.898   1.287   1.291 -0.0499 -0.1872 -0.0122
14479W        W30288  10.761  10.602   0.643 -0.1609 -0.1475  0.0313
14480W        W30289   9.873   3.469   3.389 -0.2785  0.0769  0.0264
14481W        W30290   6.104  18.461   1.775  0.0262  0.0711 -0.1121
14482W        W30291  12.332  18.120  15.019 -0.0917  0.1096  0.3290
14483W        W30292  15.707  14.680   1.504 -0.0092  0.0934 -0.2051
14484W        W30293   9.644  14.950  10.736  0.1075  0.3151 -0.1361
14485W        W30294   2.220   5.556  11.079  0.1985  0.0149  0.1084
14486W        W30295   8.851  10.563  14.431 -0.4358 -0.1550  0.0943
14487W        W30296  14.408  13.481  13.949  0.0968 -0.3348  0.0759
14488W        W30297   5.478   3.205  14.067  0.0205  0.1294  0.0828
14489W        W30298   9.166   2.732  14.040 -0.0388 -0.1065  0.3949
14490W        W30299  13.292  18.084  12.191 -0.2212 -0.1724 -0.1197
14491W        W30300  17.671  11.313  12.078  0.4537 -0.1057 -0.0456
14492W        W30301  18.378   1.865   0.603  0.3615  0.1987  0.0454
14493W        W30302   4.889   2.915   2.343  0.0914 -0.1001  0.1396
14494W        W30303  13.965  17.616  11.657  0.0423  0.2156 -0.3268
14495W        W30304  13.078   2.624  13.727  0.0952 -0.1257  0.2250
14496W        W30305  10.501   1.364   0.510 -0.1499 -0.1032  0.0260
14497W        W30306   4.281  17.202   2.180  0.2785  0.1769 -0.4011
14498W        W30307  10.704   4.924  14.071 -0.0032 -0.1263 -0.0496
14499W        W30308  17.538  16.608  11.299 -0.0159  0.3354 -0.3325
14500W        W30309   2.560  16.954  10.228 -0.0346  0.2905  0.1245
14501W        W30310  16.360   3.925  10.637 -0.1974 -0.2644  0.0906
14502W        W30311  18.007  12.583  15.178 -0.0998  0.0146  0.1231
14503W        W30312  10.758   0.608  14.918  0.2101  0.3334  0.3482
14504W        W30313   0.835  17.925   1.345 -0.0466  0.0679 -0.1594
14505W        W30314   2.639  14.559  10.769 -0.1962 -0.1129 -0.1454
14506W        W30315   4.386   3.735   3.372  0.0648  0.0261 -0.0222
14507W        W30316   4.256  18.028  12.805  0.0379  0.0230  0.6177
14508W        W30317  17.416  16.698   2.954 -0.5614  0.1996  0.2682
14509W        W30318  14.550  18.235   2.792 -0.3105 -0.1212 -0.0687
14510W        W30319  18.070   5.571   0.383  0.1262 -0.0227 -0.1998
14511W        W30320  17.100  15.445  13.295 -0.2492 -0.0248 -0.4843
14512W        W30321   7.978   9.222  13.095 -0.0285 -0.3499  0.1894
14513W        W30322   8.382   6.451  12.804 -0.0832 -0.3248 -0.1116
14514W        W30323   6.002  12.531   4.515 -0.2908  0.1815 -0.0467
14515W        W30324   2.952  14.669   4.051 -0.0078  0.1587  0.5060
14516W        W30325  18.983   8.677   3.279  0.1014  0.2593  0.2515
14517W        W30326  12.880  18.817   4.738 -0.0303  0.0508  0.3425
14518W        W30327   1.438  15.227  11.482  0.1577 -0.0880  0.0310
14519W        W30328  17.694   6.253   3.815  0.4630  0.3751 -0.0496
14520W        W30329  14.853  14.133  14.724 -0.0311  0.1709  0.0017
14521W        W30330   9.852  13.834  13.088  0.0216  0.1617 -0.2404
14522W        W30331   3.490  14.394  13.347 -0.0747 -0.1425  0.3634
14523W        W30332  11.125   9.827   3.718 -0.1040 -0.2900 -0.3125
14524W        W30333   0.337  12.238  11.978  0.3534 -0.1425 -0.2145
14525W        W30334  18.116  11.638  13.790 -0.1522  0.1549  0.0718
14526W        W30335   6.693   0.805  11.157 -0.1960 -0.0119  0.1612
14527W        W30336   6.967   9.885   4.908  0.0441 -0.0734  0.0806
14528W        W30337  14.694   8.858   1.644  0.1241 -0.2975 -0.1359
14529W        W30338  17.680   4.699  10.930  0.3885 -0.2128 -0.0419
14530W        W30339   8.772  18.640   2.753  0.3909  0.0883 -0.2199
14531W        W30340  14.533   3.291   1.121  0.1879  0.1201  0.0241
14532W        W30341  15.155   1.678   0.902  0.0086  0.2066 -0.1080
14533W        W30342   7.346   2.610  10.831  0.0965  0.0435  0.1726
14534W        W30343   8.884  11.168  11.005 -0.0324  0.2181  0.0002
14535W        W30344   3.434   4.934  13.505 -0.0464  0.0225  0.2310
14536W        W30345   0.856  18.923   0.811 -0.0167 -0.0467 -0.0961
14537W        W30346  14.480  13.528   1.150 -0.2811  0.0409 -0.0816
14538W        W30347   8.286   1.200  11.319  0.0428  0.1316 -0.2034
14539W        W30348  10.449   6.975  14.336 -0.1197  0.2298 -0.1502
14540W        W30349   3.062   8.876   0.640  0.0432 -0.1776 -0.0994
14541W        W30350   0.076   1.838   1.642  0.1365  0.2713 -0.2850
14542W        W30351  17.839  19.103  14.449  0.1237 -0.2147  0.1153
14543W        W30352   9.061   5.517  13.823 -0.0133  0.0333 -0.1473
14544W        W30353   1.349   1.845  12.702  0.1399  0.1040  0.3843
14545W        W30354  14.700   6.793  13.461  0.1185  0.2789  0.3971
14546W        W30355  15.077   8.536  13.377 -0.0091  0.1997  0.2506
14547W        W30356   1.826  15.193  11.815 -0.1191 -0.0661 -0.0472
14548W        W30357  13.348   5.144   9.443  0.0167  0.4206  0.5609
14549W        W30358   9.987   5.602  11.088  0.2016  0.2526 -0.0380
14550W        W30359  16.079  16.527   3.360  0.0722 -0.1186  0.0121
14551W        W30360  18.270   9.348  14.710  0.2370  0.2168  0.0329
14552W        W30361   6.822  17.831  10.606 -0.0949 -0.0715  0.3463
14553W        W30362   1.526   5.551   2.296  0.0982  0.1030  0.2315
14554W        W30363   4.600   3.701  13.394  0.3791 -0.0091  0.1070
14555W        W30364  15.187  11.660   4.321 -0.2160 -0.4973  0.2626
14556W        W30365   0.459  16.173  10.748 -0.0311 -0.3270 -0.2920
14557W        W30366   3.761   0.099   0.223 -0.2143  0.0073 -0.0880
14558W        W30367  11.078   9.743  14.597  0.1276 -0.1440 -0.2105
14559W        W30368   6.995   7.464   0.370 -0.3322 -0.0921 -0.1739
14560W        W30369   9.112  18.093  11.394 -0.0898  0.1103  0.0427
14561W        W30370   1.824   9.688  12.164  0.0542  0.2330  0.1771
14562W        W30371  14.751  17.068  11.485 -0.1703 -0.1627 -0.2190
14563W        W30372  10.131  10.773  15.228  0.0884 -0.0368 -0.3626
14564W        W30373   9.281  10.731  14.149 -0.1415  0.2724 -0.2083
14565W        W30374  17.201   7.964   3.842 -0.1127  0.1353  0.2345
14566W        W30375  18.533   5.704   0.600 -0.2831  0.2153  0.1606
14567W        W30376   2.542   6.677  12.245  0.1821 -0.2474 -0.0796
14568W        W30377   6.879  12.834  14.971 -0.2301 -0.1688  0.3171
14569W        W30378   5.341   7.380   0.452  0.0025 -0.0143  0.0529
14570W        W30379  10.446   8.314  12.170 -0.3511 -0.1546  0.1106
14571W        W30380  17.818  10.015   4.124  0.0926 -0.0383  0.0201
14572W        W30381  14.327  12.058   5.142  0.0545  0.0709  0.2637
14573W        W30382   3.131  10.227  11.981  0.0291 -0.1531  0.2648
14574W        W30383   6.150   5.628   2.339  0.0116 -0.1106 -0.4005
14575W        W30384   2.805  17.683   5.198  0.4000  0.0987  0.2206
14576W        W30385  12.276  10.044   1.366  0.2383  0.3028  0.1424
14577W        W30386   4.744  14.598  14.292 -0.1500  0.0896 -0.0898
14578W        W30387   0.085  12.795   3.808 -0.0390 -0.1260  0.1405
14579W        W30388  15.713   2.707  11.654 -0.1528  0.0901  0.0710
14580W        W30389  11.704  10.825   1.361  0.0292 -0.1548 -0.2580
14581W        W30390   4.521  17.079   4.450 -0.0678 -0.2254  0.0863
14582W        W30391  16.451   1.621   0.523 -0.1293  0.0712  0.3525
14583W        W30392  10.603  18.035   3.422  0.1251  0.2791 -0.0663
14584W        W30393  15.902   1.274   5.473 -0.2627  0.1892 -0.1609
14585W        W30394  11.508  18.846  13.216  0.0350 -0.0970  0.3428
14586W        W30395  17.476  15.780   0.497  0.0355 -0.1943  0.3290
14587W        W30396   6.035   0.037  11.767  0.0108 -0.2326 -0.2923
14588W        W30397   5.425   1.914  14.188 -0.0429 -0.0228 -0.0633
14589W        W30398  16.201  13.227  12.327 -0.0598 -0.0479  0.2125
14590W        W30399  13.020   9.862   1.944  0.0116 -0.1579  0.2289
14591W        W30400   1.566  15.693  11.655  0.0248 -0.0608  0.1059
14592W        W30401  12.663  17.869   5.151  0.2490  0.3627  0.2311
14593W        W30402   9.106  11.461   9.675 -0.1917  0.0272  0.2063
14594W        W30403   2.435   2.001   0.085 -0.1704  0.3012 -0.0343
14595W        W30404   2.883  16.370  11.695 -0.3366  0.0687 -0.0329
14596W        W30405  18.251   1.537  13.771 -0.0252  0.2130 -0.0066
14597W        W30406   5.922   3.362   2.595 -0.2490 -0.0518  0.1370
14598W        W30407   2.423   4.361  11.519  0.1135  0.4270  0.2503
14599W        W30408  19.023  15.432   4.277 -0.1287 -0.1458  0.0767
14600W        W30409  13.054  11.784   1.994  0.0059  0.0852 -0.1806
14601W        W30410  13.502  13.706   3.274  0.1086 -0.0628 -0.0436
14602W        W30411   2.876   2.219   0.026  0.0255  0.0561  0.1498
14603W        W30412  11.864  17.109   0.254 -0.1986 -0.2371 -0.1379
14604W        W30413   8.614   9.267  14.231  0.4219  0.1272 -0.0393
14605W        W30414  11.426  14.975   4.264 -0.3629  0.1893 -0.0721
14606W        W30415   9.972  17.953   6.060 -0.0256 -0.0257  0.2155
14607W        W30416   3.486  12.032   1.951  0.1787  0.3658 -0.0212
14608W        W30417  18.505   6.813  12.448 -0.0280  0.0669  0.2146
14609W        W30418  15.465  11.416   2.100  0.0432  0.0390 -0.1780
14610W        W30419   9.890   6.326  12.476  0.0573 -0.0422 -0.0586
14611W        W30420  11.825   2.406  13.366  0.2120  0.4436 -0.0664
14612W        W30421   5.231   9.988  13.090  0.0265 -0.2855  0.0120
14613W        W30422   1.447  12.223   4.338 -0.0482 -0.0892 -0.1948
14614W        W30423  10.324  17.719   3.763  0.0803  0.3787  0.1395
14615W        W30424  13.023  10.561  13.578 -0.1908 -0.0149  0.1026
14616W        W30425  14.830  16.160   0.090 -0.1508  0.0045 -0.0464
14617W        W30426  17.563  10.400   3.948  0.1385  0.0040 -0.1133
14618W        W30427   7.500   6.297  15.127  0.0927  0.0841 -0.0477
14619W        W30428  14.257  11.491   5.531 -0.3046 -0.3335 -0.0585
14620W        W30429   0.124  14.674  13.516 -0.2611 -0.1424 -0.0043
14621W        W30430  10.661   4.544  13.127  0.0877  0.1024 -0.1106
14622W        W30431  14.714  12.265  14.854  0.1104  0.0380 -0.1267
14623W        W30432   0.613   5.494   4.509 -0.3469 -0.0422 -0.0249
14624W        W30433  11.115  15.331  12.404  0.1263  0.2266  0.0131
14625W        W30434  15.890   0.078   4.751 -0.1957  0.1657  0.1933
14626W        W30435  12.945   3.075  11.517  0.2243 -0.1466  0.0448
14627W        W30436  18.143   5.815   2.848  0.0011 -0.2048  0.2679
14628W        W30437   4.360   9.227  12.588  0.0957  0.1909  0.0389
14629W        W30438   4.125  17.267  10.509 -0.1763 -0.1100  0.0319
14630W        W30439  11.517   1.026  12.927 -0.2353 -0.0791  0.2041
14631W        W30440   9.123  12.002   4.228  0.0402  0.0537 -0.2953
14632W        W30441   2.673   9.371  11.975  0.0156 -0.1867  0.1626
14633W        W30442  10.906  18.026  13.131 -0.0171  0.0363  0.0817
14634W        W30443  12.719  17.776  14.743  0.1402 -0.2782  0.0034
14635W        W30444   7.570   2.573  13.739  0.0957  0.0203  0.2930
14636W        W30445   9.140   6.671  12.043  0.2831  0.2857 -0.0830
14637W        W30446   1.381   5.651  10.884 -0.1199 -0.0454 -0.0252
14638W        W30447   5.706  10.062  12.928 -0.1372  0.4846 -0.0982
14639W        W30448  14.669  11.519   5.873 -0.2056 -0.3292  0.0118
14640W        W30449   0.348   8.112  12.089  0.2541  0.0108  0.0572
14641W        W30450  10.563   3.080  13.666 -0.1134  0.1291  0.0308
14642W        W30451  14.946   2.727  12.865 -0.2230  0.1478 -0.2489
14643W        W30452   2.995   9.276   2.491 -0.0031  0.1726 -0.1333
14644W        W30453  13.310   4.630  11.562 -0.1090  0.0918  0.1233
14645W        W30454  17.701  15.391  15.051 -0.0354  0.0505  0.2693
14646W        W30455  18.009  10.288   1.441  0.3887 -0.0115 -0.0134
14647W        W30456   6.547   3.930  10.134 -0.1106 -0.3791 -0.2384
14648W        W30457  14.165   5.947  14.621  0.1209  0.3929  0.2074
14649W        W30458  18.221  18.528  13.580 -0.1907  0.0335  0.1618
14650W        W30459   6.437  15.248  13.226 -0.1310 -0.3658 -0.1765
14651W        W30460   4.736  13.232   6.183  0.0524  0.1569 -0.3915
14652W        W30461   5.306   6.874   4.512 -0.3382 -0.0985  0.1139
14653W        W30462  18.738  14.313   3.549 -0.2307  0.1383  0.1700
14654W        W30463   5.934  11.877   1.074 -0.3389  0.0737  0.2588
14655W        W30464   2.759   2.092  14.798  0.2472  0.2397 -0.1925
14656W        W30465  18.493   9.775  14.825  0.2875  0.3052  0.2775
14657W        W30466   4.795   3.353  11.546  0.0828  0.0222 -0.0868
14658W        W30467  11.821  10.617  11.731  0.0942  0.1079 -0.0911
14659W        W30468  18.895   7.411  10.060 -0.0316  0.0154  0.1406
14660W        W30469  10.591   2.850   0.737  0.1775 -0.2480  0.1187
14661W        W30470  18.706   1.301  14.391 -0.1275 -0.0796 -0.2475
14662W        W30471   8.517  13.569  11.149  0.1725  0.1820 -0.0744
14663W        W30472   1.844  18.908  13.679  0.0609 -0.0364  0.1040
14664W        W30473   1.148  12.050   2.445 -0.1886 -0.0519 -0.0341
14665W        W30474  13.254  17.026  13.544  0.0745 -0.0815 -0.3242
14666W        W30475   3.439   9.955  12.378 -0.3063 -0.1767 -0.1650
14667W        W30476  11.010  18.087  15.196  0.0701  0.0404  0.1475
14668W        W30477   8.822   9.344  10.858  0.1687 -0.2599 -0.3501
14669W        W30478  15.419  17.358   1.653  0.0960  0.0314 -0.0130
14670W        W30479   7.377  14.636  13.548  0.1034 -0.0043 -0.1986
14671W        W30480   3.528  11.152  11.562  0.1346  0.1479 -0.1307
14672W        W30481  18.050   9.366  10.583 -0.1389  0.0097  0.1416
14673W        W30482  16.578   0.646   4.811  0.0436  0.1928  0.0686
14674W        W30483   0.277   1.131  15.208  0.1809 -0.1753 -0.0917
14675W        W30484   3.124  11.864  11.274  0.3421 -0.2492 -0.2964
14676W        W30485  18.843   4.842   0.551  0.0821  0.2964  0.4685
14677W        W30486   0.720   5.329  13.631  0.1050  0.2330 -0.1840
14678W        W30487   3.951   4.007   3.239 -0.1321 -0.1161 -0.1964
14679W        W30488  17.520   5.171   3.668 -0.0335  0.2500  0.1722
14680W        W30489   7.331  11.670  11.848  0.0291  0.0007  0.1844
14681W        W30490  10.939  10.210  14.151  0.2643 -0.1189 -0.0850
14682W        W30491  17.510  15.815   3.009 -0.0373  0.0281 -0.0209
14683W        W30492   9.924   6.906   3.459  0.2205  0.1663 -0.2208
14684W        W30493   3.955  13.151   0.000  0.2395  0.1306  0.2764
14685W        W30494  17.200  11.786  12.681 -0.4800 -0.1105  0.3071
14686W        W30495   4.376  13.868  13.790 -0.1761  0.0402  0.2731
14687W        W30496   5.834   4.872  14.188 -0.3692 -0.1576  0.1300
14688W        W30497   0.159   5.263  13.403 -0.1296  0.2078  0.1798
14689W        W30498   4.571   6.932   3.095  0.0649  0.2154 -0.1427
14690W        W30499   3.171   5.090  12.510  0.3287  0.1862  0.0073
14691W        W30500   0.030  11.609   4.644  0.4447 -0.0446 -0.0017
14692W        W30501  13.466  10.624  12.547 -0.1292 -0.3566 -0.1961
14693W        W30502  16.568   0.090   1.639 -0.2338  0.3119 -0.1851
14694W        W30503  13.478  16.832   4.681 -0.0864  0.0732  0.2815
14695W        W30504  15.949  16.050   0.214 -0.0126 -0.1223  0.0715
14696W        W30505   1.098  17.010   2.943  0.0010  0.0939  0.1282
14697W        W30506   4.183   5.572   1.676 -0.2047  0.4768 -0.0413
14698W        W30507  15.971  11.465  11.382 -0.4065  0.0714  0.1993
14699W        W30508  13.374   0.881   4.443  0.3600 -0.1579 -0.0315
14700W        W30509   7.253   3.899   5.053 -0.0731 -0.0983 -0.0525
14701W        W30510   5.785  17.140   4.308  0.2525  0.1222  0.0226
14702W        W30511  17.798   7.928   4.558 -0.1434 -0.1786  0.0268
14703W        W30512   2.727  19.001   1.612 -0.0506 -0.3019  0.1004
14704W        W30513  18.883   2.599   2.193 -0.0434  0.1516  0.0685
14705W        W30514  18.111  12.707  13.460  0.1558  0.1132 -0.1364
14706W        W30515   5.319  14.342  14.867 -0.4252 -0.2872 -0.3622
14707W        W30516  13.988   2.513  11.771 -0.2351 -0.0096  0.1649
14708W        W30517   0.225  14.004  11.051 -0.0828  0.3339 -0.2530
14709W        W30518   3.146   7.299  14.997 -0.2625  0.1119  0.1135
14710W        W30519   6.849  12.034  11.754 -0.2386  0.0345 -0.1219
14711W        W30520  11.924  13.406   1.840 -0.0835  0.2027 -0.0353
14712W        W30521  13.145  17.751   5.276 -0.0046 -0.0605  0.2252
14713W        W30522  17.058  17.658   4.668 -0.2915  0.1974 -0.0984
14714W        W30523   1.626  17.867  11.617  0.1817 -0.3409  0.0391
14715W        W30524   3.353   8.811  13.073  0.5018  0.1943 -0.0664
14716W        W30525   1.586   2.394   1.129  0.1378 -0.1711 -0.0497
14717W        W30526  17.265  11.452   4.144  0.0577 -0.3618  0.2529
14718W        W30527  17.926   6.480   2.467 -0.0115  0.0647 -0.2079
14719W        W30528   3.905   0.618  10.801  0.3533  0.1183  0.0682
14720W        W30529  10.441  18.194  13.068 -0.0090 -0.0774  0.1958
14721W        W30530  13.538   9.607  11.754 -0.0766 -0.3300  0.0092
14722W        W30531  14.272  12.673   1.524 -0.1108 -0.0493 -0.3018
14723W        W30532  18.370  19.112   4.233 -0.2863  0.1808  0.3651
14724W        W30533   8.963  11.166   4.763 -0.0282  0.0638  0.0093
14725W        W30534  19.099   0.902   1.578  0.0249  0.0128 -0.0494
14726W        W30535   1.620   3.670  10.632 -0.0949  0.0299 -0.0872
14727W        W30536  13.520  13.371  13.767 -0.2553 -0.2650 -0.3721
14728W        W30537   7.678   0.268  12.945  0.0138  0.0225 -0.2862
14729W        W30538  17.311   7.791   4.711  0.0177  0.1225 -0.3768
14730W        W30539   7.104  10.593  14.385 -0.2743  0.0176 -0.2148
14731W        W30540  12.356   8.684  13.740  0.0805  0.1141  0.3389
14732W        W30541   6.921   6.935  13.054 -0.1142 -0.3025  0.0772
14733W        W30542   1.458  15.273   4.722  0.0346  0.3130 -0.3452
14734W        W30543   7.746  11.512   2.067 -0.3369  0.1788  0.1319
14735W        W30544   8.710   0.757  10.534  0.0005  0.0099  0.3406
14736W        W30545   0.710   3.698   5.359  0.2309  0.0328 -0.2438
14737W        W30546  13.780   9.201   0.230  0.0838  0.0914 -0.0449
14738W        W30547  10.515  10.229  12.899  0.0216 -0.3269  0.0385
14739W        W30548   3.120   0.708   1.868 -0.4755 -0.1713 -0.1239
14740W        W30549   1.053   6.245   0.834 -0.1037  0.3180  0.2275
14741W        W30550  16.417   1.323   1.034  0.1851 -0.1034  0.1848
14742W        W30551   8.255   6.633   1.440  0.0901 -0.3124 -0.1603
14743W        W30552  12.538  18.364   4.641 -0.0274 -0.1037 -0.2994
14744W        W30553  17.942  15.592   3.090  0.1847 -0.2224 -0.2046
14745W        W30554   9.649  18.082   3.725  0.0538  0.1291 -0.2480
14746W        W30555  13.656   7.208  10.483 -0.0241 -0.0750  0.1651
14747W        W30556   5.920   4.009   9.359  0.2898  0.1752 -0.2138
14748W        W30557   2.707  14.594  15.149 -0.2601  0.1331  0.1504
14749W        W30558  12.972  14.100  13.740 -0.1827 -0.2672  0.1939
14750W        W30559  15.925  10.226   9.310  0.1461  0.2035  0.0464
14751W        W30560   3.324  14.515   4.400  0.2078 -0.2563  0.5361
14752W        W30561  15.472   8.424  13.837 -0.3519  0.1363  0.1024
14753W        W30562  17.788  13.260   4.037 -0.0480 -0.0650 -0.1702
14754W        W30563  14.906  17.418   0.222 -0.0464  0.1380  0.0457
14755W        W30564   0.668  17.782  15.171  0.2770  0.0124  0.1567
14756W        W30565  16.084   7.691   0.254  0.4628 -0.3336  0.0743
14757W        W30566  17.017  18.701  11.158 -0.2858  0.1164 -0.1364
14758W        W30567   2.772  10.804  11.229 -0.0525 -0.1030 -0.0569
14759W        W30568   8.788   2.551   0.874 -0.0928 -0.0416  0.3184
14760W        W30569  16.805  13.412   0.916 -0.0705  0.1024 -0.4121
14761W        W30570  13.172   1.131  12.145  0.6516  0.0457 -0.1128
14762W        W30571   6.272   8.439   1.457 -0.1550  0.4603 -0.0837
14763W        W30572  18.013   0.183  14.028  0.1342 -0.0010  0.1058
14764W        W30573  18.673   9.066   1.898 -0.2609 -0.0213  0.1101
14765W        W30574  14.785   4.669   3.673 -0.0305 -0.0801  0.0142
14766W        W30575   2.523  11.814   0.791 -0.1182 -0.0192 -0.0445
14767W        W30576  18.190  15.059   4.554 -0.1078 -0.3925 -0.1018
14768W        W30577  14.071  12.256   1.285  0.1013  0.0123  0.0389
14769W        W30578   8.440   3.859   2.180 -0.0926 -0.2371 -0.2319
14770W        W30579  16.367   9.107  13.468  0.2479 -0.0820  0.1746
14771W        W30580   9.468  17.803  11.172 -0.1419  0.0089 -0.0980
14772W        W30581   5.531  17.954   5.382  0.1132  0.4661 -0.2594
14773W        W30582   2.066   9.906   4.056 -0.0490  0.0772 -0.1013
14774W        W30583  13.326   1.798  12.701  0.0936 -0.0527 -0.0464
14775W        W30584  17.877  15.500   4.793 -0.2505  0.0039 -0.3546
14776W        W30585   4.662  13.542  10.896 -0.1641  0.1017  0.0549
14777W        W30586  11.501   9.036   0.643 -0.1525  0.2650  0.1294
14778W        W30587  18.210   3.005   4.051  0.2289 -0.2299 -0.0819
14779W        W30588   9.156  14.452   0.555 -0.0309 -0.2916 -0.0763
14780W        W30589   3.173   0.320  10.866  0.1939  0.4224  0.0869
14781W        W30590  16.647   5.188  12.160  0.2637  0.0922 -0.1721
14782W        W30591  11.151   5.234  10.250 -0.0157  0.0887  0.2862
14783W        W30592  17.765  11.596   9.935 -0.0983  0.0871 -0.1759
14784W        W30593  17.408  16.206   2.694 -0.1368 -0.0475  0.0605
14785W        W30594   4.029   0.765  12.389 -0.3582 -0.1983  0.1897
14786W        W30595  11.880   6.022  13.271  0.1132 -0.0297  0.2217
14787W        W30596  11.798  17.557   4.744  0.0549  0.0907  0.0593
14788W        W30597   5.379  18.486   4.585 -0.2052  0.4224 -0.0355
14789W        W30598  12.756  14.733   3.266  0.0228 -0.1148 -0.0083
14790W        W30599   2.010   6.725   2.797 -0.3108  0.1813 -0.0374
14791W        W30600  14.102  13.375   2.028 -0.5369 -0.3447  0.2350
14792W        W30601  10.493  10.449   0.206 -0.0712  0.3883  0.0592
14793W        W30602  14.578   7.835   0.312 -0.1196  0.0867 -0.1750
14794W        W30603   0.784  10.349   1.955  0.0777 -0.0710 -0.0650
14795W        W30604  12.933   0.571  11.536  0.0350  0.1622  0.3545
14796W        W30605  17.528   0.792   0.183 -0.1955  0.0287  0.0993
14797W        W30606  19.092   3.196   3.739 -0.1916  0.1093 -0.0234
14798W        W30607   5.138  13.326   5.818  0.1869  0.0154  0.2659
14799W        W30608   4.084  15.371  13.387 -0.0512 -0.2250  0.1295
14800W        W30609  14.326   4.127   4.518  0.2302  0.1996  0.2059
14801W        W30610   9.929   7.591  14.041  0.1844  0.1483  0.1107
14802W        W30611  11.415   6.374  14.793  0.2036  0.1792 -0.0748
14803W        W30612   9.625   1.162  14.225 -0.2053  0.1845 -0.2213
14804W        W30613   5.029  12.200  13.020  0.4902 -0.0506 -0.2437
14805W        W30614  10.020  11.401  12.269 -0.0238 -0.0887 -0.2913
14806W        W30615   7.449   2.415   4.531 -0.2540 -0.0568 -0.0315
14807W        W30616   3.899  18.956   0.655  0.0153 -0.0371 -0.2579
14808W        W30617  15.361   5.484  11.845 -0.2586 -0.0278 -0.2071
14809W        W30618   0.595   0.663   2.663 -0.2792  0.0068 -0.2055
14810W        W30619   8.715   0.837   1.998 -0.1371  0.2377  0.2517
14811W        W30620  17.512   3.931   0.823  0.1890  0.0061  0.1947
14812W        W30621  15.818  13.440   1.267  0.1789  0.2455 -0.1356
14813W        W30622  14.440  18.803  13.041  0.0373 -0.0273 -0.0846
14814W        W30623   5.733  16.094  11.865  0.0454 -0.3728  0.2477
14815W        W30624   5.504   6.502   1.465 -0.0157  0.0202 -0.3673
14816W        W30625   1.746  15.892   2.189 -0.0672  0.3568  0.0943
14817W        W30626   4.169  14.248   4.818  0.1640 -0.0593 -0.0397
14818W        W30627  19.004   9.568  13.398 -0.1330 -0.3085  0.2233
14819W        W30628   6.311   9.658   5.702  0.0976  0.0698  0.1766
14820W        W30629   6.715  17.347   3.117 -0.3213  0.0876 -0.6488
14821W        W30630   1.107  11.795  14.111  0.0545 -0.1251  0.1953
14822W        W30631  15.223  16.567   2.122  0.1083 -0.0684 -0.2666
14823W        W30632   0.768   6.798   0.028 -0.1594 -0.2808  0.1529
14824W        W30633  15.239  13.388   2.014  0.3904 -0.0470  0.2221
14825W        W30634   2.657   8.885   3.317 -0.1403 -0.0853  0.3422
14826W        W30635   3.028  11.867   4.582 -0.0129 -0.1840  0.0272
14827W        W30636  18.506   4.563   0.322 -0.0064  0.0363 -0.1308
14828W        W30637  18.078   8.252  13.422 -0.1721  0.0247 -0.3626
14829W        W30638  18.034   1.096   1.621 -0.1276  0.0516  0.1292
14830W        W30639   9.359  16.726  13.587 -0.2215 -0.1784  0.4047
14831W        W30640   7.228   0.508  14.535 -0.3636  0.1546  0.1217
14832W        W30641   9.268   4.223  11.997 -0.3396  0.0917  0.1828
14833W        W30642  12.131   5.256  14.265  0.1926  0.3188 -0.2847
14834W        W30643  11.733  18.082   4.983 -0.2761  0.2448  0.1095
14835W        W30644   8.656  18.114   3.096 -0.2475 -0.2552  0.0774
14836W        W30645  18.376   1.551  14.754  0.0122 -0.0453  0.3183
14837W        W30646  15.328   6.347  13.908 -0.3129 -0.1867  0.0033
14838W        W30647  13.336   8.446   4.477  0.0232 -0.0429  0.3571
14839W        W30648  13.164   3.103   4.375 -0.2669  0.1590  0.1949
14840W        W30649   8.718  17.055   1.181 -0.0254  0.4560 -0.3306
14841W        W30650   9.619  15.464   1.430 -0.2690  0.2072 -0.0354
14842W        W30651  11.444  15.294   1.358 -0.1585 -0.0674  0.2905
14843W        W30652   1.327   6.875  11.607 -0.1516  0.0962  0.2377
14844W        W30653   0.748  15.724  12.523  0.2678 -0.0728  0.2847
14845W        W30654  17.626   2.469   1.739 -0.0879  0.1944  0.3034
14846W        W30655   2.819   9.979   6.365  0.1497  0.1713  0.0242
14847W        W30656  14.202  12.435   2.879 -0.1207 -0.1134 -0.1021
14848W        W30657   6.704  11.638   1.497 -0.1949  0.0669  0.0335
14849W        W30658   0.665  12.668  13.160 -0.2099  0.2193 -0.0456
14850W        W30659   2.582  11.985   2.792  0.2743  0.1167  0.0431
14851W        W30660   2.822   3.266   2.508  0.0025 -0.0812  0.2606
14852W        W30661  14.664  16.569   0.606 -0.2306 -0.1987 -0.0136
14853W        W30662   2.395  18.171   2.637 -0.1056  0.0033  0.0244
14854W        W30663   1.314   9.398  13.854  0.4062 -0.1814 -0.1656
14855W        W30664   4.443   6.922  15.173  0.2305 -0.0619 -0.2143
14856W        W30665  10.845  16.283  11.616 -0.1317 -0.0881 -0.0330
14857W        W30666  13.814  12.831  12.069 -0.0797 -0.1835 -0.0013
14858W        W30667  16.484   8.541   3.806 -0.2747  0.0813  0.1580
14859W        W30668  18.295  17.188   2.836 -0.1301  0.3524  0.0535
14860W        W30669   9.233   7.549  11.437 -0.0007 -0.0570 -0.0205
14861W        W30670  18.005  16.900   3.310  0.1272  0.1951  0.2549
14862W        W30671   8.453   7.354   0.095 -0.1776  0.0124 -0.3308
14863W        W30672  10.549  12.594   3.007 -0.2074  0.1039  0.2467
14864W        W30673   1.935  16.944   3.131 -0.1237 -0.1259  0.2056
14865W        W30674   4.991  10.960   1.516 -0.0263 -0.0046  0.3501
14866W        W30675  14.998   7.332  10.386  0.1280 -0.0802  0.0111
14867W        W30676  16.988   0.796  11.448 -0.1915  0.3844 -0.3261
14868W        W30677   4.766   3.415   0.525 -0.0791  0.1796  0.1636
14869W        W30678  18.181  14.910   1.948 -0.2301 -0.0458 -0.0041
14870W        W30679   2.328  13.118  13.218 -0.1019 -0.0639  0.1633
14871W        W30680   5.795   5.710  13.554 -0.0012 -0.0047 -0.0554
14872W        W30681  18.462  12.415   0.960 -0.1144 -0.0657  0.0730
14873W        W30682  10.558  10.289   2.247 -0.0889  0.2306  0.1264
14874W        W30683   0.596   0.019  13.672  0.0342 -0.2636 -0.4247
14875W        W30684   4.261  11.576  11.015  0.0490 -0.2600 -0.2128
14876W        W30685  17.846  10.866  11.838 -0.2189  0.0181 -0.0968
14877W        W30686   0.004   4.475  12.986 -0.1357  0.3283 -0.0078
14878W        W30687  10.877   7.567  10.693  0.1219  0.1379 -0.0018
14879W        W30688  18.933  13.775   2.752 -0.0338  0.2381  0.0343
14880W        W30689  12.176   0.252  14.602  0.5863  0.0650 -0.1878
14881W        W30690  13.601   2.596   0.276  0.0708 -0.5296 -0.3203
14882W        W30691  17.274  11.016  14.702  0.2254 -0.1081 -0.2125
14883W        W30692  11.863  11.397  13.490 -0.0846  0.1536  0.0432
14884W        W30693   4.550  17.280  12.433 -0.3167 -0.2179  0.0781
14885W        W30694   4.198   6.868  12.226 -0.1139 -0.2728 -0.1466
14886W        W30695   1.739  12.997   1.435 -0.0124 -0.1032  0.1554
14887W        W30696  14.038  10.661  15.266 -0.1174  0.3820 -0.0208
14888W        W30697   4.771   7.462  12.631 -0.1887 -0.0737  0.0224
14889W        W30698   0.516  18.007  12.684 -0.0503 -0.0258 -0.1988
14890W        W30699  10.313   8.549   4.919  0.2007 -0.3771 -0.1429
14891W        W30700  10.529  16.050  14.906  0.0476 -0.1841  0.2543
14892W        W30701   4.780  18.770   3.302  0.0227  0.0613  0.0462
14893W        W30702  10.362  17.258   4.047 -0.4406 -0.0007 -0.1765
14894W        W30703   8.183   6.394  11.961 -0.0872  0.1660 -0.3786
14895W        W30704   6.577  14.333   3.026 -0.2249  0.0743 -0.0229
14896W        W30705   9.290   2.686  13.562 -0.0806  0.0655  0.0662
14897W        W30706   5.702  11.193   5.842  0.0338  0.1577  0.3076
14898W        W30707  12.796   2.113   0.845 -0.0865  0.1391 -0.0786
14899W        W30708  13.237  15.084   1.585  0.0052  0.2962 -0.1345
14900W        W30709   9.394  10.231  10.564  0.1741  0.2506 -0.3312
14901W        W30710  14.177  10.774  11.917  0.4237 -0.4009  0.1089
14902W        W30711   0.071  17.101  15.112  0.0088  0.1908  0.0439
14903W        W30712  18.543   8.114   5.670  0.2233  0.1078  0.2592
14904W        W30713   7.670  11.688   0.303 -0.2855  0.1433 -0.0747
14905W        W30714  10.903   8.025   0.245 -0.1974  0.1230 -0.1850
14906W        W30715   2.462   0.915  14.708  0.1788  0.5178  0.2533
14907W        W30716  11.789   4.687   4.281 -0.0851 -0.4301  0.1512
14908W        W30717  15.909   5.609   0.741 -0.2501  0.0028 -0.3125
14909W        W30718  11.065   1.918  14.472  0.0924 -0.0836 -0.0528
14910W        W30719   1.149  13.112  15.090  0.0537 -0.0758  0.1489
14911W        W30720  10.750  17.815  11.405  0.2011 -0.0189 -0.0876
14912W        W30721  11.047   5.039  11.811 -0.2491  0.3754  0.1132
14913W        W30722  15.080   5.256   4.142  0.4196  0.0747  0.1947
14914W        W30723  14.403   9.742   5.383 -0.1989  0.0831 -0.1858
14915W        W30724   1.107   7.007  14.206  0.0650 -0.0188 -0.0195
14916W        W30725   9.022   9.045   0.974 -0.1469  0.4671  0.0829
14917W        W30726   8.254  18.129   4.727  0.1427 -0.2171  0.1804
14918W        W30727   7.240  15.608  12.590 -0.0518 -0.0293  0.0104
14919W        W30728  13.161  16.659  15.267 -0.0362  0.0347  0.0698
14920W        W30729   5.747   8.159   3.418 -0.1801  0.0084 -0.2018
14921W        W30730  13.506   7.461  13.016  0.2385 -0.0390 -0.1313
14922W        W30731  14.152  13.549   0.254  0.3092 -0.1518 -0.0933
14923W        W30732  16.790   5.014   2.495  0.1968  0.0211  0.2371
14924W        W30733  15.245   8.126  14.723  0.0531  0.2033 -0.1414
14925W        W30734   4.628  17.201  10.571  0.3833 -0.0288 -0.0999
14926W        W30735  12.083  11.006   3.485 -0.2536 -0.2876 -0.3108
14927W        W30736  16.942   3.761   5.028  0.1692  0.0594 -0.2180
14928W        W30737   1.343   9.377  12.903 -0.1422  0.1029  0.2827
14929W        W30738   6.472  16.391  15.174  0.1445  0.0891 -0.1682
14930W        W30739   2.234   8.365   5.054 -0.0450 -0.1036 -0.1339
14931W        W30740  14.289  16.349  14.502 -0.1876 -0.1187  0.2977
14932W        W30741  13.393   0.249   0.163 -0.0943  0.1626 -0.1942
14933W        W30742  14.271  11.218   0.985 -0.0200  0.0120 -0.2479
14934W        W30743   6.332   2.305   2.143 -0.0404 -0.0685  0.1509
14935W        W30744  16.812  13.080   1.864  0.0076 -0.4103  0.0205
14936W        W30745  14.927  13.615   3.822  0.1834 -0.2496 -0.1331
14937W        W30746  17.153  13.988   1.504  0.1035 -0.0468 -0.1481
14938W        W30747  14.068   4.524  10.512 -0.1789 -0.2183 -0.1210
14939W        W30748   3.581   0.032  10.940  0.2253  0.3355  0.2241
14940W        W30749  14.027   5.201  11.314  0.0098  0.1410  0.4179
14941W        W30750   5.411   5.251  11.996  0.4286 -0.2664 -0.2196
14942W        W30751   2.636   2.257  12.875  0.3442 -0.4234  0.0275
14943W        W30752   9.414   5.259   5.098  0.1026 -0.3916 -0.3599
14944W        W30753   9.435   2.453  12.317 -0.1569 -0.2559  0.2822
14945W        W30754  10.826  12.831  13.251 -0.2010  0.1006  0.2777
14946W        W30755   5.955   0.559   2.400 -0.0020 -0.3773 -0.2157
14947W        W30756   7.502  17.683  12.622 -0.3751 -0.2193 -0.1499
14948W        W30757  15.220  14.920   3.619 -0.3067 -0.0705 -0.1574
14949W        W30758   4.816  18.841  11.727  0.0388  0.0600 -0.3341
14950W        W30759   5.597   7.385   3.916  0.1143  0.1336 -0.1741
14951W        W30760  18.773   6.305   0.442  0.3214 -0.0339  0.2156
14952W        W30761  17.639   5.095   1.377 -0.0451  0.0959  0.2327
14953W        W30762   0.338   1.987   4.129  0.3201  0.1111  0.0879
14954W        W30763  17.627  16.163   2.175 -0.0488  0.2322  0.0837
14955W        W30764   1.996   2.289   9.789 -0.2172  0.0226  0.1355
14956W        W30765   3.397   4.255  11.179 -0.1895 -0.3165 -0.0083
14957W        W30766  11.821  17.218   4.273  0.3367  0.0867  0.2009
14958W        W30767   8.216  10.313   4.661  0.1902  0.0739  0.3339
14959W        W30768  14.219   2.749  14.806 -0.0124  0.1276  0.0121
14960W        W30769  12.842  14.901   0.661  0.2053  0.1134  0.0211
14961W        W30770  15.802   5.925   3.088 -0.3071 -0.2252  0.0004
14962W        W30771  10.346  16.550  10.892 -0.2002  0.0860  0.2942
14963W        W30772   1.384  18.866   3.314 -0.2290 -0.0007  0.0959
14964W        W30773  17.447  12.194   0.302 -0.2640 -0.0036  0.0441
14965W        W30774   7.445   3.549  11.785  0.0920 -0.1641 -0.0611
14966W        W30775   4.366   7.713   0.563 -0.0047 -0.1459  0.1374
14967W        W30776   7.971   7.374  10.750  0.2339 -0.2917  0.1782
14968W        W30777  18.652   0.748   3.694  0.0759 -0.0861  0.2611
14969W        W30778  15.955   1.923   1.543 -0.0078  0.2692  0.3255
14970W        W30779  16.285   1.656   3.919  0.1088 -0.0195 -0.1938
14971W        W30780  13.390  11.200   3.200 -0.0647 -0.1281 -0.1446
14972W        W30781   1.428  18.414   0.143 -0.0996  0.4350 -0.3950
14973W        W30782   2.435   9.805  10.845  0.2162  0.4582  0.1983
14974W        W30783   4.662  12.392   1.738  0.0501  0.2532 -0.0285
14975W        W30784   7.305  16.859  12.978  0.1296  0.0999  0.2241
14976W        W30785  16.540   7.891  13.482  0.2032  0.1044  0.1268
14977W        W30786  10.103   9.726  10.958 -0.1247  0.0348 -0.2581
14978W        W30787   6.923  17.712   2.215 -0.2411 -0.0818  0.0799
14979W        W30788  13.292   8.887  14.854  0.3317  0.0102 -0.1553
14980W        W30789  10.678  11.956   0.097 -0.0522 -0.3445  0.0883
14981W        W30790   8.122  13.536   5.324 -0.2413  0.3541  0.2423
14982W        W30791   9.094   3.583   3.009  0.0781  0.3501  0.1505
14983W        W30792  19.043  10.869   2.534  0.2247  0.2024 -0.1199
14984W        W30793  17.858   8.771  13.318  0.0208 -0.1786 -0.1166
14985W        W30794  18.685  14.832  14.822  0.0555  0.1549  0.0911
14986W        W30795   6.490  15.076  15.036  0.1933  0.0531 -0.0043
14987W        W30796  15.927   5.404   4.122 -0.1107 -0.0287 -0.1801
14988W        W30797   8.713  10.320   0.773 -0.0840 -0.4696 -0.2245
14989W        W30798   1.652  18.066   4.880 -0.0663 -0.1544  0.0918
14990W        W30799  10.110   9.425   1.312 -0.1542  0.0027  0.0928
14991W        W30800  18.489   2.305  14.215  0.1666 -0.0890  0.2786
14992W        W30801  13.310   5.514  14.354  0.4356 -0.2841 -0.3268
14993W        W30802  14.950   6.762   3.315 -0.0637 -0.0588 -0.2028
14994W        W30803   3.904  13.438   3.221 -0.1380  0.0227  0.3719
14995W        W30804   1.617   1.595   0.101  0.1276 -0.1059 -0.0076
14996W        W30805  12.466   1.862  12.257  0.2604 -0.4816  0.1868
14997W        W30806  14.294  10.283   4.256 -0.0554 -0.0013  0.1681
14998W        W30807   8.349  16.649   5.643 -0.0865 -0.1528  0.2539
14999W        W30808  11.213  15.973  13.001 -0.1158 -0.3131  0.4543
15000W        W30809  12.394  18.855   2.077 -0.3108  0.1117  0.1782
15001W        W30810  18.012  13.107   3.048  0.2415 -0.1691 -0.0485
15002W        W30811   7.232  16.224   1.547  0.2595  0.0326  0.0842
15003W        W30812   0.757   7.030   5.194  0.3689 -0.0978 -0.1200
15004W        W30813   6.325  16.375   1.667 -0.0952  0.0563 -0.1283
15005W        W30814  12.381   0.405   0.916  0.2199 -0.0218  0.2267
15006W        W30815  10.003  14.085   2.973  0.4141  0.1918  0.0251
15007W        W30816  10.851   2.003   5.175 -0.2278 -0.1361 -0.0914
15008W        W30817  15.548  12.042  14.398 -0.0001 -0.2161 -0.0642
15009W        W30818   5.790   8.235  14.404 -0.0566 -0.1578 -0.0660
15010W        W30819  17.340   4.059  12.654 -0.0729  0.1997  0.0324
15011W        W30820   4.488   1.524   1.202 -0.2981 -0.1604  0.0697
15012W        W30821  12.752  14.967   2.823 -0.2910 -0.0016  0.0566
15013W        W30822   3.881   5.895  10.343  0.0397 -0.3104 -0.4191
15014W        W30823   4.937   9.155   3.521 -0.0140  0.1676  0.5284
15015W        W30824   5.644   4.062  14.110 -0.2507  0.1517  0.1157
15016W        W30825   2.537  15.932   1.630  0.0275  0.0632  0.0042
15017W        W30826  16.194  17.307   5.455  0.2025 -0.0548  0.0876
15018W        W30827  17.991   8.420   3.502  0.1803 -0.0877  0.1024
15019W        W30828   7.841   7.140   5.155  0.0359  0.1362 -0.1726
15020W        W30829  13.713   0.363  14.045 -0.1656  0.1875  0.0599
15021W        W30830  18.808  13.716  12.178 -0.0497 -0.1451  0.0567
15022W        W30831  11.798   2.884   4.449 -0.2214  0.0230 -0.0289
15023W        W30832  10.561  12.270  10.500 -0.3638  0.1045 -0.0740
15024W        W30833  16.722  15.981  14.822  0.0148 -0.0030  0.3709
15025W        W30834  14.655   0.572  12.434 -0.0644  0.0684 -0.1083
15026W        W30835  13.527  16.160   1.624 -0.1819 -0.1951  0.4492
15027W        W30836  16.082   8.568   4.094 -0.1257 -0.0699 -0.1144
15028W        W30837  10.904  14.327   4.127  0.0308  0.2003 -0.0236
15029W        W30838  12.415  18.847  14.388  0.1160 -0.2643 -0.1201
15030W        W30839  15.562  10.500  11.351 -0.1563  0.0362 -0.1587
15031W        W30840   7.419  17.703  14.112  0.1200 -0.1652  0.2033
15032W        W30841   2.249   6.860   1.602 -0.0268  0.2317 -0.3122
15033W        W30842  14.811  14.847  11.021 -0.0685  0.4302 -0.2909
15034W        W30843   0.437   4.138  14.069 -0.1640 -0.2376  0.1560
15035W        W30844  15.888  17.291   2.286  0.1669 -0.0245 -0.1922
15036W        W30845  14.516  16.565  13.025  0.0835 -0.2685 -0.2280
15037W        W30846  18.023   7.004   0.237 -0.1059  0.0971  0.0248
15038W        W30847   3.613   1.835   4.465  0.0580 -0.1240  0.3625
15039W        W30848  16.031  10.724  10.407  0.2548 -0.1715 -0.0222
15040W        W30849   1.939   7.661   4.459 -0.3547  0.0969 -0.2368
15041W        W30850  17.218   7.561  11.453  0.2374  0.0934 -0.2198
15042W        W30851  15.007   1.691  11.894  0.2440 -0.1397  0.0663
15043W        W30852  13.088   7.816   2.793 -0.3917 -0.2809 -0.1729
15044W        W30853  16.551  16.828  10.704 -0.1811 -0.1835 -0.1135
15045W        W30854   3.644  18.164   2.087 -0.2048  0.0047 -0.1074
15046W        W30855  16.520   7.312  10.735 -0.2024 -0.0436 -0.0201
15047W        W30856   7.003   5.566   4.546  0.1386 -0.2265 -0.2141
15048W        W30857  12.857  17.708   4.168 -0.0949 -0.2195 -0.0936
15049W        W30858   7.550  14.403   2.906 -0.1336 -0.0194  0.2445
15050W        W30859  10.710   2.095  13.177 -0.2136 -0.0650 -0.4008
15051W        W30860  12.020   5.434  12.096 -0.0838  0.0855 -0.0478
15052W        W30861   4.067  10.225  10.447  0.1945  0.2498  0.1607
15053W        W30862  17.282  11.787   0.777  0.2622 -0.2935  0.1655
15054W        W30863  17.733   1.389  13.898  0.0120 -0.0552 -0.1688
15055W        W30864  18.244  10.817   0.480  0.0128  0.0624  0.0960
15056W        W30865   3.385   0.159  12.608  0.1264  0.3678 -0.0325
15057W        W30866   5.320  11.035  11.431 -0.0685  0.3325 -0.1491
15058W        W30867   3.344  14.816   1.524 -0.1816  0.1559 -0.0563
15059W        W30868  18.705  16.927  11.850 -0.4227  0.0301  0.2526
15060W        W30869   6.648   6.467  12.076  0.0240  0.2215 -0.2534
15061W        W30870   5.255  15.016  11.275  0.2125 -0.2940 -0.0507
15062W        W30871   2.813  17.083   0.801 -0.0268 -0.1771 -0.0721
15063W        W30872   5.850   7.115   4.457 -0.0588  0.2787  0.0678
15064W        W30873   0.460  12.368   0.692  0.3740 -0.1583  0.1613
15065W        W30874  14.363   7.365  14.597  0.1827  0.0461  0.1290
15066W        W30875   3.967   1.967   0.209 -0.4289  0.0700 -0.1391
15067W        W30876  11.876  15.606   3.250  0.1626 -0.0454  0.1998
15068W        W30877   9.657  16.677   0.849 -0.1795 -0.1822 -0.0026
15069W        W30878  11.056  14.176  11.840  0.2416 -0.1081 -0.1176
15070W        W30879   9.560  12.769   2.617 -0.2176  0.1600  0.0874
15071W        W30880  18.738  11.533   1.754 -0.0924  0.0420 -0.0332
15072W        W30881  14.295   6.460   9.069  0.2661 -0.3404  0.0227
15073W        W30882   7.449  14.520  14.451 -0.1095  0.1377  0.0572
15074W        W30883  17.678  18.411   4.775 -0.1382 -0.0368  0.0891
15075W        W30884   3.190   6.468  12.240 -0.1035 -0.0257  0.1756
15076W        W30885  15.505  17.882   0.998  0.0180 -0.2594  0.4319
15077W        W30886  16.084  14.750  11.667 -0.1154  0.1081 -0.0113
15078W        W30887   3.919   6.145   2.830 -0.4271  0.0710  0.4753
15079W        W30888  16.919  11.066   3.155  0.2778  0.0062  0.1725
15080W        W30889   0.978  14.925  11.959  0.2665  0.1701  0.2362
15081W        W30890  13.194   8.976   3.488 -0.0543 -0.0928  0.1756
15082W        W30891  15.971  13.497  14.187  0.0885  0.2644  0.1328
15083W        W30892  11.910  11.758   1.492 -0.0904  0.0763 -0.0068
15084W        W30893   2.711   5.421   3.160  0.2075  0.2145  0.0616
15085W        W30894  12.485  14.792   4.261  0.0121 -0.4153  0.1633
15086W        W30895  15.386   2.409  10.814  0.3505 -0.2591 -0.1716
15087W        W30896  13.311   8.425  12.042  0.2863  0.1582  0.1256
15088W        W30897  11.974   9.402  15.171  0.0597 -0.0769 -0.1194
15089W        W30898  12.922   5.874   3.394  0.0526  0.0494  0.1133
15090W        W30899  14.637   2.804  10.638  0.2775  0.0653  0.0562
15091W        W30900   5.195   6.207   1.775 -0.3587 -0.1093 -0.1285
15092W        W30901   9.285  15.133  14.394 -0.0113 -0.2230  0.3129
15093W        W30902   2.588  11.992  13.564 -0.1088 -0.1315  0.3765
15094W        W30903  17.271   1.571  12.494  0.1311  0.0048 -0.0556
15095W        W30904  11.049  10.887   4.694  0.0974  0.3238  0.1265
15096W        W30905  16.228   2.426   3.520  0.0412 -0.0386 -0.2640
15097W        W30906   9.921   5.889   1.031  0.0333  0.0051 -0.1860
15098W        W30907   3.313   7.678  14.011  0.2951 -0.0417 -0.0870
15099W        W30908   0.669   2.916  12.106  0.1365 -0.0067  0.0959
15100W        W30909  11.292   7.657  10.397 -0.0785  0.2139 -0.4107
15101W        W30910  18.516   9.264  11.917 -0.4104  0.0497 -0.2545
15102W        W30911  17.972   1.480   1.296 -0.2648  0.1476  0.0686
15103W        W30912   7.701  16.934  10.365  0.2829  0.0970 -0.1439
15104W        W30913   4.693  15.280   0.242  0.2633 -0.0491 -0.2167
15105W        W30914  13.290   9.295  11.001  0.1326 -0.2252 -0.0103
15106W        W30915   5.940  17.590   5.469  0.5069 -0.0347 -0.3234
15107W        W30916   6.044  18.277  13.871  0.3777 -0.1494  0.1135
15108W        W30917  14.865  18.033  12.047  0.0244 -0.1093  0.1119
15109W        W30918  10.625  18.418  12.173 -0.2037  0.1210 -0.1397
15110W        W30919   4.113   7.109  12.735  0.1815 -0.0478 -0.0514
15111W        W30920   1.977   9.602  14.869 -0.0303 -0.0347 -0.0041
15112W        W30921   8.197  10.416   0.836  0.0991  0.2274  0.1597
15113W        W30922  16.575  12.324  14.118 -0.0998  0.1774 -0.2756
15114W        W30923  10.644   1.199  12.659 -0.0381  0.1048 -0.0176
15115W        W30924   3.428  17.165  11.859  0.0770 -0.1761  0.2061
15116W        W30925   2.220  14.795  10.979  0.0474 -0.2882 -0.2864
15117W        W30926   1.766   0.628   3.353  0.0417 -0.1035  0.0860
15118W        W30927  11.227   2.774   0.495  0.0236  0.0840 -0.2073
15119W        W30928  16.265   6.461  14.282 -0.3125  0.1281 -0.1751
15120W        W30929  11.846   6.210   4.553 -0.3289  0.1364  0.3346
15121W        W30930   2.631   3.548  12.748  0.0213 -0.0944 -0.1220
15122W        W30931   6.404   4.313  12.485  0.1206 -0.0786 -0.1664
15123W        W30932   0.266  11.136  12.018  0.0760 -0.1190  0.1973
15124W        W30933   3.090   7.759   3.491 -0.0743 -0.0947 -0.1317
15125W        W30934  16.073   2.896   1.994  0.3723  0.0495  0.1197
15126W        W30935   2.879  15.207   2.816 -0.2392  0.0597  0.2086
15127W        W30936  16.657   0.638  13.807  0.1727 -0.0281  0.2224
15128W        W30937  12.867   7.014  14.492  0.0400 -0.0418  0.1665
15129W        W30938  12.375  17.805  12.750  0.0094  0.0348 -0.2799
15130W        W30939   1.321  16.343  13.367  0.1185  0.2094  0.2051
15131W        W30940   6.841   4.134   4.979 -0.0024  0.3674 -0.0916
15132W        W30941   4.081   7.920  14.491 -0.0149  0.0049 -0.2719
15133W        W30942  11.675   5.182   1.328 -0.1332  0.3806  0.2645
15134W        W30943   9.098   0.526   2.698 -0.1651 -0.0998 -0.1232
15135W        W30944  14.530   9.844   4.727  0.0740  0.2061 -0.0082
15136W        W30945  12.288   2.372  14.367 -0.0349  0.0884 -0.1915
15137W        W30946   3.768  16.043  12.496 -0.3969 -0.1536  0.1269
15138W        W30947   6.493   0.857   2.394 -0.4152  0.2848 -0.2626
15139W        W30948   1.956   5.586  13.662  0.0489  0.1697 -0.1791
15140W        W30949   4.412   9.603  12.961 -0.3237  0.0096 -0.0436
15141W        W30950  10.309   3.752   3.946  0.0445  0.3813  0.0234
15142W        W30951  10.195  16.651   4.084 -0.1180 -0.1104 -0.5083
15143W        W30952  17.436  15.765   1.324  0.0235 -0.0913 -0.2036
15144W        W30953  18.133  18.268   4.128  0.2003 -0.0597  0.1673
15145W        W30954   6.445  15.120  12.724 -0.0651 -0.0818  0.0133
15146W        W30955   8.705  12.409   0.068  0.1904  0.0492  0.1499
15147W        W30956   8.504  16.622   1.153 -0.2494  0.0039 -0.1444
15148W        W30957   1.766   2.695   1.501 -0.0066  0.2643  0.1822
15149W        W30958  10.046  10.546  14.741  0.1078 -0.2311  0.2109
15150W        W30959  18.398  12.281   1.458 -0.0190 -0.0161  0.2610
15151W        W30960   6.812   4.441  13.961  0.1406  0.2495 -0.0768
15152W        W30961   5.186   0.380   3.488 -0.1464 -0.1949  0.1709
15153W        W30962   9.860   8.253   4.432  0.2440 -0.1555 -0.0030
15154W        W30963   1.363   9.686   5.422 -0.1992 -0.1971 -0.0346
15155W        W30964  16.145   4.948  10.357 -0.0388 -0.3074  0.0356
15156W        W30965   3.393   0.331   5.050 -0.0653 -0.0907  0.3605
15157W        W30966   0.202  12.184  14.012 -0.1343 -0.0769 -0.3040
15158W        W30967  13.012  13.528   4.479 -0.2177 -0.0135 -0.0160
15159W        W30968   1.701  15.660  10.859  0.1832 -0.1032  0.0813
15160W        W30969  12.309   5.574   1.252  0.3066  0.1947  0.0699
15161W        W30970  15.659   2.534   0.131  0.1601  0.0233  0.6884
15162W        W30971  13.014  10.199  11.209  0.1068 -0.0884 -0.0812
15163W        W30972  11.267  12.645   2.942 -0.3674 -0.1872  0.1114
15164W        W30973  15.830   4.616   4.301  0.1628  0.1809 -0.2002
15165W        W30974  10.825  14.179   4.618 -0.1335  0.3228 -0.1012
15166W        W30975  12.620  12.886  11.900 -0.1984 -0.0846 -0.2037
15167W        W30976   4.032  12.850   5.523  0.2549  0.3466 -0.3027
15168W        W30977   3.928  17.441   9.070  0.0554 -0.0818  0.0686
15169W        W30978   7.980   1.441   0.790  0.0906  0.4018 -0.0299
15170W        W30979  11.246   7.950   3.472  0.0781  0.0585  0.1983
15171W        W30980  11.082  15.720   4.228 -0.1743 -0.0180 -0.1898
15172W        W30981   8.161  18.853   2.445  0.2415  0.1764  0.3995
15173W        W30982   6.644  13.450   5.169  0.1707  0.0448  0.0318
15174W        W30983  18.416  10.172   0.893 -0.0194 -0.2117  0.0587
15175W        W30984   7.156   2.534   9.034 -0.0754  0.3828  0.2675
15176W        W30985   9.814   7.434  14.506 -0.0520 -0.0122  0.3626
15177W        W30986  18.149  17.583   0.970  0.1681  0.0443  0.1461
15178W        W30987  15.160  11.763  12.353 -0.3813  0.2725  0.0295
15179W        W30988   9.267   6.825   4.666  0.2378 -0.0341 -0.1494
15180W        W30989   1.093   1.316  11.933 -0.2769  0.2443 -0.3167
15181W        W30990  14.562   2.805   9.235  0.2780  0.3252  0.0759
15182W        W30991  14.299   5.760   3.164  0.2908  0.0997 -0.1189
15183W        W30992  18.221  18.814   3.277  0.0326 -0.2103  0.1501
15184W        W30993   6.805  17.277  15.256  0.1050 -0.2005  0.4097
15185W        W30994   3.541   7.180  10.291 -0.2500  0.0733 -0.2548
15186W        W30995  13.279   7.659   4.998 -0.2334  0.1475 -0.1478
15187W        W30996   1.966   3.824  14.297  0.1387 -0.1923 -0.2904
15188W        W30997   2.373   5.027  14.641  0.0909  0.0042  0.0869
15189W        W30998  19.073   6.328  14.887 -0.1484 -0.0060 -0.0546
15190W        W30999   0.724   8.065  12.540  0.2502  0.0835  0.0931
15191W        W31000   8.222  12.245  14.935 -0.1264 -0.0143  0.3735
15192W        W31001   4.705   2.407  15.135 -0.1891  0.0434 -0.0920
15193W        W31002  15.869  17.935  14.501  0.1577  0.0331 -0.3006
15194W        W31003  15.798  18.258  12.665  0.1381 -0.0170 -0.2613
15195W        W31004  18.113  13.889   2.692 -0.1112 -0.0631 -0.0785
15196W        W31005  17.209   2.188   4.662  0.3046 -0.3327 -0.1989
15197W        W31006  18.421  12.759   1.292  0.0415 -0.0321 -0.1648
15198W        W31007  15.899   7.257   4.696 -0.0143 -0.1580 -0.0207
15199W        W31008   2.452  15.097   0.423 -0.0216 -0.1506 -0.4241
15200W        W31009  16.118   5.452  10.313 -0.0019 -0.2572 -0.0978
15201W        W31010   7.808   7.526   6.102 -0.5198  0.0454 -0.0702
15202W        W31011  14.519   2.949   4.749 -0.0139 -0.1059  0.1558
15203W        W31012   6.232   9.170  12.833 -0.0623  0.4536  0.2574
15204W        W31013  17.220  17.530  13.725 -0.0175 -0.2175 -0.1819
15205W        W31014  12.825  16.685  13.539 -0.1617 -0.0602  0.1890
15206W        W31015   9.394  16.164  12.747  0.2866  0.0788  0.0279
15207W        W31016   9.331   7.113  12.330  0.1004  0.4106 -0.2578
15208W        W31017  13.040  18.788  13.659 -0.1147  0.1456  0.1311
15209W        W31018   6.590  15.945  12.586  0.0517 -0.2476  0.2091
15210W        W31019   3.291  10.722  13.575  0.0692  0.0857 -0.5016
15211W        W31020   7.511  16.721  13.607  0.0399 -0.0865  0.1621
15212W        W31021   9.879   8.847   0.474  0.0160  0.0661 -0.1005
15213W        W31022  17.687   0.483  14.211 -0.0574 -0.1226 -0.1173
15214W        W31023  15.657  14.184  11.343 -0.0686 -0.1727 -0.0277
15215W        W31024  17.097  10.499  11.235 -0.0738 -0.0991 -0.0736
15216W        W31025   9.631  18.073   0.222  0.1935  0.2008 -0.1641
15217W        W31026  16.838   1.624   1.793  0.0758 -0.1720 -0.0488
15218W        W31027  12.525   2.142  12.711 -0.3226  0.0037  0.0459
15219W        W31028  17.782   7.362   1.524 -0.2711 -0.0621  0.0314
15220W        W31029  16.273   2.053   2.679  0.0524 -0.0281  0.3102
15221W        W31030  15.248   3.271  14.087 -0.0144  0.1623  0.0253
15222W        W31031  10.593  10.661   4.614  0.1566  0.2714 -0.1494
15223W        W31032  10.041   8.132  12.276  0.2074  0.0707  0.1152
15224W        W31033   1.500   9.673   2.195 -0.4175  0.2513  0.1243
15225W        W31034  18.700  13.303  10.722 -0.0069  0.0024 -0.0394
15226W        W31035   8.839   0.410   4.571 -0.1409 -0.1272 -0.2575
15227W        W31036   8.796   1.012  14.175  0.2921  0.1499 -0.1690
15228W        W31037   2.731   6.980  10.860 -0.2835 -0.2321  0.1039
15229W        W31038  14.471   1.137  13.143 -0.2317 -0.2447  0.0468
15230W        W31039   1.565  13.940  13.551  0.7367 -0.0880 -0.0739
15231W        W31040  16.781   2.837  12.715 -0.0566  0.2947 -0.2023
15232W        W31041  10.095  15.686  13.411 -0.0352  0.2581 -0.3196
15233W        W31042   8.188   5.325   1.607 -0.0244  0.0058  0.1183
15234W        W31043   5.581  16.645   9.744  0.3597  0.1570 -0.1608
15235W        W31044   0.957   2.985  15.152  0.1648 -0.3489  0.2124
15236W        W31045   3.817   5.373  13.035 -0.2265 -0.2213 -0.0656
15237W        W31046  16.246  14.260   4.472  0.1684 -0.4821  0.2949
15238W        W31047  15.540   1.930   0.601 -0.0473 -0.0929 -0.0044
15239W        W31048   4.342  13.411  13.455  0.2089 -0.1192  0.0123
15240W        W31049   2.292   5.131   3.270 -0.0022  0.0460  0.2781
15241W        W31050  10.540  15.297  15.151 -0.1454  0.2876  0.1147
15242W        W31051  17.871  15.014  14.705 -0.0229  0.0500 -0.1356
15243W        W31052   6.304   9.919  10.914  0.2082 -0.1410  0.3330
15244W        W31053   9.588   2.995   0.735 -0.2727  0.0809 -0.1217
15245W        W31054  16.730   8.581  12.088 -0.2161 -0.1604  0.0157
15246W        W31055  16.168   1.955  10.716  0.1464 -0.2281 -0.1379
15247W        W31056   7.063  12.531   0.315 -0.2595  0.2041 -0.3661
15248W        W31057  14.000   6.658   1.082 -0.1477 -0.2141  0.3752
15249W        W31058   7.002  10.223  13.029  0.2316 -0.0568  0.0043
15250W        W31059  15.810  11.381   2.518 -0.1411 -0.1875  0.1059
15251W        W31060   5.445   7.673   3.501 -0.1624 -0.0716 -0.3672
15252W        W31061  16.273   5.413   0.494  0.1451 -0.0501 -0.0747
15253W        W31062   3.039   1.324   1.167 -0.0664  0.0536  0.3016
15254W        W31063  18.641  15.013  12.847  0.1785  0.0663  0.1352
15255W        W31064   4.118  14.355  13.496 -0.0392  0.2420  0.2141
15256W        W31065   5.101   1.456   3.605 -0.1218  0.2743  0.0236
15257W        W31066   2.479  12.308   5.077 -0.0280  0.1325 -0.1989
15258W        W31067  12.491  18.142   1.123  0.1507 -0.1079 -0.4095
15259W        W31068   9.248  15.169  12.330 -0.0655 -0.2781  0.1091
15260W        W31069  11.017  14.986  11.091  0.1674 -0.2755 -0.4634
15261W        W31070  17.081  13.913   2.316  0.1116  0.0713  0.1131
15262W        W31071   8.350  13.818   3.339 -0.2315  0.0196 -0.2227
15263W        W31072  16.646  12.277   3.516 -0.2396 -0.2995 -0.2544
15264W        W31073  12.442  12.352  12.518 -0.2647  0.0176  0.0314
15265W        W31074   5.945  17.324  12.537 -0.0734 -0.0525  0.0617
15266W        W31075  12.643  14.653   3.780 -0.2009 -0.2840  0.2132
15267W        W31076  15.831   9.583   0.250 -0.0607 -0.1138 -0.0664
15268W        W31077   9.158   4.758   3.281 -0.3390  0.2962 -0.1494
15269W        W31078   1.636  16.597   5.132  0.0177 -0.0073 -0.4092
15270W        W31079  12.682  17.488  11.884 -0.1501 -0.1148  0.0365
15271W        W31080   3.954   8.654   0.143 -0.0364  0.1152  0.3807
15272W        W31081   6.254  12.323   1.979 -0.1013 -0.1954 -0.1343
15273W        W31082  12.871  11.251  12.096  0.1442  0.1427  0.1296
15274W        W31083   7.641   5.406   5.141 -0.1346 -0.3146  0.1354
15275W        W31084  15.121  15.771  15.048 -0.0503  0.3930  0.1627
15276W        W31085   4.891  11.173   3.891 -0.1327  0.2633 -0.1636
15277W        W31086  16.599   4.197  11.961 -0.0136 -0.0334  0.1064
15278W        W31087   3.391  17.881  13.946  0.3371 -0.2322  0.0069
15279W        W31088   5.300   8.863  14.047 -0.2047 -0.2059 -0.2077
15280W        W31089   5.951  17.633   2.466  0.1900  0.3581  0.0956
15281W        W31090   1.995  13.488   3.553  0.0621  0.0590  0.2526
15282W        W31091  16.267  18.869  12.295 -0.0756 -0.1260  0.1484
15283W        W31092   3.912  16.268  13.254 -0.0043  0.0215  0.3749
15284W        W31093  13.340   5.412   3.586  0.4134 -0.0819  0.1287
15285W        W31094  15.691   0.074  12.747  0.2270 -0.2500 -0.3589
15286W        W31095   6.024  12.598   3.173  0.1540  0.3842  0.0351
15287W        W31096   2.397  10.863   0.719 -0.2669 -0.2386  0.0115
15288W        W31097  11.742   5.719   4.386 -0.0007  0.4547  0.0700
15289W        W31098   1.149   7.723   3.255  0.2251 -0.2861 -0.0894
15290W        W31099  15.373   1.647  12.724 -0.0577 -0.0790 -0.0065
15291W        W31100   4.279   4.231   1.934 -0.0207  0.0705 -0.0260
15292W        W31101   8.290  15.401   2.485 -0.2927 -0.0653  0.1963
15293W        W31102   7.302  12.558   2.746  0.0508 -0.2908  0.0686
15294W        W31103   8.141  11.943   4.874 -0.1722  0.1658  0.0996
15295W        W31104  13.513   9.362  14.291  0.2745 -0.0547  0.1645
15296W        W31105  12.372  12.854   0.012 -0.0655 -0.0450  0.2115
15297W        W31106  11.086  10.169   3.391  0.3487  0.0149 -0.0418
15298W        W31107   7.370   5.503   3.601 -0.3901 -0.4281  0.1849
15299W        W31108   8.643  18.748   4.078 -0.1081 -0.2908  0.0277
15300W        W31109   2.301   2.919   0.032  0.0420  0.0501  0.1581
15301W        W31110   7.763   9.551   2.228 -0.1699  0.0177 -0.0260
15302W        W31111   5.600  18.522  10.470  0.0165  0.2644 -0.0786
15303W        W31112  13.352  16.046  13.363  0.3270 -0.1683 -0.1732
15304W        W31113   0.109  17.936   1.396  0.1445  0.1347 -0.1889
15305W        W31114  11.614   7.790   5.226  0.1227  0.0318  0.0059
15306W        W31115  11.518  15.684  10.678  0.0232  0.3290  0.2980
15307W        W31116   2.760   7.764   2.795  0.0789 -0.2261  0.5098
15308W        W31117  17.316  13.063  13.816 -0.3910  0.1031  0.3000
15309W        W31118   4.540   2.067   0.228 -0.0630  0.1574  0.2160
15310W        W31119  14.543   9.565  10.921 -0.1290  0.0016 -0.4106
15311W        W31120  18.082   0.457   4.569  0.3289 -0.0012  0.3569
15312W        W31121  17.888   0.194   1.411  0.0816 -0.3514  0.4098
15313W        W31122   0.666  17.228  11.655  0.3458  0.1318  0.1211
15314W        W31123   6.259   7.239  11.282 -0.2403 -0.1069 -0.2244
15315W        W31124   5.467   0.851   3.149 -0.1990 -0.0645 -0.0913
15316W        W31125   7.012   8.434  13.776 -0.0255  0.2398 -0.0124
15317W        W31126   9.560   9.240  13.066  0.1756 -0.1265  0.3291
15318W        W31127  15.837   6.467   2.260  0.1930  0.3212 -0.0443
15319W        W31128  13.913   9.442   1.644  0.0183  0.0875 -0.0152
15320W        W31129   7.075   2.275   4.934  0.0479  0.0117 -0.0765
15321W        W31130   0.269   3.684  13.788 -0.3005 -0.2324 -0.0946
15322W        W31131  10.204   6.655  12.329  0.2576 -0.1376  0.1627
15323W        W31132   7.179   8.951  12.558  0.2960 -0.2527 -0.3653
15324W        W31133  10.179  10.285   2.615  0.2100  0.2316  0.1113
15325W        W31134   9.396  18.083  10.673 -0.0070  0.2170  0.2732
15326W        W31135   8.660  14.586   0.457  0.0251  0.2327  0.0902
15327W        W31136  17.673   3.520   0.202  0.0897 -0.1809  0.1713
15328W        W31137  10.444  12.617   2.358 -0.0861 -0.0172 -0.1115
15329W        W31138  17.716   8.258   0.286 -0.0950  0.1526  0.0734
15330W        W31139   3.663  14.299   2.186  0.0959  0.2021 -0.1284
15331W        W31140   6.819   0.005  10.377  0.2968 -0.1660  0.1327
15332W        W31141  12.024  11.826  11.559 -0.2078  0.2067  0.2452
15333W        W31142  13.907   6.283  13.796  0.1217 -0.2801 -0.1411
15334W        W31143   0.065   9.188  14.964 -0.2915 -0.2178  0.1653
15335W        W31144  16.595  15.885   2.970  0.1896 -0.2562  0.1385
15336W        W31145   1.152  17.029   2.445  0.0083  0.1302 -0.0413
15337W        W31146  17.098   0.295  12.176  0.2783  0.0212  0.2563
15338W        W31147   3.646   6.585   3.191  0.0007 -0.2384  0.3537
15339W        W31148   1.969  18.236   3.775  0.0363 -0.0354 -0.0091
15340W        W31149   0.482   0.014   4.542 -0.0032  0.0573 -0.0282
15341W        W31150  13.406   0.280  14.779 -0.0879 -0.2357  0.4308
15342W        W31151   6.961   6.205   1.817  0.0631  0.0928  0.3166
15343W        W31152   0.962  14.003   5.043  0.1104  0.2067 -0.0620
15344W        W31153  16.801   8.898  11.102 -0.3164  0.1979  0.3076
15345W        W31154  13.414  17.038   1.091  0.1938  0.2137  0.0325
15346W        W31155   2.794   0.584   2.332 -0.0525 -0.3359 -0.2647
15347W        W31156  15.307   5.658  12.538 -0.0513 -0.1391 -0.0700
15348W        W31157  15.626  18.347   2.207 -0.0856 -0.1046 -0.4865
15349W        W31158  16.486  17.539   3.501 -0.0988 -0.0262 -0.2333
15350W        W31159  10.512  16.383   5.282  0.1631  0.1620  0.0121
15351W        W31160  15.606  16.992   2.559 -0.1021  0.1961 -0.0755
15352W        W31161  13.962  12.276  14.395 -0.2821 -0.0189 -0.0193
15353W        W31162   8.266  14.848   2.421 -0.2265  0.1389 -0.0170
15354W        W31163  16.963  11.479   0.990 -0.1661 -0.3714 -0.2622
15355W        W31164  12.253   2.349  14.869  0.2285  0.0989 -0.1380
15356W        W31165  17.921  14.328  14.959 -0.1025 -0.3139 -0.0947
15357W        W31166  12.834   6.538   3.257 -0.4009 -0.1385 -0.0496
15358W        W31167  13.100  16.142   5.990  0.0009 -0.0758  0.0166
15359W        W31168  17.663  17.163   2.218 -0.5401 -0.0803 -0.1813
15360W        W31169   9.247   8.440  11.462  0.0127  0.0838  0.0055
15361W        W31170  17.562   1.201  10.755 -0.0323  0.0513 -0.1562
15362W        W31171  15.627   6.598   5.411 -0.0604  0.0829  0.2641
15363W        W31172   7.832   8.389  13.422 -0.3184  0.1384 -0.0887
15364W        W31173   8.724  13.995  10.942 -0.3064  0.2930  0.4045
15365W        W31174   4.933   4.871  10.422  0.0482 -0.3107 -0.2451
15366W        W31175  14.737  12.364   0.506 -0.0180 -0.0978  0.0168
15367W        W31176   1.348   0.680  10.538 -0.0604  0.2090  0.3012
15368W        W31177  18.061   9.874   4.944 -0.1396 -0.3746  0.2509
15369W        W31178   9.032  18.137   0.070  0.0942  0.3288 -0.0447
15370W        W31179   8.366   2.341  14.826  0.1213 -0.2866  0.0083
15371W        W31180  12.262  10.371   3.331  0.0164 -0.2144  0.0802
15372W        W31181  12.914   1.243   1.372 -0.2834 -0.0330  0.4186
15373W        W31182  11.680   0.613   2.985  0.0614 -0.0300 -0.0988
15374W        W31183  11.548  15.652  11.551  0.1243  0.1000  0.0361
15375W        W31184  14.383  10.759   0.831 -0.2100  0.1775  0.0260
15376W        W31185  15.039  10.778   2.575  0.1491  0.2196  0.1763
15377W        W31186   4.532  16.332  12.108 -0.0907 -0.1387  0.2289
15378W        W31187   7.137   4.943  14.625  0.2683 -0.1922  0.1327
15379W        W31188   6.379  12.684  14.950 -0.0247  0.1250 -0.3280
15380W        W31189   6.904   1.164   2.590 -0.2553  0.3950  0.0462
15381W        W31190   4.181   9.970  12.686 -0.0828 -0.0523  0.0441
15382W        W31191  16.469  12.948  11.104 -0.0599  0.1903  0.1961
15383W        W31192   3.728  16.753   5.902 -0.0098  0.2446  0.2547
15384W        W31193   4.487   6.686  14.712 -0.3263  0.2153  0.0885
15385W        W31194   4.175   1.883   1.973  0.0234 -0.1982  0.3976
15386W        W31195   7.601  17.575   2.594 -0.4643  0.1143  0.0453
15387W        W31196   0.625   8.996  12.788 -0.2503 -0.2977  0.1229
15388W        W31197  17.931  13.804   4.197 -0.1357 -0.1586  0.2734
15389W        W31198  17.639   3.898  13.570 -0.2813  0.1738 -0.4593
15390W        W31199   3.975  10.557   0.851 -0.1524 -0.3701 -0.0434
15391W        W31200  18.242   1.371  12.690  0.0522 -0.3602  0.3176
15392W        W31201   7.954   1.261   0.319 -0.3155 -0.0846  0.1222
15393W        W31202  12.013  17.870   1.213  0.1719 -0.5159 -0.4807
15394W        W31203   1.716  12.231  12.307 -0.2124 -0.1880  0.1201
15395W        W31204  15.231  10.287  14.471 -0.0987  0.2564  0.0382
15396W        W31205  14.735   5.328   0.435 -0.1827 -0.0538  0.3432
15397W        W31206   3.228  15.536  13.521 -0.0087  0.1559 -0.0246
15398W        W31207  14.961   8.101   2.850  0.0490  0.1380  0.0516
15399W        W31208  14.873  11.032  12.846 -0.0020 -0.0409 -0.3024
15400W        W31209   3.790   0.321   9.373 -0.0501 -0.2579  0.1514
15401W        W31210   4.705  18.075   2.250 -0.2444  0.2950  0.0384
15402W        W31211   0.739   1.218  13.339 -0.1453 -0.1293  0.0587
15403W        W31212   4.317  14.954  14.765 -0.2314 -0.0126  0.0453
15404W        W31213  14.423   0.630   0.952  0.1587  0.2393 -0.0997
15405W        W31214  10.188   1.428  11.524 -0.1104  0.0225 -0.0636
15406W        W31215  13.854   0.021   0.179  0.1309 -0.0654 -0.0453
15407W        W31216   4.489  18.285  11.798 -0.0155 -0.3654 -0.0197
15408W        W31217   9.649  11.055  11.290 -0.2427  0.0079 -0.1504
15409W        W31218  17.708  10.673   0.510  0.2632 -0.2021 -0.2229
15410W        W31219   0.197  15.669   2.567 -0.1102 -0.2505 -0.0889
15411W        W31220  15.997   6.921   1.430 -0.1274  0.1189  0.0560
15412W        W31221  16.552   3.442  10.726  0.2759 -0.0101 -0.1564
15413W        W31222   7.940   8.093   4.334  0.1571 -0.0841  0.0825
15414W        W31223   3.506  15.192   1.022  0.4182  0.0565 -0.0597
15415W        W31224  10.002   8.441  13.645 -0.0185  0.1618  0.1548
15416W        W31225  13.873   7.980   3.970 -0.1372 -0.2555  0.2273
15417W        W31226   3.559   5.459   5.098 -0.1399  0.0799  0.4002
15418W        W31227  18.681   3.056   1.204 -0.3581 -0.0038 -0.3500
15419W        W31228   3.293   7.232   2.494  0.2807 -0.0653 -0.2213
15420W        W31229  10.109  14.452   1.819 -0.2094 -0.1351  0.2595
15421W        W31230  10.570   4.842   1.971 -0.3797  0.1100 -0.0614
15422W        W31231   8.281   9.835   4.435 -0.0043  0.0178  0.2580
15423W        W31232   2.956   1.686  11.769  0.0712  0.4014 -0.0315
15424W        W31233  17.181  15.338  13.860  0.3631 -0.2080 -0.0787
15425W        W31234   8.250   9.732  13.371 -0.5309  0.1442  0.0379
15426W        W31235  17.737  11.683   0.428 -0.1128 -0.1625  0.0612
15427W        W31236   0.930  16.449  11.962 -0.1208  0.1071  0.3815
15428W        W31237  16.856  14.443   1.455  0.2995 -0.0664  0.2444
15429W        W31238   0.408   1.504   0.320 -0.4847  0.2948 -0.0487
15430W        W31239   1.955  12.500  13.359  0.0871 -0.1670 -0.1928
15431W        W31240  12.695   7.272  11.964 -0.4558 -0.2409 -0.1786
15432W        W31241  11.159   6.893   4.362  0.1161  0.2577  0.2346
15433W        W31242   9.211   6.203  14.629 -0.1962  0.0332  0.1827
15434W        W31243  16.968   4.070   2.829 -0.3322 -0.2663 -0.0174
15435W        W31244  19.109   0.958   0.387 -0.1432 -0.0444 -0.2156
15436W        W31245   6.580   2.355  13.936  0.1409 -0.1368 -0.0309
15437W        W31246   3.252   7.235   1.476 -0.0183 -0.2437 -0.0137
15438W        W31247  13.434   2.558   1.991  0.3039  0.2592  0.1197
15439W        W31248   6.759  12.763   2.963 -0.0018  0.0476 -0.2605
15440W        W31249  11.863  18.554   5.143 -0.0239 -0.0068 -0.2002
15441W        W31250  18.958  18.904   9.676 -0.0873  0.0777 -0.0379
15442W        W31251  17.409  18.648   0.400 -0.0565 -0.1361  0.1797
15443W        W31252  12.867  18.205   4.286 -0.3287  0.1163  0.0947
15444W        W31253   8.035   3.062  14.315  0.3055  0.1287 -0.1541
15445W        W31254  14.580  18.722   3.691 -0.0673 -0.1384 -0.2908
15446W        W31255   9.359  13.843   1.505 -0.1095  0.3869  0.2210
15447W        W31256   9.924   5.889  11.536 -0.0256 -0.1542  0.1045
15448W        W31257  17.491  11.580  11.318  0.0158  0.1998  0.1762
15449W        W31258  15.229   4.964   1.132  0.0402  0.0204 -0.1590
15450W        W31259  16.437   8.839   2.671 -0.1906 -0.0175  0.0556
15451W        W31260  13.523   9.516  12.848  0.1194 -0.4062 -0.0376
15452W        W31261  12.899  14.075   3.299 -0.0638  0.1624 -0.1272
15453W        W31262   3.685  15.909   5.689 -0.2613 -0.3030  0.1075
15454W        W31263  14.061   4.017   1.374 -0.0768  0.2671  0.4118
15455W        W31264   8.375  14.496   3.373  0.1413 -0.1008  0.0692
15456W        W31265   7.706  12.468  11.355 -0.0064 -0.2372 -0.1209
15457W        W31266   4.639  16.708   1.423 -0.2342  0.1036  0.2031
15458W        W31267  11.467   5.633  14.946  0.1729  0.0077  0.0124
15459W        W31268  11.473   4.657   5.082 -0.1354  0.1889  0.2785
15460W        W31269   4.098   0.208   4.320 -0.0162 -0.1155 -0.0543
15461W        W31270   9.873  12.212  12.950 -0.0261  0.0654 -0.1371
15462W        W31271   9.699   0.379  15.016 -0.2376 -0.3696  0.0972
15463W        W31272  15.262  12.179   4.170 -0.6652  0.0945  0.1969
15464W        W31273  10.257  18.751   1.243  0.1887 -0.0225  0.3814
15465W        W31274   2.904   8.001  14.256 -0.2629  0.0609 -0.0735
15466W        W31275   7.128  17.334   5.055 -0.1714 -0.0706  0.0261
15467W        W31276   6.061  14.069  13.615  0.0550  0.0253  0.0265
15468W        W31277   9.914   1.399  15.151  0.0817  0.1787 -0.1938
15469W        W31278  10.700  15.674  11.171 -0.0131  0.2423  0.1203
15470W        W31279  15.382   6.760   2.054 -0.2447  0.2573  0.3456
15471W        W31280  10.632   0.980   3.073 -0.0265  0.1461  0.3251
15472W        W31281   4.740  16.890   0.230 -0.1020 -0.0700 -0.0365
15473W        W31282   3.414  16.781  14.276  0.1297 -0.1380 -0.0429
15474W        W31283  16.335   0.113  11.465  0.2809  0.0363 -0.0341
15475W        W31284  10.324  14.779   2.213  0.0278  0.1080  0.1582
15476W        W31285   4.615   7.528  11.545 -0.4198  0.1123 -0.3077
15477W        W31286   9.253   1.486  11.319 -0.4245  0.0385 -0.1103
15478W        W31287   1.527   9.509  10.445 -0.2344  0.2704  0.1179
15479W        W31288  11.939   6.750  13.518  0.0119  0.0569 -0.1154
15480W        W31289  18.557   1.022   1.715  0.4297 -0.0426  0.0549
15481W        W31290   3.421   8.478   1.306  0.0712 -0.1941 -0.2174
15482W        W31291  12.088   3.501   3.177  0.2507 -0.1818 -0.4054
15483W        W31292  18.302  13.272  15.241 -0.0574 -0.2097  0.2853
15484W        W31293  10.403  18.522  13.901  0.0919 -0.1321 -0.0183
15485W        W31294  11.067   2.341  10.252  0.1600  0.3193  0.1965
15486W        W31295   1.509  15.137  13.698  0.0567 -0.2934  0.3674
15487W        W31296   9.044   8.678  10.569 -0.1609 -0.1516 -0.2413
15488W        W31297   6.850   7.093   1.640  0.1038 -0.2067  0.0273
15489W        W31298   4.216   2.359   1.642  0.0744 -0.4006 -0.1462
15490W        W31299   2.696  11.593  11.464 -0.1171  0.1917 -0.2257
15491W        W31300   4.204   2.552  12.029 -0.1306 -0.0428  0.2626
15492W        W31301   8.876   2.011   0.846 -0.0968  0.1853 -0.2306
15493W        W31302   1.843   0.651  13.881  0.0013  0.0888  0.1986
15494W        W31303  15.497   3.505  13.371  0.0502  0.3696 -0.0519
15495W        W31304   5.426   4.100  10.064  0.1085  0.1012 -0.2132
15496W        W31305   7.445   6.853   3.254  0.0577  0.1770 -0.0882
15497W        W31306   5.759  10.139  12.353  0.0448 -0.0987  0.0595
15498W        W31307   8.853   1.916   4.408  0.2428  0.0461 -0.0844
15499W        W31308  15.589   2.017   0.134  0.1774  0.0496  0.1040
15500W        W31309  14.792   2.925  14.685  0.1326 -0.0414 -0.2770
15501W        W31310   0.502  10.002  12.726 -0.1775 -0.1243  0.0892
15502W        W31311   1.501   3.291   2.277  0.1932  0.3139 -0.1785
15503W        W31312  16.222  14.736  11.171  0.1155  0.1058  0.0315
15504W        W31313  11.891  15.945   1.673 -0.3824  0.2134  0.0763
15505W        W31314   7.487   7.164  11.020  0.1010 -0.1323  0.0447
15506W        W31315  13.201   6.530  14.078 -0.1340  0.0202 -0.0801
15507W        W31316  17.669   9.883   1.549  0.2130  0.0617  0.1147
15508W        W31317   0.933   7.484  12.314  0.2837 -0.1331  0.1763
15509W        W31318   7.410  11.280  10.646 -0.1544 -0.3732  0.1117
15510W        W31319   1.444   8.954  15.254  0.1859  0.0365 -0.1105
15511W        W31320   8.597   5.407  14.676  0.1485 -0.3356  0.1285
15512W        W31321   6.124   9.986   6.033 -0.0003  0.1818  0.0104
15513W        W31322  10.994  13.795  11.449 -0.0672 -0.2083  0.1394
15514W        W31323  11.690  12.860   3.076 -0.3144  0.0575  0.0005
15515W        W31324   1.924   9.069   0.758  0.3774  0.0095  0.1892
15516W        W31325   0.069   1.808   2.260  0.1323 -0.0344  0.1205
15517W        W31326   4.385  17.151   0.577 -0.0664  0.0788  0.0225
15518W        W31327   4.206   3.980  10.989  0.1726 -0.2510 -0.0504
15519W        W31328  10.962   7.559   1.396 -0.1385  0.2157  0.1305
15520W        W31329  18.653   6.800   2.876 -0.0028 -0.0291  0.0868
15521W        W31330   7.728  17.155  14.927  0.2121 -0.0648 -0.0957
15522W        W31331   3.953  12.278  10.559  0.0254  0.1546 -0.2903
15523W        W31332  12.839   3.423   2.104 -0.0092  0.1131  0.1254
15524W        W31333  16.532   2.462  12.528  0.2966  0.0735  0.3354
15525W        W31334  11.949  13.659  11.646  0.5251  0.0827 -0.5093
15526W        W31335  13.102   4.022   2.817 -0.1237  0.1127  0.0536
15527W        W31336   1.827  17.927   1.322  0.2328  0.2025  0.4571
15528W        W31337  12.754  10.802   0.201  0.3069  0.2063 -0.1017
15529W        W31338   1.504   3.002   1.776  0.2328 -0.1424 -0.0501
15530W        W31339  12.488   2.888  13.790  0.0096 -0.0889 -0.2494
15531W        W31340   1.635   3.509   1.757 -0.0306  0.0063  0.4354
15532W        W31341  11.431   8.067   2.157  0.2221  0.1812 -0.2095
15533W        W31342  12.580   6.074  14.714  0.3252  0.1979 -0.0499
15534W        W31343   7.064  14.077  14.593 -0.1219 -0.0264 -0.0826
15535W        W31344  14.602  11.713   3.091 -0.0952 -0.2980  0.1250
15536W        W31345  10.636   0.558  11.352  0.0230  0.1091 -0.2641
15537W        W31346  14.620   9.140  11.165  0.0087  0.1234  0.0763
15538W        W31347   1.360  14.333  14.403 -0.3277 -0.0757 -0.0896
15539W        W31348   7.175   1.431   3.172  0.0883  0.0218 -0.1640
15540W        W31349   7.233   4.932   1.769 -0.3043  0.1529 -0.3170
15541W        W31350  15.336   0.250  14.948  0.1960  0.3229 -0.0700
15542W        W31351  12.274  17.820   2.106  0.1285 -0.1751 -0.1527
15543W        W31352   9.540  14.034   3.161 -0.5730 -0.1826 -0.1408
15544W        W31353   4.134   4.404  13.583  0.1983 -0.0983  0.1769
15545W        W31354   3.221   3.321   4.766  0.0502  0.0457 -0.2452
15546W        W31355  14.708   4.414  11.148  0.1031  0.0638 -0.1549
15547W        W31356   8.088   3.770  12.455 -0.1851  0.0333  0.3071
15548W        W31357  12.317  15.776  14.990  0.1530 -0.1311  0.0360
15549W        W31358  19.011   9.609  11.968  0.1763  0.1098 -0.0300
15550W        W31359   1.264  13.137  11.069  0.1166  0.1970  0.0776
15551W        W31360  19.065  10.815   4.083 -0.0000  0.0771 -0.2360
15552W        W31361  17.534   8.474   5.844  0.1722  0.0748 -0.0186
15553W        W31362  15.423  17.471   0.078 -0.0128 -0.0125 -0.2075
15554W        W31363  15.918   2.369   1.199  0.1075  0.0746  0.1429
15555W        W31364   4.070  11.164   2.018 -0.1897 -0.0389  0.1568
15556W        W31365  16.530   9.173  14.012 -0.2259 -0.0440  0.0088
15557W        W31366  18.121  17.843   0.395  0.1526 -0.1452 -0.1827
15558W        W31367  14.127  13.018   2.837 -0.1576  0.1288 -0.2855
15559W        W31368  16.887   4.659  13.952 -0.1788  0.0546  0.1613
15560W        W31369  12.549   8.158   4.501 -0.1311 -0.0532 -0.2267
15561W        W31370   9.983  12.737   3.784 -0.1465  0.1824 -0.0502
15562W        W31371   8.992  12.804  12.366 -0.1005 -0.2935  0.2884
15563W        W31372   2.222   2.830  14.151  0.0365 -0.2320 -0.1085
15564W        W31373  10.552  10.649  12.572 -0.0785  0.2418  0.0578
15565W        W31374  10.401  18.749  14.974  0.2883 -0.0221  0.0314
15566W        W31375   7.596   1.571   1.032  0.0425  0.1077 -0.1338
15567W        W31376  15.802  15.553  14.157  0.2109  0.3887  0.0164
15568W        W31377  19.120   5.656  12.479 -0.3108  0.0535 -0.0262
15569W        W31378  18.712   0.728   3.121  0.2263 -0.1175 -0.2225
15570W        W31379   2.602  14.179  13.749  0.0304 -0.0025  0.0620
15571W        W31380  17.994   8.166  13.946  0.0687  0.4134  0.0683
15572W        W31381  13.286   3.806   4.464 -0.0212  0.0378  0.2647
15573W        W31382   1.941  15.556   4.077 -0.1152  0.1797 -0.0223
15574W        W31383   0.716   2.744   3.832 -0.0347 -0.0649 -0.0605
15575W        W31384  12.774  16.175  12.028  0.0793 -0.2339 -0.1420
15576W        W31385   1.118  12.281  14.211 -0.2159  0.5077  0.3083
15577W        W31386   7.203   0.570   0.131  0.0912  0.4155  0.0367
15578W        W31387   2.040   0.570   1.228 -0.1866 -0.3156  0.0911
15579W        W31388  14.745  11.442   0.998  0.1759 -0.0770  0.0583
15580W        W31389  16.177  17.058  10.977 -0.0902  0.2507  0.2542
15581W        W31390  17.661   2.158   1.018 -0.3708 -0.1841 -0.1325
15582W        W31391   0.839   2.382   4.196 -0.1330  0.2131 -0.1287
15583W        W31392   3.542   7.926  14.397 -0.0451  0.4563 -0.1810
15584W        W31393  15.525   8.030  11.343  0.0188 -0.2243  0.3293
15585W        W31394   7.240  17.463  13.235  0.2151 -0.0370 -0.0936
15586W        W31395  13.219   3.429   3.519 -0.0453 -0.3346 -0.1025
15587W        W31396   9.622   6.599   2.220 -0.0843  0.0160 -0.0558
15588W        W31397   6.430  14.158   5.128  0.4710  0.0844  0.0351
15589W        W31398  16.414  15.209   4.463  0.0811 -0.0610 -0.1013
15590W        W31399   1.849   7.190   0.802 -0.1191  0.0813 -0.3009
15591W        W31400   2.580   9.741  12.537  0.0145 -0.1631 -0.1446
15592W        W31401   6.580   3.769   1.670  0.1958 -0.2731 -0.0135
15593W        W31402   8.374   2.335  11.460 -0.3226  0.2918  0.1678
15594W        W31403  11.317  18.180   1.158 -0.2210  0.2329  0.1430
15595W        W31404  13.554   4.263   2.665  0.0776 -0.1926 -0.1910
15596W        W31405   9.519  18.088   1.494 -0.2533  0.0410 -0.2764
15597W        W31406  14.185  15.224   0.937  0.0829 -0.1107  0.1162
15598W        W31407   6.689   6.851   2.615  0.1578 -0.2540  0.0726
15599W        W31408   1.632   7.342  11.575 -0.0609 -0.2029  0.2141
15600W        W31409  13.653  13.006   4.319 -0.0758  0.5916  0.1310
15601W        W31410   8.521  14.566  14.488  0.0460  0.2782 -0.4557
15602W        W31411  10.195   9.247  14.254  0.2479 -0.0057  0.0785
15603W        W31412  15.466   8.320   1.331  0.0695 -0.1789  0.0082
15604W        W31413   0.188  11.409  13.341 -0.0081  0.0785 -0.1602
15605W        W31414  16.819   6.327  10.462  0.0511 -0.0797  0.1178
15606W        W31415   5.915  15.909   9.221 -0.2719  0.1398  0.1083
15607W        W31416  14.104  16.856  12.804  0.0605 -0.1532 -0.2215
15608W        W31417   9.781   9.555  12.482 -0.3960  0.0798  0.0376
15609W        W31418  14.580   0.651   5.112 -0.1376  0.3509  0.0140
15610W        W31419   8.423  18.176   4.243  0.2141  0.0209  0.1149
15611W        W31420  12.032  10.415   0.958  0.1550 -0.0943  0.2189
15612W        W31421  13.190   3.577   3.044 -0.3082  0.1281  0.1599
15613W        W31422  11.003   8.446  12.703 -0.4071  0.2274 -0.1584
15614W        W31423   4.805   9.732  14.717  0.0985 -0.1830  0.1816
15615W        W31424  16.937  13.649  13.740 -0.1544  0.1216  0.1333
15616W        W31425   3.561  18.070   4.500  0.1932 -0.0227  0.0643
15617W        W31426   4.715  13.388  10.430  0.3859 -0.1657 -0.0140
15618W        W31427   1.570   0.890  10.120 -0.6268 -0.1907  0.0522
15619W        W31428  11.743  13.112  14.113 -0.3193  0.2902 -0.3921
15620W        W31429   1.727   2.444   0.616 -0.0086 -0.2394 -0.4044
15621W        W31430  11.603   8.904   4.438  0.0116 -0.1716 -0.0961
15622W        W31431   6.710  11.642  14.931 -0.0016  0.0153  0.0393
15623W        W31432  14.899  14.554   5.523 -0.0151 -0.2665  0.1826
15624W        W31433  18.105  16.856   5.299 -0.2158  0.3784  0.1276
15625W        W31434   4.712   9.504   2.346  0.1220 -0.3456  0.1522
15626W        W31435   3.657  17.343  10.461  0.3177 -0.0303  0.4140
15627W        W31436   3.863   4.548   1.861  0.0925  0.0099 -0.1381
15628W        W31437   4.000  11.918  15.050  0.0465  0.4420  0.0581
15629W        W31438   5.374   4.584   4.490 -0.0326  0.0060  0.0273
15630W        W31439   0.984   6.322   0.254 -0.3700 -0.1603  0.1536
15631W        W31440  11.209  14.859   1.236  0.1431 -0.0513 -0.0195
15632W        W31441   2.008  17.589  13.626  0.1846 -0.1439  0.2268
15633W        W31442  18.829   1.793  14.725 -0.1080 -0.1112  0.3976
15634W        W31443   4.568   0.490   2.956 -0.0753 -0.2836 -0.0858
15635W        W31444   7.630  15.160   5.658 -0.2063 -0.1565 -0.4006
15636W        W31445  10.358  16.516  13.768 -0.2455 -0.0182  0.4795
15637W        W31446  13.329  17.997   4.396 -0.1231 -0.1047  0.0508
15638W        W31447   9.539   8.260   0.504 -0.0410 -0.1732  0.1809
15639W        W31448   6.327  17.458   4.093  0.1002 -0.3133  0.1906
15640W        W31449  15.856  14.027   2.675  0.1124  0.1463  0.2592
15641W        W31450   6.670  14.894  13.497  0.0743 -0.3308 -0.4206
15642W        W31451  11.777  13.954  12.169 -0.2401 -0.0792  0.3205
15643W        W31452  10.080  16.129   5.141 -0.0068 -0.2225 -0.4042
15644W        W31453  15.722  14.381   5.346  0.1496  0.0438 -0.1717
15645W        W31454  18.351   0.654  11.281  0.0129 -0.0338 -0.1558
15646W        W31455  14.258   8.986   4.782  0.0202 -0.1638 -0.2156
15647W        W31456   2.882  12.672   3.015 -0.0338  0.0507  0.0062
15648W        W31457  18.757   1.159  11.344  0.2061  0.1954  0.2607
15649W        W31458  15.460   3.381  15.058 -0.2439 -0.0130 -0.1828
15650W        W31459   8.511   6.188   2.604  0.1005 -0.1301 -0.1135
15651W        W31460   3.061   1.765   4.592 -0.4056 -0.1304  0.0541
15652W        W31461   6.275   6.159   3.263  0.1133  0.0518 -0.2589
15653W        W31462  11.740  13.770   0.092 -0.3004 -0.0088  0.1086
15654W        W31463   7.359  18.504   4.433  0.2596  0.0674  0.2465
15655W        W31464  12.018  15.139   3.431  0.1813 -0.0347 -0.0101
15656W        W31465  18.754   0.179   0.695 -0.2241 -0.0214 -0.0393
15657W        W31466   4.639   8.373  15.221  0.2160 -0.2575  0.2211
15658W        W31467   8.970  18.745   1.340  0.2630  0.1740  0.0138
15659W        W31468   8.478   6.601   0.665  0.0441  0.0417 -0.3315
15660W        W31469   7.234   0.849  14.936 -0.2852 -0.0372 -0.2068
15661W        W31470  17.330   4.684   1.463 -0.1998 -0.1274 -0.0732
15662W        W31471  11.325   8.646  14.678 -0.1236  0.0092  0.3925
15663W        W31472  13.691  15.924   0.243  0.1263  0.1297  0.1194
15664W        W31473   0.887  13.760   3.091  0.1308  0.2169 -0.0601
15665W        W31474  18.652   6.420  10.992 -0.0214 -0.3412  0.0136
15666W        W31475  18.080  17.412   3.272 -0.0593  0.4419 -0.0115
15667W        W31476  13.671   4.880   4.218  0.2770  0.1435  0.0735
15668W        W31477  17.273   9.061   1.515  0.2213  0.0391 -0.0659
15669W        W31478   3.871  14.234  11.382  0.1629 -0.0494 -0.3052
15670W        W31479   1.729  10.524  11.987  0.2322  0.1378  0.0878
15671W        W31480   8.645   4.698  14.087 -0.1030  0.1857  0.0033
15672W        W31481   0.129   6.991   1.552  0.4082  0.2125  0.2437
15673W        W31482   6.967   6.567  11.509 -0.0664  0.0416 -0.0287
15674W        W31483  19.090  15.031   4.628  0.1945  0.0196 -0.4824
15675W        W31484  13.145   3.927   0.960 -0.2948 -0.0882 -0.3537
15676W        W31485   6.046   3.362   0.411 -0.3509 -0.0988  0.1909
15677W        W31486   7.397   5.587   4.302 -0.4774  0.1696  0.2231
15678W        W31487   0.069  13.518   3.019 -0.1171  0.2129 -0.1456
15679W        W31488   0.236  11.247   1.130 -0.3398 -0.0253 -0.0212
15680W        W31489   7.344  10.263  11.283  0.1343  0.0890  0.0333
15681W        W31490  10.054   8.522   1.211  0.0531  0.1106  0.1484
15682W        W31491   5.733  19.097   1.095 -0.0070  0.0659  0.2053
15683W        W31492   1.922  16.956   9.722  0.2175 -0.1191 -0.0664
15684W        W31493  10.466  16.526  12.254 -0.0540  0.4467  0.2696
15685W        W31494   0.891  17.815   3.195 -0.4239  0.0786  0.0298
15686W        W31495   3.190   3.789  11.211  0.0815  0.2786 -0.2863
15687W        W31496   7.681   8.065   0.339 -0.4531 -0.0145 -0.0043
15688W        W31497   4.993  10.825  11.089  0.1921  0.0456  0.3793
15689W        W31498  18.144  13.006  13.856  0.0340 -0.0754 -0.1101
15690W        W31499  10.200   7.463   3.405 -0.2647 -0.1186  0.0589
15691W        W31500  18.238   1.463   0.317 -0.2024 -0.1929  0.2418
15692W        W31501   5.769  19.070   0.255 -0.3821  0.0328  0.0025
15693W        W31502  17.219  17.354   2.108  0.0221 -0.0749  0.0764
15694W        W31503   9.540   9.197  12.147 -0.1865  0.0760  0.3341
15695W        W31504  15.505  15.468  14.763 -0.0317 -0.2465  0.6255
15696W        W31505   5.228   8.770   3.967 -0.0487 -0.0158  0.0643
15697W        W31506   1.883  17.964  12.841  0.0420 -0.0040 -0.0953
15698W        W31507   2.666  18.172   2.082  0.1273 -0.0836 -0.1624
15699W        W31508  10.504  12.712  14.239 -0.1503  0.0219  0.3351
15700W        W31509  15.198   3.145  13.214 -0.2331 -0.3705 -0.4980
15701W        W31510   4.663   8.717   3.404 -0.0120 -0.5528  0.2364
15702W        W31511  16.787  17.581   1.887  0.0337 -0.0329  0.0538
15703W        W31512   4.020   3.692   1.835 -0.1036  0.3040  0.1017
15704W        W31513   6.171   1.455  13.054 -0.0378  0.0406 -0.0258
15705W        W31514  11.289  14.090  13.430  0.0856  0.0902 -0.1231
15706W        W31515  15.306   0.383  14.478  0.1707 -0.0462  0.1708
15707W        W31516   9.133  11.459  11.553  0.2061 -0.0334  0.1726
15708W        W31517   9.096  15.118   3.439 -0.1602 -0.0257  0.2358
15709W        W31518   6.512  19.083  11.699 -0.2894  0.0566 -0.2961
15710W        W31519   3.388   2.874   5.552  0.0779  0.1769  0.1736
15711W        W31520  12.705   7.241  12.999  0.2825  0.4561  0.4068
15712W        W31521  17.564  17.484  15.009  0.1263 -0.4905  0.1065
15713W        W31522  16.810   7.146   2.108 -0.0939 -0.2177  0.0232
15714W        W31523   6.443   0.484  10.777 -0.0397 -0.0119  0.1073
15715W        W31524   2.993  17.085  10.981  0.0663 -0.0093  0.0293
15716W        W31525  10.358  11.664  11.881 -0.2242 -0.0112  0.0625
15717W        W31526  11.161   6.497   3.469 -0.2784 -0.0360 -0.0114
15718W        W31527  16.432  18.237   5.297 -0.0271  0.0599  0.0353
15719W        W31528   7.252  14.959  14.526  0.4236 -0.0267  0.2056
15720W        W31529  15.671  11.868  11.085  0.3005 -0.0342 -0.1466
15721W        W31530  14.081  12.998   4.670 -0.0342  0.0961 -0.0615
15722W        W31531   0.120   6.867  10.830 -0.1894  0.1558  0.2705
15723W        W31532   6.548  16.800   3.255  0.0718 -0.1517 -0.2642
15724W        W31533  17.754  10.513   9.899  0.3202  0.4034 -0.2112
15725W        W31534   2.152   1.577  10.912 -0.2678 -0.0761 -0.3357
15726W        W31535   0.107  15.493   0.425 -0.3824 -0.0704  0.0681
15727W        W31536  10.462   5.378  12.775 -0.0407 -0.2514  0.0474
15728W        W31537   4.255   4.469  11.041  0.1128 -0.2987  0.0093
15729W        W31538   2.448  17.115  11.196 -0.0710 -0.0816  0.1829
15730W        W31539   3.686  15.741   2.686 -0.0456 -0.0241  0.3446
15731W        W31540  13.954   7.434   5.383  0.1277 -0.0970 -0.3730
15732W        W31541   0.823   9.438  12.010  0.0175  0.1201  0.2669
15733W        W31542  17.881  18.287   5.801  0.0762 -0.0236  0.2927
15734W        W31543  17.798  11.008  11.192 -0.1702  0.2577  0.2315
15735W        W31544   8.073  10.322  11.826  0.1719 -0.0452 -0.2153
15736W        W31545   2.514   3.340   0.386 -0.1538  0.1630  0.1638
15737W        W31546  12.586   1.718  13.481 -0.1574  0.1026 -0.1227
15738W        W31547  16.309   1.549  13.194  0.0226  0.1405  0.0720
15739W        W31548  15.332  10.990   3.029  0.3855  0.3673 -0.0560
15740W        W31549  10.741   8.775  12.406  0.3699  0.1317  0.2843
15741W        W31550  12.985  16.942   5.896 -0.0252  0.0719 -0.1817
15742W        W31551  12.035   8.434   0.329  0.0696 -0.1855 -0.1443
15743W        W31552   8.852   7.987   3.404  0.3229  0.1244 -0.2774
15744W        W31553   4.471   8.497   2.773  0.0122 -0.2581 -0.0306
15745W        W31554   6.669  12.260  13.580  0.0544  0.2711  0.2222
15746W        W31555  11.711   8.853  14.339 -0.0071  0.0766  0.0832
15747W        W31556  10.468   5.551   4.546 -0.2398  0.1166  0.2732
15748W        W31557   7.150  16.488  12.074 -0.2451 -0.3244 -0.3264
15749W        W31558  18.072  15.144   0.513  0.3249 -0.1583  0.1746
15750W        W31559  12.058  12.253   1.154 -0.0416 -0.4430  0.2386
15751W        W31560  10.103   3.505   0.096  0.2806  0.0508 -0.0208
15752W        W31561  15.975   6.133  12.941 -0.1044  0.0069 -0.2097
15753W        W31562   9.785  16.978  11.966  0.2112 -0.0754  0.1211
15754W        W31563   4.345   9.856  13.998  0.2403 -0.0072 -0.0152
15755W        W31564   1.051   0.889  12.735  0.1095  0.0524 -0.0157
15756W        W31565  14.825   3.564   2.984 -0.2568 -0.0420  0.2185
15757W        W31566  15.613  16.712  12.116 -0.0797 -0.1040 -0.0483
15758W        W31567  15.821   7.578  15.135 -0.5669  0.0415 -0.0602
15759W        W31568   9.147  16.454  12.351  0.0355 -0.2332  0.1071
15760W        W31569   3.288   7.006  14.613 -0.1732  0.0747 -0.1445
15761W        W31570   5.734  17.143  11.876  0.2612 -0.0045  0.0065
15762W        W31571   1.408   7.607   1.307 -0.0008  0.2344  0.0121
15763W        W31572   7.055   5.269   5.023  0.2997 -0.0564 -0.1216
15764W        W31573  15.186   5.480   1.929 -0.3875 -0.6011  0.1561
15765W        W31574   6.063   6.120   0.201  0.2528 -0.0482 -0.0418
15766W        W31575   7.128  17.106  14.936 -0.1692  0.2094  0.0423
15767W        W31576   4.718   3.688   3.882 -0.1567  0.2062  0.1949
15768W        W31577   0.550  13.174   1.491  0.0365 -0.2152 -0.0997
15769W        W31578   4.222   2.457   0.310  0.1603  0.3221  0.0446
15770W        W31579  10.922   7.437  11.391  0.2879 -0.0251  0.1931
15771W        W31580   7.333  11.200   0.809 -0.1742  0.1461 -0.0304
15772W        W31581   8.861   9.827  15.268  0.2161  0.1293 -0.1436
15773W        W31582  18.521  17.088   3.324  0.3384 -0.2554 -0.0311
15774W        W31583   4.904  15.696   2.489  0.1083 -0.0628  0.2240
15775W        W31584   8.463  11.026  11.176  0.0858  0.2942  0.0724
15776W        W31585   6.550   9.460   1.433 -0.0820 -0.1477  0.1944
15777W        W31586   8.301   4.999  14.328 -0.1560 -0.3600  0.0748
15778W        W31587  11.030  13.471  13.196 -0.0348 -0.0120 -0.0162
15779W        W31588  10.063  15.539   0.064  0.1789  0.1636 -0.0307
15780W        W31589   0.251  15.954   2.983 -0.0338 -0.4378 -0.1317
15781W        W31590  17.663   2.933  13.861  0.0502  0.0243  0.1138
15782W        W31591   5.249  16.051  11.519 -0.0921  0.0735 -0.1082
15783W        W31592  12.233  11.679   2.810  0.2085  0.2460 -0.0567
15784W        W31593  14.838   3.906  14.489 -0.4263 -0.4336  0.0212
15785W        W31594   6.691   9.272   4.312 -0.3098 -0.1771  0.1588
15786W        W31595  13.619  15.302  11.370  0.1565  0.0173 -0.3336
15787W        W31596  19.000   6.638   4.639  0.0847  0.1357 -0.0642
15788W        W31597  18.871  18.151   1.119  0.0206  0.0941  0.0589
15789W        W31598   0.543   8.818   4.086  0.0175  0.0015 -0.1715
15790W        W31599   1.183  16.057   1.770  0.3387  0.1899  0.0289
15791W        W31600  13.377  13.875   4.134 -0.4846 -0.0179  0.2126
15792W        W31601   9.018   7.050  14.139  0.0626 -0.1298 -0.4177
15793W        W31602   3.753   0.201   1.696  0.2594 -0.0590  0.0956
15794W        W31603   7.738  18.953  11.523  0.2530  0.1523  0.1935
15795W        W31604  18.546   8.860  12.169  0.1088 -0.1165  0.1354
15796W        W31605   9.353   8.722   2.282  0.0306 -0.1457  0.2657
15797W        W31606  15.969  15.153   0.693 -0.2548 -0.4207  0.0048
15798W        W31607  15.361  15.473  11.643 -0.0943  0.0338  0.1613
15799W        W31608  11.617   0.314   2.039 -0.3112 -0.2157  0.0838
15800W        W31609   9.592   9.792   1.187  0.3669  0.2012 -0.0648
15801W        W31610   0.226   8.724  12.067 -0.1582 -0.1459 -0.1075
15802W        W31611   1.476   3.845   3.798 -0.0453 -0.0705 -0.1870
15803W        W31612  15.942  16.133  10.502  0.1410 -0.0962 -0.1143
15804W        W31613   9.813   0.777  11.168  0.0361 -0.0446  0.1458
15805W        W31614  18.027  13.207  10.102 -0.0554  0.0177 -0.3130
15806W        W31615   8.083   6.131  13.019  0.2155 -0.0692  0.1239
15807W        W31616  14.525   6.778   4.701 -0.3292  0.0191 -0.1774
15808W        W31617   2.217  17.153  10.667  0.0912  0.0338 -0.4530
15809W        W31618   4.885  18.809   1.838  0.0408 -0.1737 -0.1758
15810W        W31619   5.025  17.538   1.913 -0.1563  0.2606  0.0307
15811W        W31620   8.075   5.667   0.312 -0.3329 -0.1954 -0.2621
15812W        W31621   7.922   1.640  13.990 -0.2640  0.2692  0.0700
15813W        W31622  15.349  17.681  13.200 -0.3342  0.1070 -0.0486
15814W        W31623  15.395  15.970   4.340  0.0553  0.0964  0.0659
15815W        W31624   8.485   3.448  12.474  0.1389 -0.1593  0.0771
15816W        W31625   7.014   7.820   1.349 -0.0598  0.0539 -0.0166
15817W        W31626  19.023  10.766  14.771  0.2083  0.0590 -0.0812
15818W        W31627   4.667   5.756   2.485 -0.1729 -0.1494  0.1374
15819W        W31628   9.615  17.175   0.547 -0.1077  0.3078  0.0015
15820W        W31629   6.504   6.233  10.548 -0.0328 -0.0210 -0.2294
15821W        W31630  14.777  11.259   0.543  0.2080  0.1536  0.0274
15822W        W31631  12.487  15.859  14.520 -0.1409 -0.0694 -0.2288
15823W        W31632   5.315   4.756  12.923  0.0402 -0.0061 -0.0487
15824W        W31633  18.459  11.161  12.363  0.1118  0.1806  0.1861
15825W        W31634   1.487  17.081  10.549  0.1243 -0.3509 -0.0352
15826W        W31635   4.389   8.173   5.181 -0.0868 -0.3669 -0.0952
15827W        W31636  16.448   1.002  14.692  0.1985 -0.0171  0.0407
15828W        W31637   9.687  10.502   4.625 -0.1151  0.0194 -0.0799
15829W        W31638   5.614   2.561   3.706 -0.1826  0.0203 -0.0200
15830W        W31639   2.326  13.379   0.717 -0.1657 -0.1359  0.0916
15831W        W31640  10.519   2.353   0.682  0.1934  0.1310 -0.0583
15832W        W31641  15.719   5.397   1.954  0.1601  0.0260  0.2259
15833W        W31642  13.839   4.499   4.538 -0.1721  0.1952 -0.0548
15834W        W31643   9.460   3.380  12.261 -0.3276 -0.0334  0.3396
15835W        W31644  14.464   2.251   2.913 -0.0414 -0.0557  0.1355
15836W        W31645   0.961   4.567  10.525 -0.2728  0.1194 -0.1246
15837W        W31646   1.692  10.987   4.713 -0.0049  0.1037 -0.0069
15838W        W31647   2.602   0.143  13.455  0.5785  0.0011 -0.0993
15839W        W31648  18.521   8.418   0.019  0.0681 -0.2169  0.1221
15840W        W31649  17.603   4.266   1.264 -0.1559  0.1726  0.0109
15841W        W31650  15.892   7.200   5.165 -0.2747 -0.3715  0.2111
15842W        W31651  10.326  17.687   2.063  0.0150 -0.2535 -0.0522
15843W        W31652  12.148   0.497   0.129  0.1156 -0.1074 -0.4441
15844W        W31653  17.022   7.186  10.605  0.0508  0.0391  0.2090
15845W        W31654   3.445  16.784   4.148 -0.0727  0.0887 -0.0629
15846W        W31655  10.249  12.209  13.467  0.1617 -0.2458  0.1620
15847W        W31656  15.171  18.952  13.044  0.0097 -0.1734 -0.1306
15848W        W31657  18.337   8.809  12.666  0.0735 -0.1412 -0.1612
15849W        W31658   9.363  14.614   2.483 -0.2113 -0.1195  0.1733
15850W        W31659  10.575   8.079  11.471 -0.2599 -0.0616  0.1512
15851W        W31660  15.674   7.640   0.707  0.1488  0.0206  0.0918
15852W        W31661  13.196   9.071  10.507  0.0171  0.3012  0.0853
15853W        W31662  16.391  12.780  12.965  0.3688 -0.3454 -0.0991
15854W        W31663  16.787   8.568  10.651  0.0555  0.1274 -0.1564
15855W        W31664  13.578   9.004   3.068 -0.2501 -0.1393 -0.0597
15856W        W31665  11.615  14.204   6.069  0.1963  0.1310 -0.1956
15857W        W31666  11.434   3.646   0.095  0.0692 -0.1591 -0.2882
15858W        W31667   0.054   7.594   0.456  0.1467 -0.0525 -0.1825
15859W        W31668  15.271  14.358  14.032  0.2027 -0.1441  0.1678
15860W        W31669  12.274  12.839  12.764 -0.2564 -0.0702  0.0244
15861W        W31670  12.150  12.201   1.599  0.1247 -0.0030  0.0458
15862W        W31671  15.998   0.824  14.391  0.3333  0.1793  0.1534
15863W        W31672  18.693   8.344  13.487  0.4420 -0.3219  0.1205
15864W        W31673  15.079  12.692   5.420 -0.0333 -0.0431  0.0313
15865W        W31674  16.490   0.798   3.614  0.0218 -0.2643  0.0122
15866W        W31675   7.134   2.514   2.745  0.0519  0.1033 -0.2137
15867W        W31676   6.496  16.272  13.541  0.2104  0.1071  0.1228
15868W        W31677   4.659   2.763   1.504 -0.2066 -0.2271 -0.3095
15869W        W31678   5.680   0.750   4.086  0.0353  0.1281 -0.1819
15870W        W31679  18.058   1.716   2.292 -0.0221  0.0347 -0.2182
15871W        W31680   2.330   7.186  13.324  0.0673  0.2071  0.0558
15872W        W31681  13.104   2.391  13.262 -0.1143  0.0955 -0.1413
15873W        W31682   7.891   0.354  11.857 -0.1066  0.2492  0.0546
15874W        W31683  11.480   9.288  12.426 -0.0251  0.0756  0.2317
15875W        W31684   6.886   4.742   0.352  0.2583  0.3487  0.2366
15876W        W31685   2.610   4.377   3.900  0.1943 -0.1653  0.0946
15877W        W31686  13.423  10.789   4.243 -0.2781 -0.1728 -0.1500
15878W        W31687  13.311   2.642   3.923  0.0736 -0.3779  0.0679
15879W        W31688   7.483  13.673  13.871  0.2205  0.1229 -0.0071
15880W        W31689  19.048  18.506   4.866  0.2421  0.3325 -0.2941
15881W        W31690  11.892  12.416   3.471 -0.3408  0.3125  0.1080
15882W        W31691  11.023  12.731  13.718  0.1276  0.0442 -0.0004
15883W        W31692  11.131   4.186  12.997  0.0914  0.0200  0.0794
15884W        W31693  12.473  10.532  12.679  0.2186 -0.0904 -0.1700
15885W        W31694  15.258   9.993   1.120  0.1219  0.0191  0.1728
15886W        W31695   6.393  17.326   2.107 -0.1004 -0.2437  0.2265
15887W        W31696   9.772   4.445   4.900 -0.0344  0.1930  0.3226
15888W        W31697   2.405  16.308  14.389 -0.0872  0.2547 -0.1275
15889W        W31698  13.033  14.144  13.144  0.0909 -0.2667 -0.0619
15890W        W31699  14.154  19.102   6.085 -0.1122  0.0927  0.1823
15891W        W31700  18.870  10.521   3.107 -0.1616 -0.1409  0.0629
15892W        W31701  11.668   6.625  10.972 -0.0961 -0.1023 -0.1319
15893W        W31702   9.213   5.955  15.187 -0.2506  0.0301  0.0818
15894W        W31703  18.189   7.243   1.762 -0.0654 -0.4792 -0.0116
15895W        W31704  17.991  15.312   1.612  0.0702 -0.4146  0.1064
15896W        W31705  12.970   8.979   5.179 -0.0619 -0.0897 -0.1285
15897W        W31706  15.671  14.415   2.421 -0.1331  0.0817  0.0364
15898W        W31707  16.119   8.811   1.346  0.0280  0.1461 -0.0374
15899W        W31708  14.801   3.551   5.579 -0.1728 -0.0342  0.1870
15900W        W31709  10.076  14.263   5.323  0.2762 -0.1317  0.0088
15901W        W31710   3.453  13.848   1.978  0.0195 -0.1076 -0.0912
15902W        W31711  13.172   9.841  12.933  0.0633  0.1347  0.3207
15903W        W31712   2.279   9.871  10.341 -0.1562  0.0733  0.0484
15904W        W31713   9.185  17.387  14.766 -0.0414  0.2150  0.0385
15905W        W31714  16.677  17.142   3.790 -0.0739 -0.0139  0.0494
15906W        W31715   6.125   3.648   1.365 -0.2734  0.3615 -0.1895
15907W        W31716   5.404   5.367   1.777 -0.0883 -0.1710 -0.0451
15908W        W31717  11.285  17.671  13.073  0.1382 -0.0817  0.3508
15909W        W31718  13.565  11.850   3.553 -0.2663 -0.0541 -0.1155
15910W        W31719  16.776  10.156   3.334 -0.1096 -0.1716 -0.0840
15911W        W31720   7.164   3.883   1.898 -0.0446 -0.0468  0.2887
15912W        W31721  11.135  18.411   4.500  0.0865  0.1136  0.4248
15913W        W31722   8.295  15.903   0.669 -0.1539  0.1762 -0.1429
15914W        W31723  10.589   6.787   9.500 -0.4686  0.1959 -0.1299
15915W        W31724  17.995  12.641  10.218  0.1510  0.0131 -0.0956
15916W        W31725  11.137   9.851   2.816  0.1752 -0.1623  0.1016
15917W        W31726  16.758  15.480  11.411  0.1482  0.0110  0.3701
15918W        W31727  15.625  12.105  12.296  0.1208  0.0142 -0.0823
15919W        W31728  12.797  12.450  12.144 -0.0550  0.1328  0.2859
15920W        W31729   4.471   9.084   0.589 -0.0341 -0.1282 -0.1473
15921W        W31730   5.765  17.908  13.726 -0.0664 -0.0236 -0.0813
15922W        W31731  12.824   7.154  11.457  0.2481  0.0527 -0.0854
15923W        W31732   0.113  17.446  10.418 -0.1462  0.1536  0.1174
15924W        W31733   4.328   6.883  13.586 -0.1600  0.1155  0.1135
15925W        W31734   1.308   0.446  14.010  0.1171 -0.0948 -0.2284
15926W        W31735  18.439  10.269  12.089  0.1273  0.0380 -0.1306
15927W        W31736   6.510   4.401   1.695  0.2209  0.0026  0.1034
15928W        W31737   5.164   9.049  15.150  0.1153  0.1145 -0.1338
15929W        W31738  13.373   5.746  11.027  0.1760 -0.2667  0.3393
15930W        W31739   2.618   9.718   0.403  0.0316 -0.0594 -0.0789
15931W        W31740  15.030   3.576  12.306 -0.1485 -0.0794 -0.2750
15932W        W31741   4.655   3.825   0.728 -0.2592  0.0062 -0.3178
15933W        W31742  11.407  13.496   1.113  0.1107 -0.0389  0.1011
15934W        W31743  11.327  18.371   5.045  0.3268 -0.2766 -0.2877
15935W        W31744   8.435  18.408   2.476  0.0543  0.2959  0.0735
15936W        W31745   7.201  12.027   4.298 -0.4828 -0.3233 -0.4133
15937W        W31746  11.995   4.065  13.234  0.1728 -0.1287  0.3147
15938W        W31747   9.415   0.638  12.365 -0.3068 -0.2525  0.5525
15939W        W31748   9.973   7.324  11.140 -0.2806  0.2023  0.0221
15940W        W31749  13.016   3.205  13.417  0.1901 -0.0972  0.1238
15941W        W31750   8.545   7.055   0.823  0.1717 -0.1007 -0.0688
15942W        W31751  13.272  15.577   5.129  0.1022 -0.0871  0.0141
15943W        W31752  11.719  15.431  11.163 -0.2034  0.4736  0.0764
15944W        W31753  14.429   2.179   3.528  0.1456 -0.1281 -0.2111
15945W        W31754   7.936   9.741  13.817  0.1743 -0.0707 -0.3215
15946W        W31755  12.143   2.270  12.328  0.0941 -0.0246 -0.0701
15947W        W31756   9.559   3.900   1.876  0.2509 -0.0269  0.0684
15948W        W31757  14.295  17.204  11.636 -0.1062  0.1248  0.2315
15949W        W31758  18.056   7.672  13.412 -0.0287 -0.1010  0.0457
15950W        W31759   0.944   0.771  14.082  0.2776  0.0297  0.1264
15951W        W31760  11.705  17.758   2.818  0.0889  0.4736 -0.2339
15952W        W31761   8.571   2.528   2.447 -0.2150  0.0016  0.3207
15953W        W31762   1.602  12.452   5.380  0.0657  0.0240 -0.3346
15954W        W31763   6.060   2.830  10.796  0.3568 -0.0030  0.1064
15955W        W31764  15.430  18.376   1.723  0.0565  0.1007 -0.1525
15956W        W31765   8.212   3.776   1.239 -0.0621 -0.0969  0.3151
15957W        W31766   5.381   2.145  12.047  0.0749  0.0081  0.4903
15958W        W31767  18.276  18.779  15.062 -0.0353  0.2339  0.1010
15959W        W31768  15.390  10.921   1.593  0.2812  0.3047  0.2330
15960W        W31769   3.517   9.455  13.430 -0.2706  0.1027 -0.2783
15961W        W31770   3.916   7.224  12.093  0.0106 -0.1809 -0.0044
15962W        W31771  10.640   1.953  14.988 -0.0473  0.2850 -0.1457
15963W        W31772  18.208   8.344  14.447  0.0353  0.2820 -0.0611
15964W        W31773  14.954  17.147  11.925  0.0842 -0.3970 -0.2120
15965W        W31774   2.481  19.029   9.581  0.1216 -0.3329  0.2097
15966W        W31775   0.007  10.639   1.121  0.2017  0.1228 -0.1268
15967W        W31776  15.520   3.336   1.358  0.1476 -0.0294 -0.0354
15968W        W31777   4.170   8.112   1.765 -0.0965 -0.4146 -0.1246
15969W        W31778  18.855  17.258  13.955  0.0063 -0.2019 -0.0388
15970W        W31779   9.466  10.770   4.245 -0.2102  0.2049 -0.0657
15971W        W31780   3.317   2.068   1.229 -0.2319  0.1621  0.0069
15972W        W31781  15.317  18.241  11.296  0.2711  0.1123  0.3045
15973W        W31782  12.396  11.369   3.637 -0.2069  0.0859 -0.1009
15974W        W31783  14.646  13.565  14.922  0.2079  0.0749  0.2103
15975W        W31784  18.458   7.972  13.143  0.3187 -0.3666 -0.2259
15976W        W31785   9.068   6.242  11.801  0.0350  0.1558  0.1948
15977W        W31786   4.916   4.951  12.123  0.1110 -0.0526 -0.0709
15978W        W31787  11.863   1.979   9.694 -0.0147 -0.0892 -0.0021
15979W        W31788   1.991  12.626  14.882  0.2335 -0.0091 -0.4409
15980W        W31789  14.995  18.516   3.639  0.2023  0.0870  0.2298
15981W        W31790   3.617  11.749   4.647 -0.0934 -0.1849  0.0158
15982W        W31791   9.832   9.443   0.879  0.1250 -0.1644 -0.0653
15983W        W31792   6.787   4.663  13.537  0.0530  0.1876 -0.1140
15984W        W31793   8.565   2.787  14.592  0.0505  0.1512  0.2964
15985W        W31794  18.413  14.619   3.782  0.0175 -0.2332  0.2016
15986W        W31795  14.906  14.554   0.698  0.0251 -0.1040 -0.0986
15987W        W31796  15.350   1.811   2.920 -0.1549 -0.1447  0.0850
15988W        W31797  10.918   3.119   1.053  0.3086  0.0556  0.1196
15989W        W31798   7.259  13.246  12.343 -0.2540 -0.0138  0.2191
15990W        W31799   9.601   3.047   3.439 -0.1984  0.2155  0.0052
15991W        W31800  18.215   3.252   4.572  0.0798  0.2968  0.3362
15992W        W31801   7.601   1.682  12.411 -0.1409  0.3597  0.2164
15993W        W31802   8.475   7.041  10.931 -0.4306 -0.0070  0.5116
15994W        W31803  16.844   9.570   4.107  0.1868 -0.0922  0.0333
15995W        W31804   6.124  15.667   3.270 -0.0228 -0.1455  0.2109
15996W        W31805   4.341   8.217  14.094  0.0402 -0.2629 -0.0003
15997W        W31806  16.449  12.130  14.567 -0.0498 -0.0336  0.1249
15998W        W31807   9.277  16.800   1.784  0.0410 -0.0356 -0.2089
15999W        W31808   7.251   6.503   4.692 -0.1505 -0.2536 -0.2624
16000W        W31809  16.277   6.966  12.674  0.1572  0.1209 -0.3341
16001W        W31810  10.050   4.762   9.755  0.1787 -0.2864 -0.0221
16002W        W31811  14.620  15.772   3.842  0.2775 -0.1062 -0.0178
16003W        W31812  16.169   8.457  12.151 -0.0216 -0.2418  0.4583
16004W        W31813   3.775   4.486  11.914 -0.0603  0.3817  0.0406
16005W        W31814   7.805   5.396   0.661 -0.1954 -0.4908 -0.0213
16006W        W31815  18.039   7.807   1.614  0.1040 -0.1724 -0.1418
16007W        W31816  10.470  16.787   1.798  0.2957 -0.2255  0.0138
16008W        W31817   4.440   4.250  10.671 -0.2828 -0.1451  0.4177
16009W        W31818  14.421   0.856   0.465 -0.1662  0.0337 -0.0009
16010W        W31819  12.518   5.638   3.260 -0.1629  0.2868 -0.3540
16011W        W31820   0.293  18.827  12.722 -0.1959 -0.2155 -0.1748
16012W        W31821  15.085   0.257  12.226 -0.0354  0.3234  0.2169
16013W        W31822  18.920   4.723  11.556  0.0326 -0.3228  0.1475
16014W        W31823  16.952  11.896  12.129  0.0069  0.0051  0.0036
16015W        W31824   9.120   7.640  10.086  0.0711  0.4597 -0.3505
16016W        W31825   0.608  19.020   2.584 -0.3030 -0.1574 -0.0743
16017W        W31826  15.805   4.989   2.527  0.1464  0.0046  0.0929
16018W        W31827  14.032   7.822  14.770 -0.4727 -0.0946  0.2870
16019W        W31828   4.334  18.206   1.320  0.2320 -0.1405  0.1599
16020W        W31829  11.956  10.289  14.319  0.4322  0.0121 -0.1566
16021W        W31830  19.110  11.465   2.670  0.0400  0.1211  0.0269
16022W        W31831  19.040   8.391   4.450  0.0390  0.0078  0.2428
16023W        W31832   5.695  15.275   0.867  0.0655  0.0871  0.1589
16024W        W31833  14.553  15.700   6.326  0.0600 -0.1804 -0.0070
16025W        W31834   4.095  12.242   0.902  0.2057 -0.3102  0.1493
16026W        W31835   0.646  11.858   1.664  0.0361 -0.1624  0.2000
16027W        W31836  13.470   8.332  10.286 -0.0243 -0.1349  0.1116
16028W        W31837   0.668  17.094   4.683 -0.0756  0.0013  0.5787
16029W        W31838  16.984   7.649   0.344 -0.0882  0.1682 -0.1105
16030W        W31839   2.620   1.202   2.984 -0.2121  0.1200  0.0811
16031W        W31840   6.551  15.047  10.618  0.4009  0.1384  0.0420
16032W        W31841   4.529  17.665   2.053 -0.2763 -0.1166  0.0057
16033W        W31842   1.453  14.837   0.341 -0.0520 -0.1322 -0.2159
16034W        W31843   1.039  17.819  14.132 -0.0007  0.2189  0.1325
16035W        W31844   5.871   6.508  14.198 -0.0340 -0.2333  0.1586
16036W        W31845   1.775  13.014  10.985  0.0565 -0.0250  0.2327
16037W        W31846   3.179   4.157   3.763  0.0976 -0.2483  0.3259
16038W        W31847  17.858   1.734   0.757 -0.0690 -0.3299  0.2039
16039W        W31848   6.038  12.094   3.221  0.0093 -0.2093  0.0306
16040W        W31849  16.051  18.583  14.424  0.1342  0.1294 -0.2784
16041W        W31850  11.606   1.482  12.739 -0.1716 -0.0262  0.1306
16042W        W31851   8.165   9.261  13.700  0.2494 -0.1348 -0.0169
16043W        W31852  10.547  16.244   1.920  0.0699 -0.0146 -0.0164
16044W        W31853  13.282  16.804  10.815  0.1743 -0.2922 -0.2377
16045W        W31854  14.675  15.017  15.075 -0.0866 -0.1052  0.0935
16046W        W31855   7.062  18.303   1.559  0.2430  0.2064  0.0370
16047W        W31856   5.903   8.818   1.664 -0.0765 -0.1245 -0.1783
16048W        W31857   2.646   1.661  10.548 -0.3100 -0.0403  0.1381
16049W        W31858  18.437   0.493  12.501  0.0992 -0.1588 -0.2346
16050W        W31859   4.389   5.383  12.043 -0.2480 -0.0564 -0.1320
16051W        W31860  15.690  13.151  12.628 -0.3523 -0.0792 -0.1023
16052W        W31861   2.630   3.396   1.293  0.1922  0.1209  0.3243
16053W        W31862  12.176  13.433   2.262 -0.1971  0.0433  0.0937
16054W        W31863   1.728   1.891  10.514  0.4235  0.3363  0.0537
16055W        W31864   2.783   7.661  15.080 -0.2587  0.0508  0.2547
16056W        W31865  14.468   3.342  14.503  0.0632 -0.0766 -0.1007
16057W        W31866   5.608   3.764  10.392 -0.3879  0.0956 -0.0173
16058W        W31867  15.513  17.734   2.024 -0.2417 -0.0623 -0.3048
16059W        W31868   0.113  14.749  10.985  0.0909  0.0450  0.0205
16060W        W31869   5.836   0.904   0.887  0.4183  0.2072 -0.4449
16061W        W31870   6.746  15.683  10.533  0.2697 -0.0294  0.0614
16062W        W31871  10.359  10.743  13.107 -0.3969 -0.0767 -0.0896
16063W        W31872   5.764   2.825  15.235 -0.0110 -0.1239 -0.0421
16064W        W31873  11.967   6.946   2.842  0.0438 -0.2210 -0.0021
16065W        W31874   0.388  13.429   4.656  0.1621 -0.0817 -0.0034
16066W        W31875  10.820  16.303  11.134  0.1298 -0.1626  0.1523
16067W        W31876   4.841   8.502   3.829  0.1567 -0.0035  0.1301
16068W        W31877  10.031   3.709   2.984  0.0329 -0.5170 -0.0799
16069W        W31878   6.568   4.026   3.710 -0.0572 -0.3709 -0.1425
16070W        W31879   1.549  12.365  14.710 -0.2980 -0.5288  0.0154
16071W        W31880   9.196  18.442   0.459  0.1240  0.0587 -0.3124
16072W        W31881  11.508   0.133   0.674  0.2378 -0.1483 -0.0934
16073W        W31882  13.898  10.734   1.259 -0.2099  0.0006  0.2061
16074W        W31883  18.306   8.139  11.697 -0.1207 -0.0196  0.1106
16075W        W31884   0.528  17.466   4.974 -0.1500  0.0150 -0.0156
16076W        W31885   4.670  15.570  14.485  0.1875  0.3935  0.0460
16077W        W31886  18.592  11.545  11.963 -0.0619  0.0633 -0.2646
16078W        W31887   0.353  16.169  15.079  0.0539  0.1626  0.1138
16079W        W31888  14.872   4.939   3.292  0.1288 -0.1500  0.0992
16080W        W31889   0.842  12.732  12.434 -0.0786  0.2151  0.0826
16081W        W31890  18.185   4.878  14.326  0.2864  0.2817 -0.0216
16082W        W31891   8.579  12.940   2.713  0.2346 -0.0422  0.1582
16083W        W31892   3.051  17.176  12.952 -0.1740 -0.0528 -0.4781
16084W        W31893  11.562  10.809   2.726 -0.0094  0.0385 -0.1076
16085W        W31894  18.960  12.723   0.962  0.1119 -0.0251 -0.3811
16086W        W31895  11.348  13.433   5.873  0.1383  0.2395  0.2631
16087W        W31896  16.979  12.181   1.591  0.1239 -0.1564 -0.1399
16088W        W31897   8.709   1.234  12.677 -0.2661  0.0396 -0.1988
16089W        W31898   7.789  15.746  10.453 -0.2716  0.1449  0.1886
16090W        W31899   8.599   3.187   4.098 -0.0309 -0.1953 -0.1824
16091W        W31900  12.484  10.742   4.717  0.1913  0.1856  0.1740
16092W        W31901   4.671  10.803   1.931 -0.0542  0.0397  0.1280
16093W        W31902  15.303   3.126  11.111  0.2976 -0.1092 -0.2810
16094W        W31903  17.980   2.288  14.400 -0.0785  0.0664 -0.0151
16095W        W31904  17.230  16.055   0.866  0.2844 -0.1210 -0.0290
16096W        W31905   0.040   7.916   4.510 -0.4355  0.0433 -0.0662
16097W        W31906   0.645   3.749  14.203 -0.0388  0.2800 -0.0671
16098W        W31907  18.092   9.615   0.436 -0.2299  0.2221  0.1741
16099W        W31908   0.990  17.908  10.571  0.0047 -0.1606 -0.4942
16100W        W31909   8.783   0.526   0.909  0.0245 -0.1697  0.0775
16101W        W31910   8.255  14.776  10.735 -0.1230 -0.1403  0.0120
16102W        W31911  13.748   8.803  12.483 -0.3172  0.2264  0.0762
16103W        W31912  15.516   6.264   1.328  0.0211 -0.2868  0.1434
16104W        W31913   8.678  12.755   4.837  0.0864 -0.1076  0.3329
16105W        W31914  18.625   7.887   2.113 -0.0929  0.0434 -0.0248
16106W        W31915  11.206  19.042  14.169  0.2578 -0.0490  0.2327
16107W        W31916  12.856   9.754   2.624 -0.4773 -0.0649 -0.0351
16108W        W31917   8.039  15.078  13.264  0.1056 -0.1315  0.2075
16109W        W31918   8.338   6.640   3.783 -0.2354  0.1960 -0.1088
16110W        W31919   7.309  14.327  14.990 -0.2269  0.1320  0.1949
16111W        W31920   8.231  15.790  13.916  0.0527 -0.1357 -0.3195
16112W        W31921   3.989   8.508  14.954  0.0658  0.1982  0.0727
16113W        W31922   1.560  10.625  14.884  0.1848  0.3426  0.2695
16114W        W31923   9.955  10.858  11.662  0.3006  0.0187  0.1551
16115W        W31924  14.621   8.615  11.516  0.0953  0.1487  0.0271
16116W        W31925   6.937   2.275  13.060  0.0597 -0.1718 -0.2304
16117W        W31926   5.401   9.915   4.613  0.2887  0.0259  0.1504
16118W        W31927   3.838  17.957  12.411 -0.4701  0.0715  0.1144
16119W        W31928   3.342   0.872   2.295 -0.0403 -0.2147  0.0583
16120W        W31929   7.802   6.563  13.078 -0.2645 -0.1362  0.1255
16121W        W31930   0.518  11.783   5.017  0.0969  0.0365 -0.0125
16122W        W31931   5.721  18.341   4.945 -0.3700 -0.1493 -0.0743
16123W        W31932  10.231  12.306  15.241 -0.0394  0.0387  0.0763
16124W        W31933  12.687   0.176  11.700  0.3766  0.0931 -0.1130
16125W        W31934  17.402  10.722   5.203 -0.1805 -0.1957 -0.1289
16126W        W31935   8.494  10.100  11.992  0.0405  0.4088 -0.0465
16127W        W31936   2.906  13.664  10.849 -0.1600  0.4597  0.3046
16128W        W31937   3.718   6.860   5.396 -0.1925  0.1727  0.1319
16129W        W31938  18.354   1.759  12.984 -0.0571  0.0444 -0.2260
16130W        W31939  10.019  18.165   1.934 -0.0409  0.4581  0.0628
16131W        W31940   6.034  18.719  10.749  0.0383  0.0593 -0.0749
16132W        W31941   6.132  14.997   5.181 -0.1031 -0.2889  0.0159
16133W        W31942   7.685   8.500   0.694 -0.2308 -0.0898 -0.2268
16134W        W31943  13.077  12.105   5.134  0.0007 -0.3671  0.0944
16135W        W31944   5.768   6.026   4.111  0.3493  0.0369  0.1415
16136W        W31945   4.867  13.709   2.226 -0.0860  0.3027 -0.0015
16137W        W31946  12.871   4.213   1.266  0.1072 -0.0589  0.0549
16138W        W31947   4.096  12.018  11.360  0.4183 -0.2416  0.0914
16139W        W31948   0.859  15.227   1.288  0.0621  0.2072  0.0324
16140W        W31949   3.946   4.144  13.128 -0.0318  0.2656 -0.2630
16141W        W31950  18.033   8.593   0.157 -0.0945 -0.2935 -0.0623
16142W        W31951   1.921  15.057   4.645  0.0075 -0.5385  0.1971
16143W        W31952   3.271  16.603   3.191  0.1418  0.3093 -0.0453
16144W        W31953  15.981   1.769   2.297 -0.0071 -0.0987  0.0118
16145W        W31954  13.990   0.727   2.082 -0.2118  0.1722  0.2074
16146W        W31955  17.887   5.487  10.504  0.0476 -0.0386 -0.1958
16147W        W31956  15.548  10.430   2.945  0.1976  0.1740  0.0803
16148W        W31957   6.296  14.278  12.329  0.0427 -0.1200  0.1007
16149W        W31958   6.846  14.727  10.199 -0.6353  0.0914  0.1845
16150W        W31959   1.601   6.556   5.129 -0.0537  0.1461  0.1109
16151W        W31960   5.147   5.992   9.677  0.3071  0.0932  0.0844
16152W        W31961   4.852   3.233  13.468 -0.0513  0.6657 -0.1366
16153W        W31962  16.021   2.490   4.898 -0.0670 -0.3572  0.3881
16154W        W31963   2.555  18.811  12.877  0.2875  0.0514  0.3357
16155W        W31964  10.096   8.807  12.968 -0.1338 -0.5539  0.2808
16156W        W31965   6.476   7.586   0.522 -0.3955  0.0999  0.0085
16157W        W31966   3.542   5.834   1.102 -0.1677  0.0425 -0.2895
16158W        W31967  14.145   4.791   5.089 -0.0262  0.0254 -0.1598
16159W        W31968   7.641  11.033   5.095  0.3252  0.0446 -0.2923
16160W        W31969  15.283   2.589   9.800  0.2866 -0.2456  0.2035
16161W        W31970   3.570   2.641  11.271  0.2760 -0.2866  0.0269
16162W        W31971  15.858  18.196   0.475 -0.1231  0.0243 -0.2006
16163W        W31972   3.116   7.111  10.616 -0.0514  0.2363  0.1048
16164W        W31973  11.391   6.509  13.926 -0.2536  0.1298  0.0388
16165W        W31974  10.973   5.095   3.903  0.1165 -0.0321  0.1718
16166W        W31975   9.392  15.973   5.391  0.0981  0.0218 -0.1686
16167W        W31976   5.726  10.167   4.328  0.1038  0.3057 -0.2479
16168W        W31977  13.700   2.874   4.763  0.1117 -0.0249 -0.2455
16169W        W31978  11.374  17.500   5.029 -0.0634 -0.0685  0.2268
16170W        W31979   0.220   2.296   0.581 -0.1557 -0.1661 -0.3050
16171W        W31980   6.147   7.797   3.499 -0.0907  0.0313 -0.1463
16172W        W31981   9.859  14.256  13.381 -0.4266 -0.0560  0.1263
16173W        W31982  10.555  11.740   2.938 -0.1800 -0.1654 -0.4564
16174W        W31983  13.109   6.865  15.189 -0.2652  0.2555  0.1806
16175W        W31984  14.595  13.070   2.515  0.4518  0.1053 -0.0701
16176W        W31985  10.125  11.889   4.963  0.3343  0.1511 -0.0676
16177W        W31986  18.573  16.060   0.390  0.1087 -0.1891  0.3526
16178W        W31987   2.150   1.422  11.411 -0.3177  0.3735 -0.0799
16179W        W31988  18.901  14.756  13.167  0.0289  0.0509  0.0882
16180W        W31989  16.800   2.687  10.390 -0.0263 -0.1808 -0.1660
16181W        W31990   5.892   0.666   2.953 -0.0421  0.1055  0.1739
16182W        W31991  10.325  11.130   4.645 -0.0126 -0.0901  0.2222
16183W        W31992  16.237   0.270  10.895  0.4229 -0.4357  0.3053
16184W        W31993  14.888   5.790  13.494  0.3466 -0.0524  0.4586
16185W        W31994  11.160   5.961   2.360  0.1236  0.1668 -0.1831
16186W        W31995   3.611  16.541   2.307  0.1582 -0.2330  0.1483
16187W        W31996  15.820   5.798   2.512 -0.0062  0.1806  0.2644
16188W        W31997  11.908  10.212  12.349 -0.0826 -0.0728 -0.1205
16189W        W31998  12.649   5.757  12.650 -0.1301 -0.0688 -0.1801
16190W        W31999   6.017  18.114   2.770 -0.0799 -0.1879  0.1058
16191W        W32000   0.998   1.268   3.807 -0.3825  0.2903 -0.3502
16192W        W32001  18.299  12.046  14.003  0.2117 -0.1753 -0.0566
16193W        W32002   5.947   9.663   4.819  0.0872 -0.0013  0.0938
16194W        W32003  11.632   0.771  13.929  0.2644 -0.0141  0.2064
16195W        W32004   4.774   5.578   4.760 -0.0057 -0.2280 -0.2823
16196W        W32005   6.994   2.597  10.482  0.1124 -0.0821  0.1602
16197W        W32006   2.455  10.816  12.427  0.1169 -0.0533 -0.0655
16198W        W32007   3.924   9.596   1.920  0.0170 -0.1195  0.0457
16199W        W32008  14.328  10.774  11.368 -0.1224 -0.2336  0.0812
16200W        W32009  15.467   3.045  12.138  0.1032 -0.1505  0.2577
16201W        W32010  17.325   6.610  14.288 -0.2480 -0.5092  0.0441
16202W        W32011  14.645  18.563  11.874  0.0862 -0.0186 -0.2211
16203W        W32012  15.447  18.328   0.795 -0.3000  0.1427  0.1221
16204W        W32013  10.091   1.223  11.064  0.2133 -0.0412 -0.1798
16205W        W32014  10.518   9.303  10.579 -0.0374  0.0016 -0.1509
16206W        W32015   6.853   6.833   1.187  0.1632  0.2113 -0.0564
16207W        W32016   0.602  12.890   3.107 -0.0598  0.0680  0.1324
16208W        W32017  16.776  11.029  12.043  0.0102 -0.0285 -0.2086
16209W        W32018   7.409   4.115   3.179 -0.0442  0.0061 -0.0497
16210W        W32019  14.423   6.368  10.384 -0.0479 -0.1797 -0.0090
16211W        W32020  13.957   0.557  11.091  0.1427  0.1776  0.2770
16212W        W32021  16.107   5.553   2.938  0.1132 -0.0012 -0.1734
16213W        W32022   4.102  16.519   2.937 -0.2867 -0.3060 -0.1302
16214W        W32023   6.284   7.046   0.371 -0.0023 -0.1699  0.2057
16215W        W32024   6.257   1.604  10.180  0.0652  0.1237 -0.4399
16216W        W32025   3.449   0.103  11.534 -0.1664 -0.1201 -0.0345
16217W        W32026   0.695   8.999   1.286  0.0836  0.1872 -0.0841
16218W        W32027   6.191   1.438   9.717  0.4455  0.1590  0.3234
16219W        W32028  10.527  10.627  10.952  0.1015 -0.0333 -0.1112
16220W        W32029  15.738  14.895   4.999 -0.1874  0.2187 -0.0995
16221W        W32030   2.570  18.578   1.804 -0.1409 -0.0575 -0.0496
16222W        W32031   2.014  10.533  12.461 -0.3367 -0.0241 -0.0579
16223W        W32032   8.686   0.588   4.167 -0.1385  0.0473 -0.1458
16224W        W32033  11.725   3.252  14.157  0.1251  0.1401  0.1896
16225W        W32034  18.683   1.225   4.438  0.0148  0.1162  0.3294
16226W        W32035   8.447   0.391   0.315 -0.1521  0.0849 -0.1626
16227W        W32036  15.506  13.588  13.422 -0.2002  0.1651 -0.1145
16228W        W32037  13.086   0.343  10.141  0.2761  0.0500  0.0355
16229W        W32038   6.249  13.112  11.238  0.1268 -0.2215 -0.0247
16230W        W32039  12.885   6.217  15.154 -0.1927  0.3476  0.0711
16231W        W32040  16.512   7.281   0.249 -0.0094  0.0950  0.1199
16232W        W32041  18.721  12.971   3.750  0.0956  0.2225  0.0290
16233W        W32042  10.261  16.892   2.263  0.0256 -0.1294  0.0823
16234W        W32043  12.963   4.668  12.920  0.3291  0.1580 -0.4049
16235W        W32044  19.032  16.240   3.275  0.2491  0.1576  0.2222
16236W        W32045   6.382   8.606   5.754  0.1531 -0.1169  0.0872
16237W        W32046   3.286  16.067  11.674 -0.1573 -0.1193  0.0409
16238W        W32047  18.373  13.883  13.611 -0.2076 -0.2772  0.0069
16239W        W32048  15.901   0.355   6.044  0.0550  0.0248 -0.0309
16240W        W32049   1.558  18.122  12.502  0.0811 -0.1279  0.1349
16241W        W32050   7.067   4.838  10.721  0.3676  0.3868  0.3440
16242W        W32051   6.557   2.066   0.470  0.1090  0.0916  0.1188
16243W        W32052  18.558   6.841   9.575  0.1959  0.1048 -0.3276
16244W        W32053  11.258  11.650   1.412  0.1783  0.0352 -0.2390
16245W        W32054  16.635   9.921  15.155 -0.1952 -0.1411  0.0571
16246W        W32055  15.268  15.455  11.093  0.3628 -0.0742  0.0012
16247W        W32056   0.696   7.999   5.042 -0.4151  0.1892  0.1643
16248W        W32057   2.184  18.024   0.081 -0.6259 -0.3814 -0.1212
16249W        W32058   2.555  17.820  14.202 -0.2556  0.0081  0.1098
16250W        W32059   2.159   1.082  15.219  0.0356 -0.1700  0.1382
16251W        W32060   5.780  18.147  10.092 -0.1060  0.0127  0.3025
16252W        W32061  19.096   4.816  10.179 -0.1406 -0.3345 -0.0875
16253W        W32062   6.672   0.487  12.611 -0.1508 -0.0623  0.3442
16254W        W32063   9.618  12.829  12.682  0.1435  0.0373  0.1377
16255W        W32064  14.507   8.190  11.130 -0.1423 -0.0877 -0.3765
16256W        W32065  19.034   9.000   2.771 -0.0353  0.3104  0.2359
16257W        W32066   8.590   2.330   3.728  0.2812  0.3357  0.0514
16258W        W32067   9.865  18.561   1.674 -0.1066  0.0354 -0.0125
16259W        W32068   1.689   6.199  11.197  0.0648 -0.0781  0.0852
16260W        W32069  11.408   8.781  13.962 -0.4177  0.0277  0.2181
16261W        W32070  10.167  18.768  12.236 -0.1972  0.0724 -0.0176
16262W        W32071  15.727   2.993   3.060 -0.0937  0.0968  0.1101
16263W        W32072  17.190   1.064   2.411  0.2253  0.0481 -0.1631
16264W        W32073   2.475   3.882   2.234 -0.1407  0.2070  0.2363
16265W        W32074  15.975   6.520  12.214 -0.0491  0.0902 -0.0539
16266W        W32075   1.434   9.030   0.516 -0.1262 -0.1122 -0.2116
16267W        W32076  13.325  17.274   2.454  0.0297 -0.0427  0.1505
16268W        W32077   0.642   8.484   2.656 -0.0733  0.1290 -0.3188
16269W        W32078   9.321   4.615  10.658  0.0563 -0.2212  0.4287
16270W        W32079   9.658  18.672   0.394  0.0691  0.1980  0.0523
16271W        W32080  10.115  10.364  12.408 -0.0877  0.1782 -0.0303
16272W        W32081  12.660   9.921  13.198  0.0955 -0.1321  0.1460
16273W        W32082   5.094   3.406   2.017  0.1229  0.1158 -0.0210
16274W        W32083   7.528  18.767   3.379  0.1223 -0.0949  0.0183
16275W        W32084  18.777   6.934  11.080  0.2115  0.2442  0.0465
16276W        W32085   3.298  16.140   2.245  0.1064  0.0075 -0.1556
16277W        W32086   3.059   9.167  13.324  0.1999  0.0883  0.0476
16278W        W32087  14.138  10.632   5.102  0.0526  0.3547 -0.0314
16279W        W32088   2.259  18.249   1.561  0.2009  0.0925 -0.2050
16280W        W32089  11.002   1.145   0.611  0.0505  0.2050 -0.2172
16281W        W32090  16.394  10.656  15.074  0.1154  0.0565 -0.1050
16282W        W32091   0.077   8.794   0.585 -0.0811  0.1458  0.0442
16283W        W32092   1.946   2.467   0.137  0.3402 -0.0149 -0.1104
16284W        W32093  15.148  17.214  11.089 -0.0102 -0.1438 -0.3290
16285W        W32094   8.026  15.690   2.877 -0.2509  0.0116  0.1167
16286W        W32095  11.561   7.043   1.928  0.1576 -0.1346  0.1340
16287W        W32096  15.037   0.307  11.661 -0.1311 -0.1639  0.0184
16288W        W32097  13.598   3.448  10.840 -0.0545 -0.3607  0.3360
16289W        W32098  14.185   2.339  14.476 -0.0032  0.2469  0.1095
16290W        W32099  17.230   4.160   4.960  0.1856 -0.1818  0.3274
16291W        W32100   5.467   4.248  10.968  0.2832 -0.1442 -0.0421
16292W        W32101  13.877  11.614   0.892 -0.2332 -0.0237  0.1476
16293W        W32102   2.466   7.632   4.151  0.0763  0.0667  0.0564
16294W        W32103   1.567   6.795   3.939 -0.0065 -0.2908  0.1014
16295W        W32104  16.283   2.826   3.246  0.0364 -0.2941  0.1061
16296W        W32105   6.867  10.187  11.271  0.0142 -0.3497 -0.0430
16297W        W32106   4.819  10.158   1.150 -0.0564  0.0975  0.0843
16298W        W32107  11.918  19.022  13.452  0.3097 -0.0173 -0.4453
16299W        W32108  16.649   7.928   3.922  0.1721 -0.0222 -0.0846
16300W        W32109  11.528   3.922  13.376  0.2222 -0.2516  0.1309
16301W        W32110  11.489  15.182  10.797 -0.0494  0.0292 -0.1642
16302W        W32111  14.359  17.132   1.038 -0.0583  0.5075 -0.0596
16303W        W32112  14.960  15.414   3.714  0.1211 -0.1139  0.1928
16304W        W32113   1.858  12.540  11.133  0.0445 -0.1708  0.0977
16305W        W32114   7.979   0.630  13.180 -0.2526 -0.1745  0.1115
16306W        W32115   4.547   7.109   0.828 -0.1149 -0.1971 -0.0264
16307W        W32116   0.429  15.667   0.018  0.1060 -0.0766 -0.1848
16308W        W32117   4.815   2.873  11.311  0.0988 -0.1113 -0.0205
16309W        W32118   2.078  15.480   0.368 -0.1013 -0.3412 -0.2295
16310W        W32119  14.401   1.608  14.679  0.0037  0.0561 -0.2397
16311W        W32120   8.493  11.722  14.056 -0.1979  0.1837  0.2328
16312W        W32121  15.280  13.342  11.577  0.0923 -0.0507 -0.0340
16313W        W32122  13.409  18.002   0.048  0.2244 -0.2873  0.2082
16314W        W32123   7.627  15.521   9.532  0.0556  0.0921 -0.3624
16315W        W32124   2.718   2.698   1.341 -0.0883 -0.0980 -0.0743
16316W        W32125   4.900  17.391  13.212 -0.1117 -0.2418  0.0077
16317W        W32126  16.387   7.118  13.291 -0.0493 -0.0270  0.1687
16318W        W32127   0.779  11.335   5.049 -0.0985  0.2575 -0.0882
16319W        W32128  14.961   4.221   4.027  0.0826  0.0873 -0.1924
16320W        W32129  10.214   4.175   2.843  0.0856 -0.0581  0.0224
16321W        W32130  10.087   1.207   4.009  0.1723 -0.0340  0.0641
16322W        W32131  11.687   4.526   0.402  0.3509  0.1474 -0.2193
16323W        W32132  10.041   0.800   3.692 -0.1193 -0.4818  0.0251
16324W        W32133   6.527  11.336   5.384 -0.1534  0.0058  0.1253
16325W        W32134   3.581  10.088   0.296  0.0206 -0.1771 -0.3229
16326W        W32135  12.866   4.862  14.264  0.1760 -0.4914  0.3142
16327W        W32136   0.574  13.000  11.329  0.2413  0.1014  0.0042
16328W        W32137   6.979  11.114  14.131  0.2108  0.1656 -0.1711
16329W        W32138  10.566   6.259  10.781 -0.2881 -0.1782 -0.2545
16330W        W32139  16.320   9.325  11.779 -0.2495 -0.0954 -0.1036
16331W        W32140   3.409   9.379   0.917  0.2346 -0.3440 -0.1607
16332W        W32141   5.370  18.352  12.902 -0.2810 -0.2604 -0.0887
16333W        W32142  14.697   7.846   4.863 -0.1752 -0.1080 -0.1153
16334W        W32143   3.871   7.466  11.086  0.5374  0.0979 -0.3660
16335W        W32144   9.730   6.161   1.463 -0.0360 -0.0228 -0.0610
16336W        W32145  13.899  19.036  12.227  0.0380 -0.0055  0.0687
16337W        W32146   7.515  10.769   4.537 -0.3776 -0.3733  0.1770
16338W        W32147   1.281  18.589  12.806  0.1255 -0.2416  0.0658
16339W        W32148   2.698  10.615  14.713 -0.3142 -0.0193  0.0322
16340W        W32149  12.614   2.786  10.594 -0.1691 -0.0401  0.0490
16341W        W32150   0.985  14.360  11.952  0.0704  0.1290  0.0848
16342W        W32151  12.574  10.141  14.961  0.1353 -0.2516 -0.0804
16343W        W32152   6.553   1.519  13.381 -0.1201 -0.2867 -0.2224
16344W        W32153   2.788   3.060  12.699  0.0063 -0.1524 -0.1434
16345W        W32154   0.153  16.163  11.534 -0.3578 -0.5512 -0.2045
16346W        W32155   8.401  15.241  12.733  0.1838 -0.0896  0.1021
16347W        W32156   3.775  13.827  11.075 -0.1166 -0.2995 -0.1647
16348W        W32157   7.860  15.748   0.425 -0.1222  0.1587 -0.1796
16349W        W32158  12.252   4.253   3.600 -0.1400  0.2487 -0.5293
16350W        W32159   9.892   3.036  10.520 -0.0652 -0.2207  0.0344
16351W        W32160   6.710   1.817  14.732 -0.2229  0.0614  0.3906
16352W        W32161   3.989   2.635   2.262  0.0992  0.2890 -0.0806
16353W        W32162  14.934  13.750  11.728  0.1594 -0.1068  0.0746
16354W        W32163  13.583   2.641  10.855 -0.2104 -0.0460 -0.0870
16355W        W32164   3.943   1.667   2.426 -0.3110  0.1229 -0.1021
16356W        W32165   8.932  14.572   2.789 -0.2260 -0.3889  0.0945
16357W        W32166  17.090  18.003  13.860 -0.0421  0.0035 -0.1015
16358W        W32167  13.444  18.759   1.146 -0.2187 -0.2114  0.4559
16359W        W32168  17.284   7.605  10.692 -0.1183 -0.0974  0.0949
16360W        W32169  19.057  17.947   4.881  0.3505 -0.3975 -0.0256
16361W        W32170  16.527  16.592   0.842  0.1463 -0.0198  0.0309
16362W        W32171  13.853   3.736   1.684 -0.1073  0.0171 -0.0208
16363W        W32172  12.727  10.432  12.278  0.0082  0.0808 -0.0492
16364W        W32173  16.841  11.135  14.067  0.0166 -0.1416 -0.1036
16365W        W32174  10.259   6.151   3.209  0.5072 -0.1257 -0.5057
16366W        W32175   2.433  12.785   4.900  0.2622  0.0439 -0.3296
16367W        W32176  12.315   7.715   2.732 -0.0587  0.0355 -0.1460
16368W        W32177  17.204  18.684  14.399  0.2657 -0.4603 -0.1119
16369W        W32178  11.340  12.824  14.291 -0.0566 -0.1820  0.4901
16370W        W32179  11.995   6.405   0.271  0.1421 -0.0674  0.2731
16371W        W32180   0.017  11.755  13.710  0.1689 -0.2064 -0.2086
16372W        W32181  11.013   2.383  12.796 -0.1206  0.1372  0.3763
16373W        W32182  11.228   1.963  14.943  0.2997  0.1344  0.0007
16374W        W32183  10.125   7.385  13.511  0.4766 -0.0322 -0.2896
16375W        W32184   4.672   7.014   3.883  0.2964 -0.1229 -0.0550
16376W        W32185  13.196  17.371  11.639 -0.2783  0.3959  0.0265
16377W        W32186   6.935   0.332  14.971  0.1229 -0.0654 -0.2528
16378W        W32187   0.117   0.798   2.646  0.0143  0.1782  0.0475
16379W        W32188  11.672   3.220   3.241  0.2226  0.4488  0.1015
16380W        W32189  15.503   3.205   0.690 -0.0908 -0.1596  0.2437
16381W        W32190  10.094   6.899   4.716  0.1758 -0.0591  0.2333
16382W        W32191   6.212   0.077  10.527  0.2197 -0.2199 -0.3361
16383W        W32192   6.400   2.510   0.224 -0.1369  0.1692  0.0411
16384W        W32193  16.289  12.373  11.155 -0.2955 -0.1829 -0.0738
16385W        W32194   6.299   7.403   1.282 -0.2653  0.3028 -0.0454
16386W        W32195  19.046  13.323   1.707 -0.0562  0.1644 -0.1645
16387W        W32196   4.452  18.873  13.272 -0.0813  0.1483  0.0891
16388W        W32197   5.052   3.700  10.255  0.4882 -0.1020  0.2096
16389W        W32198   4.317  10.578   0.479  0.3187 -0.0970 -0.0084
16390W        W32199  13.347   2.051  14.436 -0.1939 -0.1785  0.0745
16391W        W32200   3.331   2.455   3.220  0.3528 -0.2210 -0.0655
16392W        W32201  16.854  19.024  12.292 -0.2893  0.0252 -0.2276
16393W        W32202  10.922   1.377   0.157 -0.1572  0.0876  0.1249
16394W        W32203   4.489   0.197  13.911 -0.1096 -0.0166  0.2600
16395W        W32204  12.281   3.439   0.966  0.0269  0.0263  0.0446
16396W        W32205  11.538  11.219   1.587  0.0035  0.0526  0.0380
16397W        W32206   7.822   5.968   2.407  0.2100  0.4648 -0.2872
16398W        W32207  11.903  15.242  10.516  0.1914  0.1382 -0.0070
16399W        W32208   7.002   2.231   9.942 -0.2558  0.0122  0.0967
16400W        W32209  14.027  13.930   5.157  0.0709 -0.1002 -0.3506
16401W        W32210  16.969   8.541  11.660 -0.0194  0.0277  0.1290
16402W        W32211  17.002   8.106  14.241  0.3221  0.3628 -0.1718
16403W        W32212  16.137  12.568   3.650 -0.1889 -0.1028  0.1555
16404W        W32213  13.767  18.000  13.047  0.0247 -0.1291 -0.3377
16405W        W32214  17.096  10.899   1.805 -0.2348  0.0051  0.1017
16406W        W32215   0.991  14.802  11.453 -0.0596 -0.1772  0.2733
16407W        W32216  16.494   2.243   4.751  0.0556  0.1109 -0.1027
16408W        W32217   6.787   2.919   4.216  0.1600 -0.2379 -0.1441
16409W        W32218   5.094  14.377   3.921 -0.0151  0.1184  0.2796
16410W        W32219   7.490  10.488   0.066 -0.1672  0.1425 -0.2047
16411W        W32220  17.591   4.326  10.015 -0.0806  0.1855 -0.0252
16412W        W32221  12.390  10.607   1.529 -0.6514  0.3082 -0.1330
16413W        W32222  10.840  14.986   1.621  0.0826  0.0857  0.1140
16414W        W32223   3.851   0.707   1.063  0.2827  0.1308 -0.1967
16415W        W32224  10.780   1.235  13.639  0.1039  0.1121  0.0058
16416W        W32225   2.970   5.719   9.736  0.0418 -0.0701  0.0704
16417W        W32226  12.376  11.392   1.302  0.0585  0.0607 -0.0906
16418W        W32227  15.828   1.377   4.891  0.1887  0.3730 -0.2900
16419W        W32228  12.028   9.088  14.710 -0.0250 -0.1099 -0.3031
16420W        W32229   4.199   5.399  14.581  0.0401  0.3363 -0.2401
16421W        W32230   7.000  18.254  15.248 -0.0786 -0.0684 -0.3403
16422W        W32231   4.672   7.107  14.486  0.1215 -0.0420  0.1982
16423W        W32232   6.459   9.074   2.835  0.0535  0.6794  0.1116
16424W        W32233  15.334  10.542  10.637 -0.0249 -0.0207  0.0846
16425W        W32234   3.911   9.028   3.793  0.2557  0.2237 -0.0253
16426W        W32235   5.040   1.247  10.678 -0.0540  0.0029 -0.2868
16427W        W32236   5.623   9.066   4.098 -0.1945 -0.2868  0.0641
16428W        W32237  15.613  18.768   4.060  0.1766 -0.0493 -0.0347
16429W        W32238   2.736   1.465   2.496 -0.0379 -0.2023  0.1617
16430W        W32239  17.755   4.379   2.420  0.0052 -0.0671 -0.4079
16431W        W32240   6.285   5.827  14.659 -0.0957 -0.1826  0.1520
16432W        W32241  12.463   4.814  15.247 -0.2584  0.2971 -0.0540
16433W        W32242  13.774  11.075   3.912 -0.3595 -0.1336  0.0805
16434W        W32243   5.952  10.589  14.259  0.0808 -0.1574  0.3434
16435W        W32244   5.547  18.488   3.296 -0.1768 -0.1248  0.0575
16436W        W32245  18.228  12.870   0.308 -0.1287 -0.3114 -0.0739
16437W        W32246   4.065   9.455   0.595 -0.0086  0.3180  0.0007
16438W        W32247  13.116   7.599  12.785  0.1352 -0.1354  0.0952
16439W        W32248  10.318  11.617   1.458 -0.1562  0.4156  0.2239
16440W        W32249  13.050  11.772  12.951  0.1104 -0.1170  0.0268
16441W        W32250  16.015  17.533  12.519 -0.2251  0.1081  0.0225
16442W        W32251   1.308   2.877  14.418 -0.3059  0.1551  0.1926
16443W        W32252   4.109   9.336  14.048 -0.0389  0.0103 -0.4805
16444W        W32253  15.047   6.477   1.692 -0.0731  0.2974 -0.0194
16445W        W32254   9.572  15.895   1.691  0.0832  0.0362 -0.0344
16446W        W32255  16.233   6.693  15.225  0.3250 -0.1311  0.0450
16447W        W32256   9.766  19.100   1.583 -0.1353  0.0015 -0.0582
16448W        W32257   8.970  13.726   3.679 -0.0431  0.0912 -0.0574
16449W        W32258  14.347   1.510  10.793 -0.2051 -0.0472 -0.0669
16450W        W32259   5.728  13.595   0.143 -0.0188  0.1225  0.0749
16451W        W32260  11.920  15.441   2.493  0.0980 -0.0355  0.0568
16452W        W32261   6.127  11.654   2.463 -0.0201  0.2786 -0.2572
16453W        W32262  10.075  18.834   4.006 -0.2859 -0.0845 -0.1427
16454W        W32263  16.545   4.050   0.975  0.1475  0.2987 -0.2284
16455W        W32264  16.885   5.568  14.346 -0.1044 -0.0050 -0.2934
16456W        W32265   0.254   1.379   3.319  0.2655  0.1524  0.0268
16457W        W32266   9.300  15.286   1.929 -0.3269 -0.3185  0.4022
16458W        W32267   8.606   8.426   3.858 -0.0199  0.2115  0.1931
16459W        W32268   2.592   0.379   1.259 -0.2182 -0.0717  0.2291
16460W        W32269   6.231   9.941   2.143  0.1381 -0.1794  0.1222
16461W        W32270  17.760  17.404  13.484 -0.0480  0.2265 -0.1561
16462W        W32271  12.478   9.929   0.364 -0.2789  0.0630 -0.0390
16463W        W32272   8.904  10.784   0.918  0.0767  0.2605  0.3574
16464W        W32273  16.401  13.030  13.457 -0.1422  0.1484 -0.0630
16465W        W32274  16.724   9.564  12.473  0.1738  0.1126  0.0135
16466W        W32275  14.876   6.023   5.019 -0.5675 -0.0682 -0.2871
16467W        W32276  18.379  17.624   5.329 -0.0174  0.0253 -0.1713
16468W        W32277  13.538   6.919  10.969 -0.2609  0.3237  0.1977
16469W        W32278  15.465  11.957   0.690  0.0087  0.1858  0.2245
16470W        W32279  11.226   3.304  14.324  0.0007 -0.3524  0.0556
16471W        W32280   4.955  14.440  15.231 -0.1406  0.1514  0.2438
16472W        W32281  10.470  15.260  10.254  0.2917  0.0152 -0.0652
16473W        W32282  11.604   4.911   5.604 -0.3263 -0.0293  0.3589
16474W        W32283   1.415  13.061   5.116 -0.2487  0.0576  0.2035
16475W        W32284  10.139   3.113   0.928 -0.2694 -0.2291 -0.0077
16476W        W32285   0.654   7.110   1.801 -0.2146 -0.0871  0.4257
16477W        W32286   8.134   5.603  15.004 -0.0890  0.0124 -0.0212
16478W        W32287  15.079   9.072   5.008  0.1800 -0.1624 -0.0395
16479W        W32288   6.982   9.445  10.924 -0.1804 -0.0853  0.3670
16480W        W32289   7.566   8.600   3.826  0.6805 -0.3741 -0.0626
16481W        W32290   6.476   3.623   0.483  0.0312  0.5457  0.2161
16482W        W32291   5.196   7.905  12.275  0.2607  0.0530  0.1142
16483W        W32292  16.519  15.313   0.493  0.3093 -0.1985 -0.2182
16484W        W32293  12.671  18.658  12.297  0.1041 -0.0035  0.2465
16485W        W32294  17.955   6.464  12.049  0.0757  0.1986  0.1519
16486W        W32295   9.462   1.097  12.096  0.5358 -0.4570  0.2530
16487W        W32296  10.888   0.013  11.569 -0.0386  0.2304  0.0437
16488W        W32297  16.946   0.775  12.066 -0.0507  0.1427 -0.0771
16489W        W32298  17.982  13.974   1.827 -0.0842 -0.1718 -0.3642
16490W        W32299   7.823  15.250   2.504 -0.0952  0.2083 -0.5885
16491W        W32300  11.476  10.419   1.041  0.1864 -0.2846  0.3805
16492W        W32301   4.679  16.816  12.277 -0.0910 -0.1517  0.2065
16493W        W32302  10.001  10.019  13.126  0.2659  0.1472  0.2740
16494W        W32303   9.412  10.735  13.453  0.0663  0.1788 -0.2099
16495W        W32304  15.649   1.052  12.851  0.0578  0.1059  0.0174
16496W        W32305   1.421  17.334   2.202  0.2094 -0.3575  0.1256
16497W        W32306   1.612   5.863  13.973 -0.0203 -0.1535 -0.0113
16498W        W32307   4.872   4.461   4.348  0.0348 -0.3097 -0.0494
16499W        W32308   3.973  14.120  14.168  0.0827  0.1026 -0.0360
16500W        W32309  14.480  18.198   3.838  0.1410  0.3051  0.0175
16501W        W32310  13.176  11.485   5.550 -0.1425 -0.0052 -0.2108
16502W        W32311  14.139  14.239   3.402 -0.2037  0.0232  0.0071
16503W        W32312   3.379   1.252   3.656 -0.2857  0.1090 -0.0042
16504W        W32313  13.678   4.326  13.859  0.4655  0.1458 -0.3269
16505W        W32314   3.612  10.485   1.213 -0.3828 -0.1457 -0.2709
16506W        W32315  14.534  16.046   2.746  0.0013  0.0157  0.1953
16507W        W32316   8.418   3.290  14.456 -0.3186  0.2019  0.0103
16508W        W32317   3.362   7.701   1.597 -0.0928 -0.0210  0.0089
16509W        W32318   8.932   1.103  11.253 -0.1668  0.0921 -0.1724
16510W        W32319   0.101   2.505  14.902  0.0474 -0.0940 -0.0111
16511W        W32320   4.578   6.288  10.595 -0.0597  0.0350  0.1049
16512W        W32321   7.191   9.325   4.412  0.1382  0.1799 -0.0365
16513W        W32322   3.455  10.481   4.213  0.0031  0.2971  0.0792
16514W        W32323   2.363   2.662  10.368  0.1731 -0.0871  0.1937
16515W        W32324   9.212   4.044   3.560 -0.1183  0.1120 -0.1872
16516W        W32325  16.886   7.033   1.211 -0.1869  0.0566 -0.0559
16517W        W32326  15.630  14.585  12.618 -0.0399  0.3561 -0.1569
16518W        W32327  10.050   4.215  11.370  0.3777  0.0757  0.1309
16519W        W32328   7.932   3.505  14.528 -0.1296 -0.2414 -0.0062
16520W        W32329  11.407   3.125  11.736  0.0899 -0.2736 -0.4126
16521W        W32330  16.787  15.824   0.059  0.2110  0.4935  0.2650
16522W        W32331   5.041  10.744   4.089  0.0627  0.0790  0.0018
16523W        W32332   6.223  18.049  11.241  0.0078  0.0306  0.0833
16524W        W32333   3.722   6.822   3.757  0.0638 -0.3823  0.1095
16525W        W32334  17.421  13.767   0.309 -0.1368 -0.0940  0.4453
16526W        W32335   7.631  14.750  13.071 -0.0428 -0.1015  0.3848
16527W        W32336  12.362   8.724  14.235  0.0943 -0.2394  0.0636
16528W        W32337   6.125  10.190  13.228  0.0354 -0.1082 -0.1993
16529W        W32338  12.702   6.049   0.388 -0.0532  0.0706  0.0163
16530W        W32339  17.986   6.430  13.994 -0.1477  0.4861  0.2668
16531W        W32340   2.274   5.555   0.367  0.0254 -0.0129 -0.1480
16532W        W32341  18.016  17.550  14.708 -0.1389 -0.1123  0.0095
16533W        W32342   0.718   0.356  14.929  0.3833  0.1019  0.4697
16534W        W32343   0.585  18.406  14.316  0.0865  0.0153 -0.2544
16535W        W32344  17.433   1.171  14.858  0.0787 -0.1406 -0.0227
16536W        W32345  11.716  16.665  11.007 -0.0402  0.2011  0.0076
16537W        W32346  11.106  18.714  10.327  0.2699 -0.0703 -0.0444
16538W        W32347  14.876  17.887  12.569  0.0236  0.0575  0.4538
16539W        W32348   9.659   2.475   4.345  0.0620  0.0917 -0.0767
16540W        W32349  12.684   4.351   3.372 -0.1775 -0.0934  0.1498
16541W        W32350  13.253   4.178  12.399 -0.1133 -0.0718  0.2969
16542W        W32351  17.424   0.597  12.372  0.2849  0.2406 -0.2888
16543W        W32352   0.872   0.816  11.784 -0.2609 -0.0749  0.2182
16544W        W32353   1.155  11.278   2.046 -0.1125 -0.0458  0.0348
16545W        W32354   1.170  18.602   2.661 -0.0829 -0.1782 -0.0821
16546W        W32355  14.760  13.924   4.533  0.0448  0.0187  0.1691
16547W        W32356  12.045  12.101   2.628 -0.1302  0.0658  0.0408
16548W        W32357  13.186   5.131   2.187 -0.4234  0.0073  0.0612
16549W        W32358   3.010  11.228   0.061 -0.1679 -0.2181  0.2566
16550W        W32359   9.518   4.016   0.955 -0.1559  0.0813 -0.0014
16551W        W32360   5.453  11.407  12.415  0.2322 -0.0453  0.0972
16552W        W32361   0.456   4.804  12.304  0.1889  0.0414 -0.1107
16553W        W32362  17.385   0.508  11.270  0.3292 -0.0912 -0.0604
16554W        W32363  19.025   5.679  13.536  0.2959 -0.3772  0.0546
16555W        W32364   1.736  10.594  13.750 -0.1563  0.1684 -0.1972
16556W        W32365  17.347  12.487   2.427  0.0264 -0.0515  0.0192
16557W        W32366  12.755  11.405   5.199  0.2186 -0.0898  0.0102
16558W        W32367   0.735  17.973  10.055  0.0660  0.3952  0.0648
16559W        W32368  18.155  19.012   1.951 -0.0451 -0.3323  0.0187
16560W        W32369   7.377   7.693   4.396  0.4351  0.2023 -0.1457
16561W        W32370  15.402   4.007  13.392 -0.1512 -0.0118  0.0208
16562W        W32371   4.072  15.757   4.750  0.0182 -0.0537 -0.1905
16563W        W32372  13.825   7.402  11.377 -0.0864  0.0637 -0.0219
16564W        W32373  17.497   9.800   1.040 -0.1129 -0.0189 -0.2893
16565W        W32374  10.581   3.396   0.811  0.1776  0.0104  0.1030
16566W        W32375   6.697   1.066  13.184  0.1047  0.0745 -0.0553
16567W        W32376   5.180  11.157  14.806  0.1000  0.2757  0.0629
16568W        W32377   8.825   5.352   5.127 -0.2021  0.1026 -0.0687
16569W        W32378  16.970   4.093   3.677  0.1048  0.0528 -0.0013
16570W        W32379  15.685   2.796   1.660 -0.3996  0.0857  0.3990
16571W        W32380   8.743   2.747   3.467 -0.0124 -0.0054 -0.0709
16572W        W32381  15.496  12.273  10.795  0.3391 -0.1796  0.0405
16573W        W32382   8.435  16.462  10.681 -0.1272  0.0884  0.1347
16574W        W32383  10.406  11.038   2.155 -0.2390 -0.3911 -0.0672
16575W        W32384   7.613  18.278  14.185 -0.5027  0.1952  0.2393
16576W        W32385   6.865   2.639  14.574  0.2431 -0.1347 -0.1721
16577W        W32386  12.502   0.572   0.452 -0.3169  0.0062  0.1344
16578W        W32387   3.287  14.611   2.068  0.1511 -0.0790  0.0305
16579W        W32388   8.048  14.755   5.797 -0.1636  0.1180 -0.0258
16580W        W32389  18.798  16.739   1.139  0.1795 -0.1448 -0.2476
16581W        W32390  17.012  17.881   3.113  0.0664 -0.1889 -0.1538
16582W        W32391   6.402  18.723  10.358  0.2545  0.1824 -0.0082
16583W        W32392   1.106  17.491  13.784 -0.1793  0.0795  0.1049
16584W        W32393  14.923   8.811  10.512  0.0725 -0.3844 -0.1491
16585W        W32394   2.198  13.316  15.222  0.0638  0.2224 -0.3510
16586W        W32395  17.133  17.727  12.399  0.1698  0.0137  0.1394
16587W        W32396   1.526   9.341  13.378 -0.1219  0.1695 -0.1922
16588W        W32397  11.303   6.897   1.539  0.2456 -0.0268  0.0664
16589W        W32398   9.445   7.532  12.000  0.3086  0.2161  0.0402
16590W        W32399   5.564   4.609   2.967  0.1143 -0.0505 -0.1676
16591W        W32400  16.444  11.595   0.119 -0.2616 -0.0581  0.1833
16592W        W32401  18.817   8.329   5.316  0.0339  0.0154  0.0001
16593W        W32402   1.532  13.035  12.397 -0.3339  0.1778  0.1312
16594W        W32403   8.915   7.971  13.211  0.2095 -0.1604  0.0086
16595W        W32404  16.222   2.036  14.309 -0.1619  0.2186  0.0763
16596W        W32405  13.848  18.338   3.736 -0.1650 -0.1913  0.1312
16597W        W32406  15.575  19.057  14.555  0.0254 -0.0827 -0.0108
16598W        W32407  11.150  10.132   9.353 -0.2248 -0.4295 -0.1570
16599W        W32408  14.741  13.868  12.237  0.1597 -0.1314  0.0441
16600W        W32409  18.836   3.663  12.657 -0.0725 -0.3733  0.0017
16601W        W32410   5.119  17.281   2.702  0.2811  0.0317  0.0660
16602W        W32411   3.106  17.709   4.141 -0.2351  0.0132  0.1070
16603W        W32412   5.961   9.131  12.395  0.0380  0.0545  0.1086
16604W        W32413   0.520  17.852   1.709 -0.1476 -0.2185  0.2128
16605W        W32414  15.703  18.853  12.272 -0.1235  0.2527  0.0851
16606W        W32415   5.411  12.571   0.823  0.0303 -0.2387  0.0707
16607W        W32416   8.398  11.861   5.297 -0.0737 -0.0660  0.3218
16608W        W32417   5.329  13.780  13.694  0.3641 -0.1348 -0.4201
16609W        W32418   2.355  18.557  11.250 -0.1412 -0.0720 -0.1013
16610W        W32419   6.028   6.040   2.008  0.2244  0.2565 -0.0854
16611W        W32420   0.886   0.059   1.957 -0.1089  0.0477 -0.0372
16612W        W32421   0.824   1.373   0.781 -0.1293 -0.0843  0.0640
16613W        W32422   7.907  11.707  12.553 -0.0800 -0.2067  0.1644
16614W        W32423   2.042   4.421  15.106 -0.1110 -0.1052 -0.1151
16615W        W32424  18.495  12.539  10.371 -0.0277 -0.0951  0.0624
16616W        W32425  11.065   3.233   9.660  0.2986  0.0025  0.1295
16617W        W32426   8.524  11.348   2.152 -0.0462 -0.1797  0.0778
16618W        W32427  15.315  12.621  11.408  0.0684  0.1089 -0.2588
16619W        W32428   5.091  10.389  12.291 -0.1028  0.1119 -0.0137
16620W        W32429   2.946  13.887   1.144  0.0473 -0.1331  0.0202
16621W        W32430  11.591   0.676  12.149 -0.0602  0.0273 -0.2536
16622W        W32431  18.329   1.049  15.121 -0.0391 -0.1745  0.1676
16623W        W32432   7.203  16.617   0.550  0.0274  0.1308  0.1768
16624W        W32433   2.075   2.569  11.292 -0.1801  0.0937  0.2535
16625W        W32434   2.825   8.205   2.590  0.0284  0.2505 -0.0532
16626W        W32435   3.015  14.068  14.559  0.0046  0.0491 -0.1083
16627W        W32436  18.781   6.808   0.192  0.1160 -0.0943 -0.4216
16628W        W32437   1.568   7.981  14.102  0.4134 -0.3009 -0.1193
16629W        W32438  13.224  16.816  11.663  0.2130  0.1225  0.0435
16630W        W32439   9.380  10.193  15.044  0.0398 -0.3078  0.2094
16631W        W32440   0.891  10.381  13.843  0.0945 -0.1789  0.0395
16632W        W32441   4.338  15.268   1.882  0.1973  0.1957  0.0374
16633W        W32442  12.875   8.076   4.153  0.4338  0.0055 -0.0555
16634W        W32443   3.022  10.178   2.376  0.4694 -0.1595 -0.3036
16635W        W32444   2.196   9.640  12.944 -0.0522  0.0655  0.0967
16636W        W32445   1.553   6.642   1.429 -0.1573  0.3182 -0.2033
16637W        W32446   2.077   6.283  13.150 -0.0241 -0.1744  0.1495
16638W        W32447  16.836  14.715  12.578 -0.0475 -0.0145  0.1185
16639W        W32448   5.036  10.907  14.346 -0.0070 -0.0797 -0.1495
16640W        W32449   4.749  10.779  14.779  0.0788 -0.0963 -0.0180
16641W        W32450   4.580   0.945   1.208 -0.0659 -0.1958  0.0709
16642W        W32451   8.311   4.294  13.804  0.2305 -0.0455 -0.3068
16643W        W32452   3.653   3.612  10.453  0.1435  0.0297  0.0020
16644W        W32453   9.380  10.132  11.939 -0.0025 -0.1101 -0.1991
16645W        W32454   5.480   9.389  15.204  0.1863  0.3662  0.0316
16646W        W32455  18.269   0.979  13.167  0.1159 -0.3719  0.1571
16647W        W32456  16.192   2.578   9.203  0.3267  0.1852  0.3052
16648W        W32457   0.930   0.733   3.714  0.0091  0.1874  0.1484
16649W        W32458  17.653   9.398  12.663  0.0452  0.0042 -0.2264
16650W        W32459   3.935  10.614   4.226  0.3260 -0.0552 -0.0257
16651W        W32460  13.536  11.885  12.033 -0.0769  0.1048  0.0623
16652W        W32461  14.632  16.506  14.162  0.1284 -0.1493 -0.0635
16653W        W32462   5.747  12.246   1.913 -0.0800 -0.2429  0.4053
16654W        W32463   4.427  12.180   2.677  0.2079 -0.0439  0.0294
16655W        W32464   4.303  15.152  13.773  0.0675 -0.2504  0.4122
16656W        W32465  10.321  11.607   2.389 -0.1468 -0.1063  0.1711
16657W        W32466  14.445   4.936  12.599  0.1239  0.0378 -0.2432
16658W        W32467  15.838  12.905   3.848  0.6014 -0.1508 -0.3749
16659W        W32468   2.206  11.230  14.364  0.1749  0.0344 -0.0217
16660W        W32469   8.123   8.916  11.420 -0.1634 -0.4104  0.1399
16661W        W32470   2.157  11.104   3.068  0.0777 -0.0301  0.1010
16662W        W32471   0.108  11.258  10.681 -0.0406  0.4115 -0.2210
16663W        W32472  12.234  14.495   2.866  0.0592  0.1147  0.1117
16664W        W32473   6.070  14.782   3.002 -0.0555  0.0720  0.3340
16665W        W32474  16.385   1.605  10.352 -0.0925  0.1358  0.0415
16666W        W32475  11.341  12.811  12.010  0.1563 -0.1331  0.0924
16667W        W32476   4.425   6.534   5.012  0.2448  0.0217 -0.1526
16668W        W32477   1.696   1.276   3.233  0.1046  0.0293  0.0612
16669W        W32478  18.780  16.267   1.831  0.0155 -0.2620 -0.2183
16670W        W32479   4.486   6.513   3.988  0.0413  0.1829  0.1350
16671W        W32480  13.477   4.778   1.176  0.3164  0.4127 -0.0918
16672W        W32481  11.389  11.249   2.185 -0.0268  0.0824  0.0091
16673W        W32482   6.984   4.923  11.298 -0.0929 -0.1133  0.0449
16674W        W32483  11.504   2.086  10.062 -0.1603  0.1595  0.0811
16675W        W32484  18.316  16.706   2.981  0.1658  0.1202 -0.0356
16676W        W32485   2.271  12.397  12.575  0.1339  0.0023  0.2364
16677W        W32486   4.442  10.075  10.113  0.3398 -0.1346  0.2368
16678W        W32487  14.536  15.430  12.623 -0.0145  0.0742  0.1989
16679W        W32488   6.438   1.228  10.425  0.0534  0.3921 -0.1010
16680W        W32489   0.217   5.113   4.856  0.3058 -0.1896 -0.0279
16681W        W32490  11.634   3.661   1.031 -0.1413  0.1284 -0.1670
16682W        W32491   7.544  16.266  11.225  0.0273 -0.2023  0.2684
16683W        W32492  13.904   2.645  13.557 -0.2453  0.3119 -0.2883
16684W        W32493   7.138   8.331   1.485  0.4098  0.1172 -0.1334
16685W        W32494  18.598  10.764   2.739 -0.3522 -0.0684 -0.4518
16686W        W32495  16.022  17.113  12.976 -0.3558 -0.2166  0.1703
16687W        W32496   2.174  13.981  13.052  0.1414  0.2939  0.0361
16688W        W32497   9.432   0.876   3.608  0.2027 -0.1936  0.3190
16689W        W32498  14.501   2.348  12.530  0.3391  0.2541  0.1616
16690W        W32499  15.368   5.360   2.385  0.0119  0.1723  0.1363
16691W        W32500  15.492   9.293   0.637 -0.1574  0.0236  0.1511
16692W        W32501  12.803  10.380  14.066  0.1055 -0.0838 -0.4060
16693W        W32502  12.090   5.763   4.680 -0.1365 -0.1694 -0.1311
16694W        W32503   5.075  11.587   2.419  0.0545  0.0836 -0.2447
16695W        W32504  12.400   7.404   3.092 -0.1697 -0.5623 -0.1556
16696W        W32505   1.468   2.009  13.902  0.1075  0.2421  0.2138
16697W        W32506  12.802  13.466   0.694  0.0586 -0.0194  0.1819
16698W        W32507  16.069  13.018   0.956  0.0721  0.1709  0.1023
16699W        W32508   0.272   3.492   0.140  0.3787 -0.2303  0.0659
16700W        W32509  17.834   7.472   1.018 -0.1615  0.0375  0.0262
16701W        W32510   5.771   7.710   2.292  0.1780 -0.0156 -0.2631
16702W        W32511   9.688   2.041   1.388 -0.3674 -0.0826 -0.0143
16703W        W32512   9.167   8.410  13.110 -0.1375  0.2824  0.2133
16704W        W32513  11.564  18.078  11.177 -0.3575 -0.2838  0.3008
16705W        W32514   9.796  17.579  14.166  0.2207 -0.2945  0.2563
16706W        W32515  17.845  15.749   5.252  0.0936 -0.3624 -0.1991
16707W        W32516  10.564   7.171  13.538  0.4509 -0.1379 -0.1198
16708W        W32517   4.955  12.939  15.187  0.1169 -0.1377 -0.1189
16709W        W32518   0.292  18.198   5.092 -0.2728  0.0918 -0.0599
16710W        W32519   8.573  12.149   9.743  0.2448 -0.0307 -0.3716
16711W        W32520  15.269   7.574  11.250  0.0520 -0.3631  0.1861
16712W        W32521   8.653   7.059   2.451 -0.0507  0.1044  0.2208
16713W        W32522  14.305  16.129   3.984  0.0881 -0.2264  0.0666
16714W        W32523  11.008  12.839  11.486  0.2330 -0.2696 -0.0964
16715W        W32524  17.550   5.644   0.493 -0.0203 -0.2303  0.1600
16716W        W32525   7.880  17.336   0.709  0.1330  0.0903 -0.1168
16717W        W32526   0.472  18.744   1.843 -0.1723 -0.2974  0.2175
16718W        W32527   5.659  17.689  12.759  0.1598  0.4159 -0.1756
16719W        W32528   8.378   8.692   4.377  0.1338 -0.1353 -0.0292
16720W        W32529   8.940  13.866   0.400  0.0767 -0.1203  0.2097
16721W        W32530   3.897   5.171   1.919  0.0038  0.0457  0.0029
16722W        W32531  13.007   6.917  13.441 -0.1600  0.1385  0.1956
16723W        W32532   4.324  18.051   2.638  0.2641  0.3062 -0.3595
16724W        W32533   6.276   1.267  12.164 -0.0634  0.1125 -0.4526
16725W        W32534   6.457  15.901  12.089 -0.2170 -0.0609 -0.1461
16726W        W32535   0.568   8.897   5.038 -0.0990 -0.0285  0.2975
16727W        W32536  15.958  15.188   5.813 -0.2445 -0.1105 -0.0330
16728W        W32537   0.089  10.231   3.244 -0.2113  0.3615 -0.0567
16729W        W32538  15.645   4.157   3.453 -0.2717 -0.1965 -0.1456
16730W        W32539   4.916   9.188  12.501 -0.0862 -0.1481 -0.3318
16731W        W32540  13.734   9.697   0.443  0.0926  0.0123 -0.0206
16732W        W32541   0.074   9.858   1.677  0.1503  0.1260 -0.1288
16733W        W32542  11.839   1.779   2.302  0.1182  0.0985 -0.1107
16734W        W32543   5.580  18.849  11.735  0.0185 -0.2552 -0.1127
16735W        W32544   8.016  16.723   1.332 -0.1773  0.3843 -0.0355
16736W        W32545   7.923   3.697   4.584 -0.3935  0.1723  0.1111
16737W        W32546   3.249   4.487  13.608 -0.3049 -0.2882  0.1683
16738W        W32547   6.852   5.398  14.327  0.3162 -0.1149 -0.0696
16739W        W32548   4.661  10.320   4.307  0.3274 -0.1229 -0.1470
16740W        W32549   0.481   7.294   1.258  0.2841 -0.2011  0.1741
16741W        W32550   1.147  17.139  12.884  0.1451  0.0642  0.0191
16742W        W32551  15.097  15.579   4.499  0.1651  0.0874 -0.1733
16743W        W32552  13.275   6.173  14.467  0.1003 -0.0241  0.0466
16744W        W32553  11.952  14.846   2.615 -0.0043 -0.0529 -0.4737
16745W        W32554   1.062   0.993   5.662 -0.1954 -0.2285 -0.5052
16746W        W32555  16.702   0.307  14.380  0.1775  0.1624 -0.1579
16747W        W32556   1.418   8.642   5.261  0.2159  0.0026  0.0651
16748W        W32557   2.311  11.701   3.391 -0.1734 -0.1714 -0.0950
16749W        W32558  17.751  14.730   1.123 -0.2525 -0.2372  0.0486
16750W        W32559   4.056   4.555   3.559 -0.3078 -0.1692  0.1228
16751W        W32560   8.722   8.496   4.752  0.0334 -0.3556 -0.0974
16752W        W32561  16.313  17.709   1.082  0.1918  0.1930 -0.1252
16753W        W32562   6.652  10.327   5.574  0.0371  0.2261 -0.0572
16754W        W32563   5.216  16.322  13.865 -0.1410  0.0571  0.6401
16755W        W32564  11.240  13.580   2.442 -0.1502  0.0354 -0.0970
16756W        W32565  13.451   2.920  13.715 -0.2527 -0.2339  0.1775
16757W        W32566  11.319   2.264   2.947  0.0857  0.0301  0.0895
16758W        W32567  18.469  15.170   3.862  0.1690 -0.0493 -0.2123
16759W        W32568  18.454  10.975  10.244  0.1434  0.3595  0.2228
16760W        W32569   8.373  10.096  13.760 -0.1375 -0.1177 -0.4935
16761W        W32570   8.912  11.805  10.024  0.3626 -0.0385  0.0605
16762W        W32571  18.277   4.345   3.272  0.2352  0.0283  0.0667
16763W        W32572  16.619  12.651   1.527  0.2832 -0.1167 -0.0331
16764W        W32573   3.506  11.005   2.232 -0.1973  0.1953  0.3839
16765W        W32574   5.178  11.764   0.298 -0.0913  0.1568  0.0848
16766W        W32575  10.073  10.158   0.303  0.3705  0.0594  0.1859
16767W        W32576   5.642  15.501   3.434 -0.0730  0.1671 -0.0889
16768W        W32577   1.693  16.129  15.050 -0.0696 -0.2598  0.0997
16769W        W32578   5.547  16.785   3.960  0.1636 -0.0799 -0.2124
16770W        W32579   5.559   8.432   1.888 -0.1571 -0.3265 -0.0082
16771W        W32580   0.475   1.715  14.665  0.2852  0.2158 -0.3528
16772W        W32581  12.795  12.245   1.711  0.1307  0.2215  0.2060
16773W        W32582  17.182  13.934   4.618 -0.1070 -0.1011 -0.0693
16774W        W32583   4.980  15.649   1.714 -0.1217 -0.0163 -0.3901
16775W        W32584   5.511   7.375  11.651 -0.0430  0.0522 -0.2131
16776W        W32585   7.653   1.563   4.690 -0.3370  0.1489 -0.0721
16777W        W32586  16.821   1.092   0.951 -0.1875 -0.2935 -0.1643
16778W        W32587  10.533   0.656   2.694 -0.4093 -0.0051  0.0623
16779W        W32588  14.420  14.813   2.890 -0.1822  0.0509  0.0492
16780W        W32589   4.254   7.651  10.837  0.3322  0.2322  0.1841
16781W        W32590   0.632  13.382  14.121  0.2227  0.3721  0.3037
16782W        W32591  16.943  17.021   0.667 -0.1161 -0.0397 -0.0155
16783W        W32592   0.996   7.720   0.504  0.2241  0.1659 -0.1403
16784W        W32593  15.392  18.075  14.822 -0.1176 -0.0502 -0.1498
16785W        W32594   5.420  13.830  14.734  0.1395 -0.0965  0.0979
16786W        W32595  18.265   9.030  13.091  0.2995  0.2117 -0.4175
16787W        W32596  11.847  16.638  11.510 -0.1691  0.1263  0.1529
16788W        W32597  14.715   0.647   3.702 -0.1284  0.2101 -0.1109
16789W        W32598  18.815   9.464  14.443 -0.2111  0.1209  0.1034
16790W        W32599   8.408  13.257  15.228  0.0271 -0.0115 -0.1057
16791W        W32600   7.926   8.188   3.662  0.4207  0.3858 -0.1392
16792W        W32601   5.967   8.632   1.150  0.0391  0.0082  0.0499
16793W        W32602  15.996   5.042   0.709 -0.0705  0.1222  0.0063
16794W        W32603  15.858   8.477  11.214 -0.2290 -0.1030  0.3925
16795W        W32604  12.190   0.767  10.467 -0.3018 -0.1572  0.1778
16796W        W32605  12.038  16.111  14.602 -0.3200  0.1165 -0.0564
16797W        W32606   3.106  17.845   4.605 -0.2360 -0.0044 -0.1199
16798W        W32607  12.987   3.685  10.771  0.2738  0.1782  0.0611
16799W        W32608  10.393  17.980  14.904 -0.1802 -0.2180  0.0036
16800W        W32609  14.794   0.513   0.385  0.0746 -0.0066  0.1767
16801W        W32610   4.923   6.664   4.699 -0.1334 -0.2014 -0.1607
16802W        W32611   2.376  14.517  11.359 -0.0633  0.3408 -0.0123
16803W        W32612  14.238  13.337  11.788  0.2043 -0.1551 -0.0446
16804W        W32613   7.206  17.175   1.279 -0.2393  0.0384 -0.0230
16805W        W32614  11.246  17.916  14.129 -0.1640 -0.0569 -0.3765
16806W        W32615   1.245   4.171   4.176  0.3202  0.1316  0.1901
16807W        W32616  10.231  14.348   1.139 -0.0234 -0.0618 -0.2577
16808W        W32617  10.490  12.565   0.732 -0.2098  0.3402  0.0157
16809W        W32618   2.977   5.303  10.479 -0.2584 -0.1178 -0.2614
16810W        W32619   9.467   4.941   3.684  0.5124  0.0715  0.2418
16811W        W32620   7.779   3.980   0.887 -0.0120  0.2117  0.1564
16812W        W32621  14.725   9.127   2.555 -0.1673 -0.2054 -0.2212
16813W        W32622  15.573  16.431  10.710 -0.0154 -0.2373 -0.1255
16814W        W32623   2.537   7.172  10.245  0.2701 -0.0453 -0.0420
16815W        W32624  17.447   3.965   2.540  0.0524  0.2030 -0.2160
16816W        W32625  16.411  17.818   4.788  0.2418  0.0710 -0.1993
16817W        W32626  10.417  12.758  10.617 -0.0646 -0.1253  0.0260
16818W        W32627  17.528   3.575  12.626 -0.1515 -0.4749 -0.0071
16819W        W32628   3.386  17.945  10.620 -0.4650 -0.2096  0.0199
16820W        W32629  12.807   3.261   3.943 -0.2449 -0.4390 -0.3538
16821W        W32630  14.941   3.925  11.020  0.2561 -0.2482 -0.1457
16822W        W32631  13.118   9.022   0.746  0.1561 -0.0273  0.2554
16823W        W32632   2.568  17.769  12.406 -0.1366  0.0124  0.0781
16824W        W32633   2.412   0.437   0.388 -0.0890 -0.1538 -0.4438
16825W        W32634   6.336  13.359  12.926  0.3148 -0.1454  0.0811
16826W        W32635  13.101   8.970   3.006  0.1359  0.2813 -0.1764
16827W        W32636   1.678  18.573   0.500  0.3669  0.1150  0.1103
16828W        W32637  14.675  18.166   5.980 -0.1816  0.1237  0.0482
16829W        W32638   5.937   2.685   0.441 -0.1203 -0.0559  0.1984
16830W        W32639  15.555  16.435   4.132  0.3533  0.1426  0.0845
16831W        W32640  14.702  13.517   3.389 -0.1337 -0.1728 -0.0272
16832W        W32641  13.967  17.675  12.611 -0.0300 -0.1033 -0.0236
16833W        W32642  12.838   1.895   1.299 -0.2337  0.3710 -0.0461
16834W        W32643   6.759  15.037  12.292  0.2592  0.0040  0.0954
16835W        W32644  14.541  15.640  13.893 -0.1880 -0.1691 -0.1289
16836W        W32645   1.719  10.943  10.859 -0.0592 -0.1411  0.1730
16837W        W32646   0.622  16.358  14.185  0.0937 -0.0038 -0.0320
16838W        W32647   2.078   1.266   2.769  0.0769  0.1494 -0.0767
16839W        W32648  14.339  12.115   0.358  0.1490 -0.1521 -0.0184
16840W        W32649  10.605  14.000   0.113  0.3159  0.0080 -0.1150
16841W        W32650   2.077   5.479   1.149 -0.1539  0.4183  0.0227
16842W        W32651  13.480   6.697   0.352  0.1905  0.3594 -0.1043
16843W        W32652   7.735  16.890   0.526  0.0463  0.3223  0.0973
16844W        W32653  18.341   6.602   0.289 -0.0578 -0.1971  0.0303
16845W        W32654   3.842   0.413  12.713 -0.0750 -0.0214  0.0993
16846W        W32655   1.554  14.282  13.215  0.1625 -0.0082 -0.1273
16847W        W32656   3.974   2.765  11.632  0.0265  0.2764 -0.1547
16848W        W32657   3.521   8.464  14.751 -0.0277  0.0252 -0.0770
16849W        W32658   4.175  18.036  14.505 -0.1506  0.1347  0.0521
16850W        W32659   5.026  12.687   2.298 -0.4060  0.0516  0.2084
16851W        W32660  16.723  10.974  14.608  0.2020  0.0534  0.1326
16852W        W32661  17.110   6.758  12.252  0.0783 -0.0989 -0.1273
16853W        W32662   8.934  10.468   4.200 -0.1171  0.1895  0.0774
16854W        W32663  10.713  10.062   1.215  0.1101 -0.3434  0.0051
16855W        W32664  11.923   5.990  11.729 -0.0633 -0.1094  0.3489
16856W        W32665   5.823   5.612  14.680 -0.1620 -0.1246 -0.1204
16857W        W32666  17.846   7.137   5.621 -0.0121  0.3015 -0.0169
16858W        W32667  14.734  16.460   2.041  0.1530  0.0915  0.0406
16859W        W32668   2.357   0.693  10.670 -0.2997  0.4905  0.3650
16860W        W32669   3.075   8.741  10.968 -0.2730 -0.1540  0.0873
16861W        W32670  10.251   2.226  12.840 -0.0962 -0.1298  0.3359
16862W        W32671  14.221  12.480  14.809  0.0857  0.1590  0.1050
16863W        W32672   2.486   3.166   0.819  0.2868 -0.1999 -0.0216
16864W        W32673   3.798   4.255   5.681 -0.0453 -0.0826 -0.0797
16865W        W32674   2.782   7.045  14.687  0.1031 -0.1914  0.1077
16866W        W32675   0.209  13.447   5.667  0.2033  0.0458  0.1229
16867W        W32676  13.264   3.399  10.393 -0.0461  0.0691 -0.1524
16868W        W32677   4.023  18.523  14.082  0.2307 -0.1399 -0.0860
16869W        W32678  15.890   3.112  10.221  0.1001 -0.1400  0.1177
16870W        W32679   1.568  15.738   3.189 -0.2491  0.1153 -0.0263
16871W        W32680   6.512   3.862  11.771  0.0393  0.1419 -0.1663
16872W        W32681  15.410  15.863   2.538  0.1095  0.0715 -0.0026
16873W        W32682   5.480  13.415  11.652 -0.1877 -0.2017  0.0655
16874W        W32683   6.255   3.344   9.953  0.1860 -0.0851 -0.2303
16875W        W32684  17.240  15.933  14.929 -0.1358 -0.2163  0.1184
16876W        W32685   4.529   1.798  14.497 -0.1123 -0.2919 -0.3691
16877W        W32686   8.952  17.761  12.836  0.5212  0.0387 -0.0095
16878W        W32687  11.645   9.108   4.022 -0.1089  0.1484  0.1368
16879W        W32688  10.608   2.623   2.368 -0.0224 -0.0105 -0.1182
16880W        W32689   2.470  11.193   3.462  0.3210 -0.1595  0.0748
16881W        W32690  18.511   7.426   2.228 -0.3488  0.1811 -0.1543
16882W        W32691   1.882   3.160   9.728  0.0300  0.1954 -0.2980
16883W        W32692  14.563  17.565   5.243  0.1322 -0.0772 -0.1089
16884W        W32693   7.614   9.459  14.158  0.3688  0.2449 -0.1653
16885W        W32694  15.076   9.979   0.673  0.1764  0.0344  0.3165
16886W        W32695   2.958  17.114   3.284  0.4166  0.2774  0.2040
16887W        W32696   7.098   2.224  11.435  0.1381  0.1102  0.2369
16888W        W32697  10.663   7.635  13.245  0.0411  0.0251  0.0486
16889W        W32698   4.250   9.273   2.179  0.2883  0.1774  0.6321
16890W        W32699  14.646  12.666  13.744 -0.2500  0.0136  0.1168
16891W        W32700  11.118   4.336   2.878  0.0311  0.1297 -0.2317
16892W        W32701   7.112  16.282   4.716  0.2383  0.1758  0.4311
16893W        W32702   2.862   0.463  12.018  0.6104 -0.2667 -0.1447
16894W        W32703  15.362   5.488   4.590 -0.0752 -0.0045 -0.0204
16895W        W32704   0.234  18.143  13.355  0.0288 -0.3013  0.2690
16896W        W32705   8.265  10.169  10.594  0.1248  0.1900 -0.2130
16897W        W32706  11.362  11.563   3.246  0.0173  0.1626 -0.2887
16898W        W32707  10.577  12.168  14.397 -0.0636 -0.3539  0.2313
16899W        W32708  11.761  18.481   0.458 -0.2924  0.1664  0.0046
16900W        W32709   6.790   5.748   1.559  0.0437 -0.0649 -0.1248
16901W        W32710   0.569  12.123   1.170  0.2389 -0.0526 -0.5746
16902W        W32711   2.427  13.321  13.671  0.2367 -0.2507  0.0691
16903W        W32712  17.641  18.358   0.760 -0.2005  0.0305 -0.0512
16904W        W32713   6.835  17.744   2.796 -0.3420  0.0440  0.2543
16905W        W32714   9.253   8.070  13.586 -0.0021  0.0255 -0.1220
16906W        W32715   1.785  11.713  14.769 -0.1947  0.4279 -0.1959
16907W        W32716   3.699   6.408  11.762  0.5102  0.2569 -0.2265
16908W        W32717   2.981  11.856   2.200 -0.0308  0.0097  0.4524
16909W        W32718   3.278  14.581  14.295  0.0492  0.0001 -0.2463
16910W        W32719  10.086   8.741  12.015 -0.0116 -0.1632  0.1426
16911W        W32720  12.016   5.594   1.666  0.0321 -0.0806 -0.1375
16912W        W32721  14.092  15.034   0.454 -0.3569 -0.0565 -0.0531
16913W        W32722   7.863   2.959   3.426  0.0558  0.3483  0.5011
16914W        W32723   5.534   1.022   1.713  0.0360 -0.1282  0.1394
16915W        W32724  11.724  15.263   5.136  0.0586 -0.0985  0.0841
16916W        W32725  13.425   9.904   3.315 -0.1028  0.2139 -0.0176
16917W        W32726   2.704   6.905  15.146  0.0211 -0.0303 -0.1795
16918W        W32727   2.289   3.843   0.333 -0.0438  0.2617 -0.1585
16919W        W32728   3.460   0.256   0.591  0.1294 -0.5450  0.3493
16920W        W32729  16.311   8.747   2.050  0.3041 -0.2022  0.1207
16921W        W32730  11.499   9.157   1.188  0.1381 -0.2011 -0.2646
16922W        W32731  18.477   2.568   4.832 -0.0528 -0.1600  0.0705
16923W        W32732   6.569  12.721   9.907  0.0869 -0.2386  0.4753
16924W        W32733   0.917   9.221   1.709 -0.0025  0.1718  0.2248
16925W        W32734   7.592   6.195   2.811 -0.3206  0.1112 -0.0638
16926W        W32735   6.857  16.934  14.402 -0.1156 -0.0451  0.2203
16927W        W32736   8.160  13.350  10.558  0.0895 -0.2088  0.0286
16928W        W32737   4.373   8.874   9.968  0.0228  0.2654 -0.1778
16929W        W32738  11.370   5.610  10.589 -0.0869 -0.2711  0.0961
16930W        W32739  12.898   4.071  12.749  0.2113  0.1198  0.0170
16931W        W32740  17.490   7.336  12.630  0.2104  0.2553  0.1630
16932W        W32741   0.620  10.076  14.375  0.2008 -0.0311 -0.0549
16933W        W32742   8.614   5.975  11.719  0.0148  0.0489 -0.2608
16934W        W32743  14.505   0.230   4.291  0.0169 -0.2287 -0.1890
16935W        W32744   8.868   4.272   3.189 -0.0341  0.1860 -0.0772
16936W        W32745   3.972   2.044  12.045  0.2692  0.0475 -0.1446
16937W        W32746  13.477  16.516   1.269 -0.4286  0.2168  0.1800
16938W        W32747   4.074  15.845  10.234  0.1435 -0.1861  0.1356
16939W        W32748   3.083   0.890   3.428 -0.0080  0.3212  0.0619
16940W        W32749  15.782  13.229   0.242  0.1393  0.0950 -0.0596
16941W        W32750   7.571  16.454  14.038  0.2841  0.1292  0.0139
16942W        W32751  13.427  16.215  10.822 -0.3014 -0.2133 -0.0963
16943W        W32752  10.784  15.493   0.750 -0.1954  0.1098 -0.0671
16944W        W32753   1.925   2.783   4.529  0.0805 -0.2684 -0.0161
16945W        W32754   1.645  16.200  11.735 -0.2532  0.3337 -0.0607
16946W        W32755  11.525  16.359   4.283  0.1020  0.0617 -0.1883
16947W        W32756  10.483  14.842   4.118 -0.0235  0.0292 -0.0817
16948W        W32757   1.856   4.804   0.143 -0.1434  0.0011  0.1921
16949W        W32758   7.783   8.821   5.506  0.0234 -0.3053 -0.3003
16950W        W32759   8.697  17.001  15.064  0.1848 -0.1376 -0.0239
16951W        W32760   3.794   2.896  14.342 -0.4648 -0.0192 -0.1739
16952W        W32761   2.790  11.374   0.557  0.1078  0.0544  0.2789
16953W        W32762  10.101   7.129  14.923  0.2923  0.2737 -0.0094
16954W        W32763  13.280   2.712   2.436 -0.0092  0.3607  0.3774
16955W        W32764  14.624   5.912  14.345 -0.3465  0.0060 -0.1132
16956W        W32765   4.230   6.344  13.147 -0.0739  0.0913  0.1873
16957W        W32766  17.777   5.176   9.596  0.1321 -0.0392  0.1531
16958W        W32767  17.053  13.611  10.960 -0.0415 -0.1036  0.4190
16959W        W32768   3.745  11.677   5.433  0.0018  0.0717 -0.2692
16960W        W32769   6.563  18.305  13.997 -0.2245 -0.1179 -0.1183
16961W        W32770  14.555  14.147   2.230 -0.0669 -0.1225 -0.3165
16962W        W32771   4.477   2.946   0.283 -0.0630  0.1539  0.1677
16963W        W32772  13.832   4.435   9.571 -0.0270 -0.0605  0.2022
16964W        W32773  11.422  17.529   4.137 -0.0412 -0.1317  0.1503
16965W        W32774  10.396   7.169   2.406  0.0080 -0.2945 -0.0498
16966W        W32775   0.483   7.587  12.093 -0.2098  0.0877  0.1721
16967W        W32776   3.467  15.586   2.288 -0.2599  0.1075 -0.1051
16968W        W32777  11.275  16.264   4.899 -0.1224 -0.3037 -0.2201
16969W        W32778   7.821   7.212   3.128 -0.0846  0.0831  0.2972
16970W        W32779   6.391   5.212  14.114  0.2978 -0.1412 -0.2378
16971W        W32780   6.812  17.333  11.448  0.0426  0.0832  0.0938
16972W        W32781   7.617   6.857  15.150  0.0513  0.3478 -0.1511
16973W        W32782   8.441   9.916   3.783 -0.1021 -0.0212 -0.0422
16974W        W32783  14.327   1.016   4.291  0.0658 -0.0426  0.2999
16975W        W32784   3.390  15.906  10.348  0.0517  0.1197  0.1061
16976W        W32785   7.527   9.195  13.301 -0.0662  0.0283 -0.2142
16977W        W32786  17.218  11.831   1.865 -0.2182 -0.1085 -0.2260
16978W        W32787  13.000   7.075   0.847  0.2623 -0.0668  0.3268
16979W        W32788  13.804   9.091   2.078 -0.3840 -0.0870  0.2035
16980W        W32789   0.668  13.563  11.245 -0.0559 -0.0605 -0.1255
16981W        W32790  13.467   1.200   3.406 -0.2324 -0.2489 -0.2101
16982W        W32791  12.946   8.577   1.022  0.1200 -0.2512  0.1646
16983W        W32792   3.438   9.828   2.032  0.1796 -0.0705  0.1577
16984W        W32793   0.266   0.320  15.187 -0.1024  0.0680 -0.3162
16985W        W32794   7.871  12.914   5.831  0.0667  0.1710 -0.1614
16986W        W32795   9.895  19.047   5.707  0.2349  0.1632 -0.0159
16987W        W32796  14.978   0.170   4.984 -0.0884  0.3788 -0.0268
16988W        W32797   1.368  12.090   9.888  0.2282  0.1809  0.0895
16989W        W32798   2.160  18.478  13.618  0.0064  0.1126  0.0217
16990W        W32799  13.781   8.360   5.058  0.0534 -0.3848  0.3622
16991W        W32800   9.354   9.350   4.191 -0.0645  0.0011  0.3331
16992W        W32801  10.602  13.523   2.887 -0.1419 -0.1507 -0.0504
16993W        W32802  13.219  13.845   4.783 -0.1594 -0.2308 -0.0398
16994W        W32803  14.549   7.080   2.682  0.1206 -0.2492  0.0296
16995W        W32804  10.701   9.724  12.554 -0.0603 -0.2503  0.2360
16996W        W32805   8.104  13.328   3.332  0.0112 -0.1585 -0.3123
16997W        W32806  17.305  14.674  11.532 -0.2008  0.0184 -0.0769
16998W        W32807   3.233   2.886  10.170  0.2711  0.0766  0.1611
16999W        W32808   7.740   4.416   3.469  0.2032 -0.1895  0.3417
17000W        W32809   2.470   1.695  12.010 -0.0495  0.1630  0.1227
17001W        W32810  12.715  12.100   0.676 -0.3161 -0.1942 -0.1200
17002W        W32811   3.123   4.668  15.179 -0.1379  0.1000 -0.1079
17003W        W32812   4.239  10.920   1.431 -0.0320  0.0628  0.0337
17004W        W32813  13.247   0.475  13.020 -0.0811 -0.0305 -0.0225
17005W        W32814   0.284   5.816   3.572  0.1291  0.3475 -0.0446
17006W        W32815  12.855   5.761  10.828  0.0693 -0.1716  0.3282
17007W        W32816  14.921   4.360   2.356  0.3622 -0.3111  0.0684
17008W        W32817   3.698   4.738  14.734 -0.0865 -0.0977  0.0347
17009W        W32818   7.350   8.794   0.958  0.1084 -0.3203 -0.2640
17010W        W32819  17.127   4.057  11.224 -0.0804  0.1815  0.1507
17011W        W32820  18.747  10.050   6.254  0.0905 -0.1804  0.1549
17012W        W32821  12.822  13.974  14.317  0.2119 -0.1235 -0.1779
17013W        W32822   2.528   8.666   3.864  0.0875 -0.0537  0.1424
17014W        W32823  11.717   7.668  10.128  0.1430  0.0366  0.1231
17015W        W32824  14.414   8.266   1.498  0.1313  0.4443  0.0576
17016W        W32825  13.245  19.084   2.650 -0.0175  0.1257 -0.2200
17017W        W32826  17.400   0.379   2.663  0.0109  0.2617 -0.3048
17018W        W32827  11.732  12.033   0.541 -0.2069  0.1703 -0.5477
17019W        W32828   1.184   6.659   0.560 -0.3992  0.2389 -0.1556
17020W        W32829   6.934   6.454  13.781 -0.1130  0.1600 -0.0273
17021W        W32830  18.696   7.805   4.582  0.1565 -0.0519 -0.6564
17022W        W32831   7.082   5.013   2.414 -0.0867 -0.2171 -0.0222
17023W        W32832  13.550   3.041  11.128  0.0884  0.0172 -0.0176
17024W        W32833  12.575  12.385   1.027  0.1046  0.2847  0.0628
17025W        W32834   9.930  14.867   0.131 -0.2757 -0.1218  0.1207
17026W        W32835   6.464  12.099  14.858 -0.0871  0.3095  0.3171
17027W        W32836  12.871  16.553  10.797 -0.2212  0.0961  0.1733
17028W        W32837  18.726  15.901   3.659 -0.3934  0.2555  0.2486
17029W        W32838   0.293  14.321  15.149 -0.2415 -0.1139 -0.5059
17030W        W32839   4.062  13.092   4.762 -0.0330 -0.1869  0.1330
17031W        W32840  13.486   8.505  14.499  0.0125  0.4211 -0.1155
17032W        W32841   0.006   9.855   5.370 -0.0191 -0.0151  0.1858
17033W        W32842   8.703   6.090   2.079 -0.2007  0.1277 -0.2918
17034W        W32843  18.178   6.219  15.200  0.1302  0.0178 -0.0060
17035W        W32844  18.357   1.541   5.411  0.1596 -0.3356 -0.2915
17036W        W32845   7.909   3.441  10.381 -0.3480  0.2804  0.1123
17037W        W32846   0.606   4.086   2.851  0.1247  0.1318 -0.1581
17038W        W32847   4.256  17.917  13.339 -0.1895  0.5363 -0.3160
17039W        W32848  16.124  19.046  13.574 -0.2564 -0.1515  0.3527
17040W        W32849  10.414  14.912  12.862  0.1280  0.2529  0.0967
17041W        W32850  18.035  16.367   2.589  0.2082  0.0003  0.1128
17042W        W32851  12.210  12.854   1.004 -0.2400  0.0088  0.2733
17043W        W32852  13.016   2.095  10.610  0.1544 -0.3141  0.1549
17044W        W32853   7.846   3.948  13.183  0.2382  0.0046 -0.1256
17045W        W32854   0.826   5.738  11.475  0.0446  0.0575 -0.2245
17046W        W32855   0.823   7.770   5.899 -0.0366  0.0335 -0.1183
17047W        W32856   6.014  14.929   0.289 -0.5097  0.3114  0.1648
17048W        W32857   5.656  11.252   0.834  0.1425 -0.2680 -0.0696
17049W        W32858   1.143   8.415   0.698 -0.1972 -0.2577  0.1266
17050W        W32859  17.900  13.142   3.519 -0.0802 -0.0586 -0.1837
17051W        W32860  12.885  11.543   2.345  0.0396 -0.1063  0.1593
17052W        W32861   9.075   7.567   1.440  0.4301 -0.3732 -0.3426
17053W        W32862   8.858  10.711  13.272  0.1377  0.0096 -0.3715
17054W        W32863   0.396   7.579   1.653 -0.0221  0.2136 -0.0740
17055W        W32864  17.998   4.863   3.732 -0.0827  0.1501  0.0221
17056W        W32865  16.900   4.680  15.097  0.1756 -0.0626  0.1714
17057W        W32866   5.129   9.594   3.394  0.0020  0.4420  0.0010
17058W        W32867   1.560   2.766   3.569  0.1610 -0.1221  0.1398
17059W        W32868  17.672   9.974  13.389 -0.3946  0.0222 -0.2063
17060W        W32869  12.373  13.482   2.684  0.2763  0.2438 -0.0710
17061W        W32870   7.499  11.969  12.257  0.2552  0.1725 -0.1657
17062W        W32871   8.305   2.604   0.436  0.0756 -0.1653  0.0547
17063W        W32872   9.535   7.141   2.553 -0.1657 -0.1373  0.3642
17064W        W32873  16.319   0.212   2.032  0.0144  0.1350  0.4397
17065W        W32874  11.437  13.100  12.499  0.0512 -0.1795 -0.3583
17066W        W32875   8.115  16.809   0.821 -0.3032 -0.0782 -0.1482
17067W        W32876   9.558   4.785   5.175  0.0005  0.0734 -0.1504
17068W        W32877   0.683   6.493   2.691 -0.0833  0.0107  0.1516
17069W        W32878   4.871   3.716   2.315 -0.2243 -0.3433 -0.0010
17070W        W32879   0.241  16.358   0.679  0.1478 -0.0327 -0.0143
17071W        W32880   9.737  10.043  14.090 -0.1009  0.0067  0.1952
17072W        W32881  16.412   5.060   4.928  0.4355  0.0400 -0.1371
17073W        W32882  11.874   3.437   0.164  0.2941  0.2513  0.3773
17074W        W32883   6.076   4.049   3.022 -0.2113  0.0225 -0.0829
17075W        W32884  13.991   9.539  15.113 -0.0010 -0.0433  0.3940
17076W        W32885   9.832   7.316   4.897  0.0511  0.1233  0.1643
17077W        W32886   9.007  10.943   1.377  0.0896 -0.0454 -0.3997
17078W        W32887   6.042   5.836  15.086 -0.1196  0.0736  0.1472
17079W        W32888  12.733   7.759  14.688  0.2416  0.2363 -0.0053
17080W        W32889  14.731   2.058  12.211 -0.1749 -0.2156 -0.4286
17081W        W32890  10.929  18.673  11.798  0.0362  0.1525 -0.1919
17082W        W32891   5.117   8.202  14.772 -0.0871  0.1604  0.1730
17083W        W32892   2.324   7.156   1.187  0.0530 -0.1562  0.1248
17084W        W32893   6.891  14.929   4.994 -0.0126  0.4924  0.0285
17085W        W32894  10.732   3.950   0.652 -0.2489 -0.1719 -0.3267
17086W        W32895  14.811   9.454  14.156 -0.1767 -0.1242  0.2293
17087W        W32896  16.349   7.388  12.000 -0.0197 -0.2191  0.0309
17088W        W32897   6.076   8.248  11.490 -0.1404  0.0097 -0.0801
17089W        W32898   6.845   7.539  14.309 -0.3852  0.2486  0.1835
17090W        W32899  12.908  11.096   2.857 -0.2119  0.1889 -0.1620
17091W        W32900  12.075   9.666   5.224  0.2050  0.1270  0.1690
17092W        W32901  13.756   7.870  10.245 -0.0542 -0.2900 -0.2733
17093W        W32902  18.920   9.215   1.164  0.0027 -0.2149  0.1729
17094W        W32903  14.874   4.415   4.509  0.3071  0.3070 -0.1197
17095W        W32904  13.176  11.254   6.001  0.2745 -0.1053  0.1530
17096W        W32905  12.585  10.867   3.498 -0.0336 -0.2027 -0.1788
17097W        W32906   7.102  15.611   2.810  0.0490  0.0302 -0.2714
17098W        W32907  11.689   7.925   0.387  0.0315 -0.3040 -0.1242
17099W        W32908   8.043   6.496   2.570  0.2035 -0.0103 -0.2545
17100W        W32909   6.124  16.655   2.977 -0.1683  0.3359 -0.1875
17101W        W32910  12.438   1.298  11.833  0.2030  0.0929  0.2873
17102W        W32911  15.108  10.205  11.663 -0.1481 -0.0628 -0.0666
17103W        W32912   0.599   1.686  12.673  0.1834  0.4318 -0.2207
17104W        W32913   4.459   6.807  13.109  0.2664 -0.0961 -0.0051
17105W        W32914   6.130   2.531  15.010 -0.0636 -0.0429 -0.1450
17106W        W32915  15.250   4.113   0.137 -0.2712 -0.0702  0.2093
17107W        W32916   0.578   5.547  10.629  0.2522  0.0079  0.0549
17108W        W32917  14.397   7.345   1.164 -0.0771  0.0237  0.3124
17109W        W32918   1.288   5.511  11.754  0.2364  0.2145 -0.0502
17110W        W32919  14.972   0.960  13.421  0.3324 -0.1757  0.0733
17111W        W32920   0.250   2.782   0.504 -0.3772  0.1080 -0.1466
17112W        W32921   2.232  14.729  11.792  0.2175  0.0379  0.1271
17113W        W32922   2.875   9.527   4.071  0.3048  0.0750 -0.0169
17114W        W32923  17.163   4.185   5.600 -0.2275  0.1793  0.0683
17115W        W32924  16.320   6.583   9.776  0.0923 -0.0051 -0.1114
17116W        W32925  13.867  19.020   1.968  0.1492 -0.2190 -0.2088
17117W        W32926  11.071  16.819   1.426 -0.0856 -0.2702  0.1556
17118W        W32927  16.965   0.139  13.890 -0.0575  0.0768  0.0978
17119W        W32928   7.456  11.454  12.372 -0.1350 -0.1177 -0.3534
17120W        W32929   3.200  18.525   2.144 -0.2453  0.1286 -0.2171
17121W        W32930   5.899   5.367  15.119  0.2758 -0.0984  0.1441
17122W        W32931   1.242   3.578  11.068 -0.0069 -0.3311  0.1778
17123W        W32932   5.358  11.020   3.633  0.4746  0.2501 -0.2500
17124W        W32933   2.303   6.832  13.833  0.0738  0.2331 -0.0771
17125W        W32934  13.847  18.676  11.690 -0.0785  0.0511 -0.0538
17126W        W32935   6.858  16.127  10.177 -0.0106 -0.2979 -0.1671
17127W        W32936   8.563  12.423  12.261  0.1555 -0.2361  0.1816
17128W        W32937   9.609   1.528  13.617  0.2296 -0.0249  0.1540
17129W        W32938  17.764  13.090   0.150  0.1331 -0.0347 -0.1066
17130W        W32939  18.589  18.207   2.041 -0.1359 -0.0888  0.2241
17131W        W32940  17.064   1.249  10.958  0.1319 -0.2374 -0.2787
17132W        W32941   6.002   1.870  10.801  0.1148  0.0247 -0.2150
17133W        W32942  16.371  17.910  14.305  0.0836  0.1866 -0.2510
17134W        W32943  15.427  10.054  12.676 -0.1550  0.1068  0.2029
17135W        W32944  16.712  18.430   1.342 -0.0936 -0.0007  0.1953
17136W        W32945  16.787   8.325  13.376  0.1487 -0.0876 -0.0888
17137W        W32946   4.858  15.910  13.949  0.0093  0.0408 -0.0468
17138W        W32947   5.953  12.929   9.951  0.2136  0.0840  0.3138
17139W        W32948   3.136   2.345  14.450 -0.1890 -0.1027  0.2251
17140W        W32949   8.955   0.524  14.336  0.0150  0.4171  0.2058
17141W        W32950   4.050  16.473  12.264  0.0639 -0.0754  0.0903
17142W        W32951   5.589  14.960   1.259  0.3855  0.0855  0.1127
17143W        W32952   2.741   5.078  14.179  0.2228 -0.2379 -0.0128
17144W        W32953   4.887   6.248  14.624  0.0276  0.0643 -0.0491
17145W        W32954  13.728  11.782  11.072  0.3942  0.0729  0.0262
17146W        W32955  15.114   1.497   4.709 -0.2940  0.1255  0.3567
17147W        W32956  16.527  18.527   4.264  0.2738  0.2050 -0.2522
17148W        W32957  16.102  15.160   1.243 -0.1267  0.3836 -0.0936
17149W        W32958  11.430  12.520   3.516 -0.0932  0.0783 -0.0924
17150W        W32959  12.244  10.130  12.958  0.2478  0.1169 -0.0319
17151W        W32960  17.542  17.729  14.490 -0.1263  0.0780  0.0023
17152W        W32961   4.274   3.091  14.334  0.2308  0.0756 -0.1586
17153W        W32962  15.557   1.593  12.067 -0.0160  0.0717  0.1339
17154W        W32963   0.511   2.331  14.552  0.0248 -0.1567  0.1369
17155W        W32964   6.201   3.849  12.632  0.2065 -0.2124  0.0527
17156W        W32965   1.264   7.398  10.620  0.2540  0.1029  0.0491
17157W        W32966  17.174  10.695   2.665 -0.0578 -0.3224 -0.1360
17158W        W32967   9.659  12.496   0.037  0.0179 -0.0793 -0.3245
17159W        W32968   7.031  18.608  14.934  0.4478 -0.2966 -0.1587
17160W        W32969  14.111   0.682  14.007  0.0196 -0.0870  0.2554
17161W        W32970   8.086  10.325   9.002  0.2941 -0.0113  0.1568
17162W        W32971  11.807  16.218   0.483  0.0702  0.0149  0.1197
17163W        W32972  11.763  15.886   0.146 -0.0985  0.0173  0.1884
17164W        W32973   6.746   9.102   3.276 -0.1966 -0.1497 -0.3738
17165W        W32974   0.349   3.017   5.061 -0.0309 -0.1429 -0.0391
17166W        W32975  18.990   7.935   0.034 -0.0364  0.2660  0.1256
17167W        W32976   3.317  15.737  11.324  0.3647 -0.1531  0.0999
17168W        W32977  15.244   2.151   4.719 -0.3449  0.3552 -0.0126
17169W        W32978  16.114   8.087   0.548  0.0368  0.0308 -0.3220
17170W        W32979  14.449   0.072   3.351 -0.1697 -0.1083 -0.3155
17171W        W32980  11.769   3.888   3.476 -0.1239  0.2052  0.3714
17172W        W32981  13.046   1.161   5.306 -0.0561 -0.0360  0.0860
17173W        W32982  11.832   3.397  11.790 -0.0627 -0.1457 -0.3979
17174W        W32983   7.548   1.368  14.467  0.3243  0.2798  0.1909
17175W        W32984   8.836   5.328  10.939 -0.3439  0.0030 -0.0640
17176W        W32985   6.400   0.568  14.028  0.4754 -0.0751  0.1817
17177W        W32986  12.693   8.051  10.353 -0.0311 -0.0145 -0.2678
17178W        W32987  10.757   8.211   2.869 -0.1827  0.0205  0.2886
17179W        W32988   8.294  12.604  14.107  0.2978  0.0699 -0.1251
17180W        W32989   2.484   8.281  12.209  0.2299  0.0934 -0.1809
17181W        W32990   3.779  16.167   3.216 -0.1205 -0.2630  0.0202
17182W        W32991   0.180  13.789  12.344 -0.2196 -0.1668  0.1693
17183W        W32992   8.078  18.059  11.037  0.0105  0.0389  0.1051
17184W        W32993  14.202  14.538  11.639 -0.1616  0.1476 -0.3456
17185W        W32994   0.925  15.211   0.693 -0.3169  0.3000  0.1685
17186W        W32995   5.746  14.217  11.973 -0.0637  0.0638  0.2415
17187W        W32996   2.037  13.820   4.856  0.2775 -0.1917  0.1729
17188W        W32997  16.393  11.768   1.936 -0.2173 -0.1911 -0.2500
17189W        W32998   3.291  10.328  12.898  0.1581  0.0273 -0.0131
17190W        W32999   5.884  11.764  11.666  0.1431 -0.1026 -0.1336
17191W        W33000   7.508   9.244   3.623 -0.2196 -0.0211  0.0557
17192W        W33001   5.559  11.529  13.928 -0.1628 -0.1819  0.1422
17193W        W33002  13.899  10.618  12.795 -0.0393 -0.1082 -0.0995
17194W        W33003  13.246  15.530   1.045 -0.0105 -0.2864  0.3459
17195W        W33004   8.380  15.068   0.427  0.2187 -0.2112 -0.2477
17196W        W33005  17.630   8.097   1.713 -0.5869 -0.2413 -0.2128
17197W        W33006  14.165  17.253  13.082  0.0603 -0.2063  0.0769
17198W        W33007   7.256   7.783   4.885  0.0977 -0.0263 -0.0258
17199W        W33008  16.371   6.405   3.665  0.2994 -0.0877  0.2257
17200W        W33009  15.988   6.399  10.224  0.4102 -0.1903 -0.0703
17201W        W33010  10.920   8.976   0.385 -0.2748  0.0861 -0.1104
17202W        W33011  15.204  17.381   4.067  0.0637 -0.1136 -0.1430
17203W        W33012   2.866   2.028  10.725 -0.1356 -0.0926  0.0272
17204W        W33013   7.526   3.771   2.776 -0.2883  0.0915  0.4140
17205W        W33014   6.560  17.339  11.844 -0.0572 -0.0413 -0.4514
17206W        W33015   4.662   7.940  10.569  0.1577 -0.2397 -0.2766
17207W        W33016  13.132  14.888   5.664  0.0903  0.0376 -0.1160
17208W        W33017  13.623   9.613   9.809 -0.1095  0.1008 -0.0495
17209W        W33018   2.578   5.152  12.006 -0.1332  0.3698  0.0761
17210W        W33019   3.455  10.866  14.536 -0.2660  0.2590 -0.2805
17211W        W33020  17.538  16.275  10.029  0.0063 -0.3233 -0.1059
17212W        W33021   9.552  12.737   4.270  0.0462 -0.1702 -0.1188
17213W        W33022  10.986  13.567  14.304 -0.0717 -0.2537  0.0314
17214W        W33023  10.705   9.409  14.869 -0.0137  0.1608  0.0007
17215W        W33024  12.932   4.986  13.698  0.0587  0.2582  0.2774
17216W        W33025  10.198   7.445   2.773 -0.0445 -0.1354  0.2556
17217W        W33026  14.272   0.328   1.291  0.3345  0.1128  0.0758
17218W        W33027   1.789   6.489  13.637 -0.0003  0.1105 -0.2040
17219W        W33028  16.300   0.683  12.074  0.3814 -0.1798 -0.1328
17220W        W33029   1.987  13.343  13.909  0.0587  0.0943  0.2969
17221W        W33030   8.178  18.828   3.956  0.0171  0.1983  0.1371
17222W        W33031   1.280   2.296  11.713  0.3707  0.0292  0.2097
17223W        W33032   0.171   9.181   3.884  0.0380  0.1692 -0.2364
17224W        W33033  11.204   3.372  10.125  0.0063  0.1186  0.2955
17225W        W33034   6.484  16.301   3.325 -0.2816  0.1625  0.2808
17226W        W33035   8.984   1.065  13.102 -0.0280 -0.1751 -0.1361
17227W        W33036   5.996   8.887   0.310 -0.3367 -0.1411  0.2033
17228W        W33037   7.348  12.075   0.280  0.0261  0.0250 -0.1273
17229W        W33038  16.546  17.422  14.448 -0.0267  0.1489 -0.1398
17230W        W33039  10.011  15.831   4.541 -0.0662 -0.1998  0.1078
17231W        W33040   0.969   5.896   0.033  0.1198 -0.1018  0.1194
17232W        W33041   1.332   9.553   0.639 -0.5048  0.0416  0.2129
17233W        W33042  15.948   4.209   5.380  0.2987  0.2995  0.1288
17234W        W33043  17.363   1.568   4.057 -0.0648 -0.0567  0.1540
17235W        W33044  11.747   9.790  11.557  0.1692  0.0669  0.0969
17236W        W33045  18.761   1.693   2.590 -0.0098 -0.0306  0.2133
17237W        W33046   5.624   9.591   3.453 -0.0654 -0.0036 -0.2023
17238W        W33047   4.240  13.288  11.102 -0.0854 -0.0508  0.1110
17239W        W33048  16.366   4.388   0.581 -0.0553  0.0182  0.0947
17240W        W33049  10.378   7.610   2.196 -0.0152 -0.1273  0.1214
17241W        W33050   2.775   1.275  13.079 -0.1581  0.0984 -0.0916
17242W        W33051   5.721   8.770   9.954 -0.1135  0.2078 -0.0529
17243W        W33052   1.099  11.021  11.334  0.0112 -0.0779  0.1197
17244W        W33053  12.611   6.923   0.007  0.0462 -0.0027  0.2176
17245W        W33054   1.214  11.567   0.800 -0.3592 -0.3710  0.0195
17246W        W33055  17.675  12.169  11.454  0.3471  0.0083  0.0636
17247W        W33056   9.021   8.030  11.246 -0.1075 -0.4152  0.1141
17248W        W33057   0.943  15.920   4.333 -0.3146 -0.1484 -0.1069
17249W        W33058  15.788  12.648  13.005  0.1097  0.1025  0.1451
17250W        W33059   7.256  11.110  12.778  0.1195 -0.0316 -0.1024
17251W        W33060   4.487   9.811   4.711 -0.0226  0.0178  0.0459
17252W        W33061   7.834  12.154  10.955  0.0021  0.5263 -0.0178
17253W        W33062   5.098  18.611  10.590 -0.1864 -0.2506 -0.0437
17254W        W33063  10.954  15.288   1.226  0.1552 -0.1274 -0.0153
17255W        W33064  11.136   1.508  12.291 -0.1839  0.0374 -0.0140
17256W        W33065  18.679   3.048  13.745 -0.1938  0.0560 -0.3624
17257W        W33066  13.033  15.118   4.866  0.3873 -0.0010  0.1470
17258W        W33067   6.711  13.332   4.040  0.0050  0.2662  0.0749
17259W        W33068  18.989  15.177   1.521  0.0893 -0.4393  0.3358
17260W        W33069   8.528  10.567  13.625  0.0552  0.1483 -0.3529
17261W        W33070  12.957  18.213   2.748 -0.0944  0.5275 -0.0729
17262W        W33071  14.073  16.564  14.009 -0.3131 -0.0966 -0.0182
17263W        W33072  11.221   8.514   4.330 -0.0964  0.3310  0.3152
17264W        W33073  14.973  15.840   2.969  0.0324 -0.2590  0.0562
17265W        W33074  18.497   4.866   1.282 -0.1242  0.4140 -0.1370
17266W        W33075   0.218  13.800  15.074 -0.4197  0.4019 -0.0362
17267W        W33076   2.442  15.722  13.425  0.1238 -0.1225  0.1279
17268W        W33077  17.085   4.262  14.876  0.0557  0.1617  0.0878
17269W        W33078  17.227   2.348   0.862 -0.1023 -0.2182 -0.1063
17270W        W33079   4.310   5.923   4.621  0.1849 -0.2156 -0.2323
17271W        W33080  18.634  17.078  13.563 -0.4128  0.1418 -0.1450
17272W        W33081  16.860   7.052  14.339  0.0614 -0.0356 -0.2732
17273W        W33082   6.502  10.851   5.147  0.2351  0.1074 -0.0755
17274W        W33083  12.181  10.868  11.043  0.2398 -0.2984  0.1623
17275W        W33084  13.074   7.993  11.839 -0.2304  0.0457  0.0447
17276W        W33085  17.777  13.530   2.974  0.0266 -0.2640 -0.1052
17277W        W33086  13.899  15.552   1.446 -0.3832 -0.0493  0.1833
17278W        W33087   5.464  13.956   3.958 -0.1292 -0.1361 -0.2179
17279W        W33088   0.900   7.624   1.449 -0.0720  0.1536  0.0026
17280W        W33089  16.147  17.817   2.094  0.3824 -0.2796  0.0572
17281W        W33090   6.389  10.738  12.602  0.2624 -0.1784 -0.0804
17282W        W33091  17.727  17.941  14.930  0.1642  0.1207 -0.1663
17283W        W33092   9.901  17.478   2.322 -0.3095  0.2593  0.0176
17284W        W33093  17.158  14.201   0.528  0.1707  0.0498  0.4874
17285W        W33094  18.307  10.681   4.829 -0.2975 -0.0198  0.1465
17286W        W33095  13.455   8.935   4.531  0.1977 -0.2772 -0.1425
17287W        W33096   1.115   3.227  14.740  0.1272 -0.1737  0.0900
17288W        W33097  16.915   3.538   1.519  0.3202 -0.3130  0.3143
17289W        W33098   3.084  15.017  13.329 -0.2228  0.1237  0.2029
17290W        W33099  18.976  12.983   4.216 -0.2025  0.1468 -0.1273
17291W        W33100  17.290  11.003  11.229 -0.1561  0.0864 -0.1971
17292W        W33101   3.830  13.455  12.494 -0.2138 -0.0066 -0.1440
17293W        W33102   6.126  10.920  11.450  0.2640 -0.2336  0.1881
17294W        W33103  18.818   1.029   4.829 -0.2012  0.1398  0.3746
17295W        W33104   6.278  14.308  10.082  0.1444  0.3605 -0.0924
17296W        W33105   0.343  14.117  12.748  0.3620 -0.0181  0.4658
17297W        W33106   5.979   9.447  11.811 -0.0017 -0.2772 -0.1134
17298W        W33107  16.283   0.998   3.091 -0.4824  0.0818 -0.0532
17299W        W33108   5.719  13.111  14.287  0.4462 -0.0381 -0.1691
17300W        W33109   7.428   8.260  12.945 -0.2410 -0.2018  0.1912
17301W        W33110   7.984  10.776  11.507 -0.2719  0.4013  0.1123
17302W        W33111   9.295   4.570  12.401 -0.0828 -0.1411 -0.0392
17303W        W33112   9.553   6.818  13.294 -0.1340  0.0044 -0.3701
17304W        W33113  13.553  14.499  12.427  0.3229 -0.1780  0.2158
17305W        W33114   0.063  12.109  14.953  0.0737 -0.0810 -0.2680
17306W        W33115   1.926  16.706   2.673  0.1260 -0.0049 -0.3230
17307W        W33116  18.748  17.748   9.660 -0.1095  0.2122  0.1042
17308W        W33117   1.762   8.848   1.255  0.4410 -0.3729  0.2532
17309W        W33118   5.233  15.814  12.742  0.3088  0.1957  0.1715
17310W        W33119   0.937   0.828  11.247  0.2855  0.0153 -0.5427
17311W        W33120   2.337   1.845   0.636  0.1456  0.2408  0.1963
17312W        W33121  11.175   8.744   1.831  0.1103  0.0836  0.0993
17313W        W33122  13.171  13.135   0.652 -0.1085  0.0530  0.2827
17314W        W33123  16.017   1.302  10.121 -0.3738  0.0195 -0.1966
17315W        W33124   2.096   6.758   0.591 -0.1711 -0.0525  0.3710
17316W        W33125  18.174  14.206   2.219  0.0555 -0.2508  0.0612
17317W        W33126   4.807   3.948  10.637 -0.0638  0.0018 -0.1877
17318W        W33127  17.743   9.920  12.841 -0.1576 -0.1493 -0.2247
17319W        W33128  12.989  16.530  14.186  0.2342 -0.4825  0.0825
17320W        W33129  13.263  14.303  10.944 -0.3657 -0.1371  0.0735
17321W        W33130  16.292  16.602   4.903  0.1503  0.0846 -0.3695
17322W        W33131   7.001   2.508   3.336  0.0517 -0.3048  0.3951
17323W        W33132   5.558  18.671  12.588 -0.2555 -0.2907  0.2016
17324W        W33133   1.925   4.622   3.805 -0.1225 -0.4079  0.2219
17325W        W33134   8.403  18.547  13.506  0.0457  0.3232 -0.1923
17326W        W33135   7.298   5.599  13.303  0.1277 -0.0164  0.2473
17327W        W33136   4.064  11.431   1.609 -0.0188  0.1913 -0.0584
17328W        W33137  16.932   3.304   2.764  0.3849  0.2985 -0.0999
17329W        W33138   6.229   1.121   0.118  0.1689 -0.0151  0.1681
17330W        W33139   9.146  17.256  15.236 -0.0393 -0.3472 -0.0113
17331W        W33140   5.512   7.772   0.224  0.2238 -0.3946 -0.1576
17332W        W33141   8.445   2.482  13.390  0.0161 -0.4882  0.0610
17333W        W33142   2.046   3.670  13.858  0.1484 -0.1625  0.3620
17334W        W33143   1.385   8.906  13.479  0.2303 -0.2542  0.5326
17335W        W33144  13.282  11.304  14.449  0.2814  0.3321  0.0756
17336W        W33145  15.528   2.682   4.751 -0.1501 -0.5027 -0.2325
17337W        W33146  10.645   4.256   3.997 -0.3465 -0.1351 -0.0454
17338W        W33147   9.214   8.207   3.100  0.2777 -0.2632 -0.2834
17339W        W33148  10.978   1.091   4.633  0.0389  0.1999  0.2071
17340W        W33149   9.615   2.800  14.448 -0.0750  0.2520  0.1062
17341W        W33150   4.397  19.014   2.958 -0.0678  0.0625 -0.0846
17342W        W33151  14.768   4.900   4.570  0.1148 -0.1914  0.3699
17343W        W33152   7.458  13.674   9.940 -0.0584  0.0026  0.1487
17344W        W33153  12.892  12.915   3.217  0.2936  0.0535 -0.1498
17345W        W33154   8.616  16.168  11.168 -0.0111  0.2171 -0.1840
17346W        W33155  10.424   4.447  14.643 -0.3510 -0.5030 -0.1643
17347W        W33156   1.248  10.609   5.175 -0.0576 -0.2987 -0.0026
17348W        W33157   3.898  11.077  15.153 -0.1573 -0.0032 -0.0762
17349W        W33158  18.583  13.425   3.621 -0.3865 -0.3917 -0.1866
17350W        W33159   6.918   8.185  10.643 -0.0138 -0.2197  0.1902
17351W        W33160  13.678   2.265   3.252 -0.1347 -0.2109 -0.1479
17352W        W33161   9.099   9.517   0.877  0.1724  0.2161  0.3186
17353W        W33162  16.286   0.643   1.728  0.0410 -0.0836 -0.3639
17354W        W33163   2.100  15.738  12.546  0.2289 -0.1079  0.1675
17355W        W33164   1.604  17.062  11.074  0.5503  0.1889  0.3241
17356W        W33165  16.406  10.389  14.053  0.1544 -0.0385 -0.2986
17357W        W33166   5.322   8.365  14.248  0.3167  0.0457  0.0760
17358W        W33167   7.348   1.142   0.146  0.0367  0.0791 -0.1733
17359W        W33168   6.597   0.135   4.128  0.0253 -0.3796  0.1410
17360W        W33169  17.904  10.798  10.743 -0.1828 -0.0172  0.0946
17361W        W33170   0.391  14.423  10.824 -0.2657 -0.0381 -0.3383
17362W        W33171   6.364   8.545   5.056 -0.2219 -0.0162 -0.0400
17363W        W33172   0.235   1.402  11.402  0.0506 -0.0668  0.2127
17364W        W33173  11.954  14.419  12.327 -0.0404 -0.0241  0.1479
17365W        W33174   7.784  13.864  11.431  0.5218  0.1088  0.0489
17366W        W33175   5.989  13.449  11.497  0.0494 -0.1979 -0.1664
17367W        W33176  17.611  17.993   1.657  0.1449 -0.0072 -0.2266
17368W        W33177   3.324   1.773  10.697 -0.1229 -0.0429 -0.2118
17369W        W33178   5.281  11.487   3.652 -0.1893 -0.1086  0.2869
17370W        W33179   3.127  10.654  15.016  0.0615  0.0543  0.0855
17371W        W33180   9.023   3.366   0.549  0.4122 -0.1504  0.1100
17372W        W33181  17.071   6.882  13.279  0.0583  0.0057 -0.0396
17373W        W33182   4.540  13.164  15.071 -0.1054  0.0679 -0.1145
17374W        W33183  19.105   4.573  14.171 -0.2191 -0.0113  0.1001
17375W        W33184  16.988  17.761   4.031 -0.1706  0.0212  0.1293
17376W        W33185  12.594  13.703   3.621 -0.0487  0.1842 -0.1854
17377W        W33186  10.457  10.575  13.972  0.0788 -0.2616 -0.0769
17378W        W33187   2.674  18.432  10.580 -0.0060  0.1563  0.2212
17379W        W33188  15.919   9.570  11.385 -0.0441  0.1802 -0.4905
17380W        W33189   1.184   5.912  14.761  0.3381  0.3892  0.3352
17381W        W33190  14.615  17.238  13.433 -0.0605 -0.1205  0.3034
17382W        W33191   1.726  15.514  12.833  0.1449 -0.2874  0.1266
17383W        W33192  15.830  16.982   5.783  0.0463  0.0635  0.0475
17384W        W33193   2.318   3.013   1.240 -0.4002  0.0816  0.0184
17385W        W33194   6.525   6.424  11.599  0.0671  0.0172 -0.0342
17386W        W33195  10.582   1.671   3.330 -0.0064 -0.0519 -0.3028
17387W        W33196  15.607  16.111   1.196  0.1363 -0.1076  0.3449
17388W        W33197   1.559   2.181   9.652 -0.1486  0.0658  0.0037
17389W        W33198   0.770   5.393   2.016  0.0801 -0.0855 -0.2273
17390W        W33199   0.909   1.889   0.679 -0.1265 -0.0058  0.1369
17391W        W33200  12.607  16.687   3.212 -0.1696  0.0221  0.1895
17392W        W33201   2.750   0.916  12.115  0.0985 -0.0381  0.2301
17393W        W33202   3.312  16.126   2.986 -0.1088 -0.1550 -0.0249
17394W        W33203  11.846   5.997  10.211  0.2395 -0.0119 -0.4233
17395W        W33204  15.560  13.454  14.472 -0.1256 -0.0232  0.0111
17396W        W33205  15.829   9.116   0.392  0.0299  0.0751 -0.1125
17397W        W33206   3.155  13.470   0.031  0.0467 -0.1021  0.0622
17398W        W33207   4.933   9.871   4.399  0.1228  0.1727 -0.2381
17399W        W33208   6.942   4.133  11.467  0.1850 -0.0404 -0.1480
17400W        W33209   3.308   8.168   5.845  0.1649  0.0161 -0.0818
17401W        W33210  12.944   7.480  11.138  0.2663 -0.2964  0.2245
17402W        W33211  18.840  16.383   0.763 -0.2434 -0.0468  0.1109
17403W        W33212  14.902  16.079   0.610 -0.2644  0.2882  0.0873
17404W        W33213   3.051  17.299   1.232 -0.2652 -0.1030  0.2002
17405W        W33214   6.613   4.517  10.718  0.2872 -0.0212  0.0475
17406W        W33215  18.697  15.731   1.060  0.2565  0.3399  0.3136
17407W        W33216   7.693   5.791  13.798 -0.0061  0.1212  0.2200
17408W        W33217  10.649  18.495   3.641  0.1595  0.0923  0.2242
17409W        W33218  18.638  16.479   5.154  0.2431 -0.1487  0.2702
17410W        W33219  10.604  18.799   5.350  0.3213 -0.1623 -0.1081
17411W        W33220   6.539   4.009   2.134  0.0279 -0.0047  0.0561
17412W        W33221  10.391  13.125  10.118 -0.2144  0.0328  0.2832
17413W        W33222   5.990  12.370  14.913 -0.1002  0.2135  0.1666
17414W        W33223   0.878   0.255   2.852  0.0980  0.1239  0.0619
17415W        W33224   8.186  11.802  11.529  0.0136 -0.0226  0.1596
17416W        W33225  17.169   7.773  12.432  0.2494 -0.2394 -0.2056
17417W        W33226  11.073  17.466   4.489  0.0782  0.1600  0.1624
17418W        W33227   5.031  10.696   2.273  0.1333  0.1493  0.0896
17419W        W33228   1.231  14.440   4.864  0.0888  0.0370  0.2364
17420W        W33229  17.861  13.055   5.590 -0.2760  0.0785 -0.2503
17421W        W33230  11.240   8.670   3.377  0.0927 -0.2352  0.3694
17422W        W33231   8.404   0.122   4.473 -0.1967 -0.0632  0.1198
17423W        W33232   9.515   8.083   4.078 -0.2336  0.4851 -0.0401
17424W        W33233   2.714   4.593  11.935 -0.0055  0.1291 -0.0083
17425W        W33234   6.490  10.634  11.817 -0.1456  0.2506 -0.0059
17426W        W33235  15.206  18.253   1.258  0.4792  0.2385  0.1441
17427W        W33236   2.324  19.038   4.139 -0.2091 -0.1032  0.1747
17428W        W33237  13.498   2.552   1.366 -0.2318 -0.1156 -0.1317
17429W        W33238  12.938   7.469  10.128 -0.3193 -0.0689 -0.1330
17430W        W33239   8.399  11.437  14.484  0.1351 -0.2538 -0.3098
17431W        W33240   8.723   6.263  14.437  0.0463 -0.3605  0.2919
17432W        W33241  10.941   8.929  13.240 -0.1769 -0.0546  0.1486
17433W        W33242  18.140  10.525   2.405 -0.1719 -0.1314  0.0412
17434W        W33243  14.714  18.449   1.145  0.2855 -0.0742 -0.0748
17435W        W33244  10.148   5.860   2.084  0.0625  0.0050 -0.2376
17436W        W33245  17.205   1.632  13.046 -0.0187 -0.1043  0.2394
17437W        W33246   4.999   6.214   0.803  0.4288  0.2090  0.2637
17438W        W33247  16.316   6.409  12.623  0.0285 -0.0245  0.0580
17439W        W33248   3.737   0.906  14.882 -0.0446 -0.0809 -0.2084
17440W        W33249  13.192   0.515   4.760  0.0075  0.0197 -0.0522
17441W        W33250  17.729   9.831   5.290 -0.0911  0.0057  0.0598
17442W        W33251  12.724   4.071  10.459  0.0352 -0.1670 -0.1094
17443W        W33252  18.620  10.489  12.951 -0.1702 -0.0443  0.3555
17444W        W33253   6.566   3.263  10.378 -0.1166  0.4433  0.1818
17445W        W33254  16.281  18.787  14.026 -0.0913 -0.1162 -0.0891
17446W        W33255   9.195   8.329   1.298  0.1023  0.2592 -0.3645
17447W        W33256  15.960  15.353   3.686 -0.4076 -0.3217 -0.2070
17448W        W33257   9.683   2.727   0.200 -0.1002 -0.0410 -0.0194
17449W        W33258  14.636  12.619  14.511  0.0184 -0.2128 -0.4085
17450W        W33259   0.610  17.647  14.651 -0.3144  0.2330  0.3459
17451W        W33260   9.532   7.705   1.425 -0.0420  0.1436  0.0188
17452W        W33261  15.671   4.139   4.571 -0.2056 -0.0129 -0.4414
17453W        W33262   3.459   3.294  14.704  0.0732  0.0318  0.2636
17454W        W33263   4.554  14.806   3.084 -0.0475 -0.1342  0.1121
17455W        W33264   3.838  12.840  11.905  0.0817  0.1733  0.0442
17456W        W33265   1.448   2.022  10.989  0.0522  0.0874 -0.0919
17457W        W33266  12.673   3.302  10.580 -0.0566  0.0025 -0.2875
17458W        W33267   0.287   1.468  12.413 -0.1459  0.0852  0.0187
17459W        W33268   6.209  17.109   1.421  0.4118 -0.0747  0.3274
17460W        W33269   5.211  17.951   2.155  0.0535  0.0388 -0.0258
17461W        W33270  16.919   0.259  13.392 -0.1749 -0.0337  0.0434
17462W        W33271   3.760  15.285   3.322 -0.4250 -0.1858 -0.2374
17463W        W33272  16.404   6.418   4.814  0.0543  0.0580 -0.3258
17464W        W33273   9.115   6.976   3.343  0.3113  0.2904  0.0053
17465W        W33274  18.732  12.898   0.242  0.1350  0.0312  0.0806
17466W        W33275   9.831   3.573   1.041  0.1529 -0.3645 -0.0060
17467W        W33276   6.505  18.160   2.970 -0.1250  0.1929  0.2377
17468W        W33277  16.566   0.925   4.439 -0.1410  0.1738 -0.1026
17469W        W33278   2.469  14.876   2.426 -0.0831  0.1711 -0.2615
17470W        W33279   7.840  10.255   1.614 -0.0577  0.1781  0.1751
17471W        W33280  16.149  14.840   1.613 -0.1660  0.0886  0.1627
17472W        W33281   8.598   6.572   2.291  0.0565 -0.1815  0.1532
17473W        W33282  12.565  18.518   4.059  0.0182 -0.2595  0.0602
17474W        W33283  19.089   1.309   2.422  0.0850 -0.0565  0.2578
17475W        W33284   4.196  12.359   1.436  0.0972  0.0114 -0.2021
17476W        W33285  12.049   5.739  11.293  0.1045  0.0348 -0.1381
17477W        W33286   0.945  18.265   5.416  0.0596 -0.1429 -0.0256
17478W        W33287   9.533  18.077   5.019 -0.0418 -0.2859 -0.2552
17479W        W33288   0.493   9.379   5.197  0.4503  0.1830 -0.1859
17480W        W33289   4.284  12.087  10.888  0.0001  0.0926  0.0531
17481W        W33290  16.377  16.164   0.979  0.0610 -0.0354  0.1127
17482W        W33291  15.522   0.089   0.399 -0.1003 -0.0876  0.2914
17483W        W33292   7.690   3.303   3.063  0.3933 -0.0828 -0.0430
17484W        W33293  15.753   0.212  10.840  0.1172  0.1811  0.1128
17485W        W33294  16.466   4.280   3.457 -0.2921  0.2233 -0.0111
17486W        W33295  16.803  15.651  13.815 -0.1323 -0.0502 -0.3850
17487W        W33296  12.166  13.894  12.527  0.1865  0.0859  0.0959
17488W        W33297   2.302   2.297  13.951 -0.0816  0.0704  0.0827
17489W        W33298  14.180  14.312   3.931 -0.3536  0.0403  0.1571
17490W        W33299   1.291  18.716  11.907  0.2639 -0.1895  0.0372
17491W        W33300  14.347  12.463  11.565 -0.1245 -0.0502  0.1450
17492W        W33301  15.037   8.031   2.208 -0.0436 -0.0531  0.1134
17493W        W33302   1.029   6.137  13.167  0.0265  0.0726 -0.0064
17494W        W33303   2.723   6.880  12.651  0.1898  0.3425  0.1128
17495W        W33304   6.146  12.431   3.689 -0.2466 -0.0499  0.0085
17496W        W33305   3.166  15.127  10.935 -0.1911  0.3205  0.2165
17497W        W33306  14.199  16.239  12.917  0.2195  0.1544  0.1860
17498W        W33307   5.405   7.142   3.542  0.0742 -0.0714 -0.2012
17499W        W33308  17.253  14.529   5.002 -0.1154  0.1598  0.3055
17500W        W33309   3.778   5.782  12.686 -0.0727  0.1452  0.1152
17501W        W33310   3.195   9.676  11.274 -0.0273  0.1528 -0.2290
17502W        W33311  13.458  18.603  13.940 -0.2177  0.0711 -0.2494
17503W        W33312   6.717   7.065   0.104 -0.0729 -0.0362 -0.0776
17504W        W33313   4.936   2.378   2.338  0.0783 -0.1393 -0.1567
17505W        W33314  16.662  15.714   4.429  0.2961  0.3087  0.2458
17506W        W33315  17.013  18.549  12.077 -0.1061 -0.2168  0.3782
17507W        W33316   7.781   7.748  12.802 -0.1264 -0.1754  0.1760
17508W        W33317   1.240  18.212   4.492  0.2249 -0.1875  0.0349
17509W        W33318   6.756  16.918  12.184  0.1243  0.0771 -0.2270
17510W        W33319   9.031  11.987   4.773 -0.0600 -0.0261  0.0648
17511W        W33320  14.828   9.604  12.834  0.0512 -0.0546 -0.0320
17512W        W33321   4.230   3.790   1.379  0.3807 -0.0798 -0.0535
17513W        W33322  15.458  18.363   3.779 -0.3682 -0.0980 -0.3022
17514W        W33323  11.704  10.442   5.632 -0.1177  0.1857  0.1632
17515W        W33324  17.002   2.169  14.014 -0.0695 -0.0877 -0.1968
17516W        W33325   9.837  14.971  13.327 -0.2873 -0.1910  0.1512
17517W        W33326   1.772  18.279  15.059 -0.1139 -0.1372  0.1899
17518W        W33327   0.027   5.483  14.116 -0.1752 -0.3110  0.0773
17519W        W33328  18.112   9.872  15.269  0.1314  0.1226 -0.2891
17520W        W33329   8.375   8.769  12.212 -0.1055  0.3029  0.0547
17521W        W33330  18.328   4.840   3.136  0.0631  0.0574  0.2115
17522W        W33331  11.308   5.977   0.700  0.2938  0.0243 -0.1884
17523W        W33332  16.271  13.400   1.755 -0.2673  0.1053  0.0056
17524W        W33333   8.898  13.713  15.103 -0.1431  0.2579 -0.3270
17525W        W33334  12.569  12.465  14.990 -0.1826  0.3335  0.4979
17526W        W33335   7.568  18.153  12.598 -0.1302  0.0584 -0.2561
17527W        W33336  14.175  16.192   1.930  0.0761  0.0253 -0.3333
17528W        W33337  15.202  12.059   2.969  0.0158  0.1234 -0.1410
17529W        W33338  11.424   2.302   0.036 -0.0163 -0.3573 -0.1634
17530W        W33339   0.660   7.343  14.270 -0.1937 -0.2109 -0.0793
17531W        W33340   0.180  18.569   2.774 -0.1110 -0.1992  0.3006
17532W        W33341  18.072   2.689   4.514 -0.0220 -0.1453  0.3269
17533W        W33342   4.950   7.371   3.708 -0.2774  0.2127 -0.0281
17534W        W33343   1.476  11.009  12.758 -0.1909  0.2853 -0.1124
17535W        W33344  16.811   3.893   5.474  0.1101 -0.1709  0.0490
17536W        W33345  10.228  15.626  12.068 -0.1955 -0.0980  0.0058
17537W        W33346   2.720  11.056   4.556 -0.0183  0.1013  0.0416
17538W        W33347  19.108   3.483  10.382 -0.1878 -0.1476  0.4874
17539W        W33348  14.611   1.128  14.522  0.0280  0.0995 -0.4744
17540W        W33349  14.708   7.087   0.003 -0.0189 -0.3769  0.0132
17541W        W33350   3.640   1.156  12.022  0.0598  0.0967 -0.0114
17542W        W33351  16.401   4.665   3.755 -0.3067 -0.0811 -0.0183
17543W        W33352  14.496  11.149   1.942  0.0239 -0.3531  0.0697
17544W        W33353   8.250  13.814   5.709  0.1230  0.2177 -0.0129
17545W        W33354  12.342  13.001  14.226  0.1442  0.1400  0.0756
17546W        W33355   7.471  14.134  14.131  0.0949  0.0948  0.1894
17547W        W33356  17.192   9.811  12.646  0.1824  0.0554 -0.0105
17548W        W33357   9.703   2.119  11.519  0.0219  0.1711 -0.1987
17549W        W33358   5.236  12.401   4.070 -0.1553  0.0581 -0.1229
17550W        W33359   0.206   5.802  11.987  0.0144 -0.2368  0.0348
17551W        W33360  12.991  14.515  11.310 -0.2772  0.1904  0.2232
17552W        W33361   8.844   5.307   1.686  0.2147  0.0628  0.3691
17553W        W33362   5.798   3.282   5.352 -0.4741  0.0600 -0.1742
17554W        W33363  13.227   1.438  11.231  0.1265 -0.2907 -0.0030
17555W        W33364  12.586   6.532  14.929 -0.0016  0.0294  0.2943
17556W        W33365   6.849   3.889   2.889 -0.3545  0.3844 -0.1965
17557W        W33366  17.915   7.778  11.762  0.0280 -0.0462 -0.0584
17558W        W33367  17.815   1.640   9.847 -0.2120 -0.1825 -0.1296
17559W        W33368  16.520   5.135  13.708 -0.2088 -0.2621 -0.2222
17560W        W33369  14.939  18.093   1.636 -0.3660 -0.3007  0.1647
17561W        W33370  18.544   5.648  11.299  0.0509 -0.4384 -0.2844
17562W        W33371   8.226  16.261   1.511 -0.0042 -0.0140 -0.0542
17563W        W33372  18.153   0.896   2.068 -0.1480 -0.0100  0.4305
17564W        W33373   5.721  14.428   4.196  0.0901  0.3741  0.3103
17565W        W33374  16.793  12.559  14.526 -0.0639 -0.2221  0.0791
17566W        W33375  12.816  13.165  13.325  0.3852  0.1713 -0.3355
17567W        W33376  18.433   8.959   0.333 -0.2776 -0.0657  0.1003
17568W        W33377   6.499  15.833  14.536 -0.1793  0.1076  0.1513
17569W        W33378  16.446   0.681  12.590 -0.1258  0.1368 -0.1141
17570W        W33379   3.562   6.049  12.073 -0.0926  0.2381  0.3453
17571W        W33380  10.781  17.585   4.060 -0.1772 -0.1433 -0.2533
17572W        W33381   0.811  13.162  10.883  0.1943  0.2628 -0.0358
17573W        W33382  18.282  14.539   1.025  0.1600  0.1696  0.1695
17574W        W33383   0.763  17.919   5.019 -0.0666 -0.5544 -0.1293
17575W        W33384   7.768  18.553   3.018  0.0125 -0.1251  0.0231
17576W        W33385  12.462  15.935   4.962 -0.0608  0.1465  0.0879
17577W        W33386  11.319   0.556  15.020  0.0865 -0.2257  0.1185
17578W        W33387  14.831  14.412  13.748  0.0226 -0.2871 -0.0045
17579W        W33388  18.278   3.179   1.497 -0.0513  0.2566  0.0017
17580W        W33389   0.611  11.922  11.431 -0.3911 -0.2702 -0.1286
17581W        W33390  10.665   9.367   0.160  0.0728 -0.0164  0.2535
17582W        W33391   4.806  17.246   9.994  0.0083 -0.1749 -0.2477
17583W        W33392   2.149   0.108   0.029 -0.0513  0.1734  0.2677
17584W        W33393  13.680  17.100   4.273  0.1704 -0.2652 -0.1932
17585W        W33394  13.674   2.967   1.680  0.0245 -0.1653  0.2926
17586W        W33395  11.636   6.684   4.301  0.0402  0.2065 -0.4190
17587W        W33396  13.725   7.567   0.557 -0.1389 -0.0956  0.0736
17588W        W33397   8.703   3.013   2.342  0.2215  0.1701 -0.0088
17589W        W33398   5.326   1.743  12.420  0.0046 -0.0748 -0.0096
17590W        W33399  10.315   1.886  11.329  0.0921  0.0243 -0.0354
17591W        W33400  13.561  18.504  13.116 -0.0406  0.2954 -0.0420
17592W        W33401  17.907  13.891  11.131  0.4396 -0.2035 -0.2208
17593W        W33402  17.861   7.549   3.186  0.1418  0.1574 -0.0398
17594W        W33403   1.804   3.761  11.117  0.0472  0.0254  0.3081
17595W        W33404   3.053  14.541  12.996  0.0090 -0.1262  0.0533
17596W        W33405   5.321   9.472   4.315  0.0890 -0.0282 -0.3571
17597W        W33406   8.434   0.734  14.691 -0.1172 -0.2846 -0.0046
17598W        W33407   4.159   4.955   2.292 -0.0260 -0.1212 -0.2694
17599W        W33408  13.028  17.457   0.624 -0.1167 -0.3161 -0.0174
17600W        W33409   7.558  10.522  13.404 -0.0577 -0.3017 -0.2650
17601W        W33410  10.321   2.775   0.182 -0.2191  0.0926  0.2898
17602W        W33411  11.897   8.880  13.843 -0.3071  0.0269  0.3578
17603W        W33412  15.507   1.875  11.607  0.1717 -0.0117 -0.0476
17604W        W33413  10.756  13.033   2.237  0.1934  0.1522 -0.0733
17605W        W33414  15.512  16.573   5.505 -0.1059  0.0933  0.1169
17606W        W33415   7.451   8.989   0.412 -0.2138  0.1383  0.0720
17607W        W33416   1.416  14.947  15.163 -0.0124  0.0612  0.2472
17608W        W33417   7.092   5.568  11.677  0.1912 -0.4104 -0.1105
17609W        W33418  13.014  15.819   4.284 -0.0830  0.4390  0.0666
17610W        W33419  16.557  13.789   3.252  0.3633 -0.0572  0.1096
17611W        W33420   5.583  17.996   4.598  0.5316 -0.0685  0.3608
17612W        W33421  14.150  15.656   4.194 -0.3012 -0.0244  0.1739
17613W        W33422   2.864   8.951  12.855  0.0538  0.1177 -0.1279
17614W        W33423  14.395  13.797  11.804 -0.0815  0.1478  0.0620
17615W        W33424  15.174  10.700  11.716 -0.0767  0.2466 -0.1817
17616W        W33425   8.171   5.124  14.804  0.0609 -0.0358 -0.1801
17617W        W33426  16.862   3.970   1.835 -0.4535 -0.0547 -0.0127
17618W        W33427  18.985  17.270  11.394  0.0194  0.2522 -0.1719
17619W        W33428   3.420   2.883  12.096  0.1957  0.1520  0.1560
17620W        W33429  14.246   2.511  14.004  0.2156  0.1125 -0.1315
17621W        W33430  15.670   9.388   5.607  0.1321 -0.1962 -0.1368
17622W        W33431   4.440   6.451   4.536  0.1614 -0.0375  0.0032
17623W        W33432  10.884  13.335   5.163 -0.0178 -0.0498 -0.1964
17624W        W33433  10.097  10.734   1.792  0.2233  0.2805  0.3117
17625W        W33434  13.769  11.337  12.502  0.1457 -0.1712 -0.1152
17626W        W33435  11.560   5.184  11.403  0.1503 -0.0721  0.2473
17627W        W33436  17.481  18.886  13.027 -0.0889 -0.1641 -0.0820
17628W        W33437   3.303   5.684   4.089 -0.0227  0.4588  0.1238
17629W        W33438   6.478   7.987  10.690  0.0393  0.1275 -0.2143
17630W        W33439  12.283   9.770   4.299  0.0199 -0.1424 -0.0687
17631W        W33440   0.916  14.799   2.274 -0.3748  0.0210  0.0773
17632W        W33441  12.053  15.824  11.899 -0.0814  0.3025 -0.3951
17633W        W33442  11.557  10.298   1.915  0.3418  0.4252 -0.2698
17634W        W33443  12.769  14.474  11.843 -0.0527  0.5919  0.0950
17635W        W33444   7.392  16.831   0.127 -0.2268  0.2283 -0.0578
17636W        W33445   4.104  12.638   1.947 -0.1560  0.0373  0.3891
17637W        W33446   4.399  14.959   5.075  0.1751  0.2564 -0.1368
17638W        W33447   1.883  13.797  11.588  0.1171  0.1721  0.1068
17639W        W33448  10.062   2.279   0.904 -0.1009 -0.3317  0.4079
17640W        W33449   7.382   2.531  12.230  0.1130  0.1193 -0.2213
17641W        W33450  18.758  16.028   4.931 -0.2773  0.3118 -0.2363
17642W        W33451   1.702  15.499  14.044  0.0703 -0.0611 -0.0858
17643W        W33452   4.415  11.416   3.298 -0.2120  0.0340  0.1737
17644W        W33453  18.353  17.981   3.519 -0.0082  0.3271 -0.2316
17645W        W33454  14.659  11.036   4.035 -0.0006 -0.2682  0.0836
17646W        W33455  11.371   9.252  14.444  0.3264  0.2683 -0.0021
17647W        W33456  10.218   7.059   3.104 -0.4393  0.0629  0.1195
17648W        W33457  13.222  17.775  10.880  0.3669 -0.0266  0.0835
17649W        W33458  17.924   1.634  15.182 -0.0061 -0.0671  0.0698
17650W        W33459  16.993  15.319   1.345  0.0558  0.3196 -0.1981
17651W        W33460  15.995  16.732   2.820  0.3153 -0.1908  0.1507
17652W        W33461   9.016   6.587   2.994 -0.4193  0.2801 -0.3219
17653W        W33462  18.974   9.182  10.953 -0.0289  0.0323  0.0072
17654W        W33463   8.019  17.705   2.882  0.0817  0.0211  0.3747
17655W        W33464   6.104  11.398  10.811 -0.0933 -0.1885  0.0370
17656W        W33465   0.079  16.945  10.398  0.1814  0.1836 -0.0728
17657W        W33466  16.869   2.553   3.438 -0.0838  0.2224  0.0099
17658W        W33467   5.243  17.407  11.829 -0.0934 -0.1888 -0.1658
17659W        W33468   3.655  14.332   4.874 -0.0610  0.0408  0.1435
17660W        W33469  12.272  11.500   4.228  0.1243 -0.0390 -0.2804
17661W        W33470   0.716   3.777   4.776  0.1080  0.0824  0.1577
17662W        W33471   9.512  14.677  15.244  0.1087  0.1678  0.2762
17663W        W33472   4.929   0.952   1.593 -0.1715  0.1116  0.1000
17664W        W33473  18.544  16.873   2.557 -0.0138  0.0135 -0.2597
17665W        W33474  12.232   8.302   1.172  0.0855 -0.0262 -0.4711
17666W        W33475  18.849  11.389  13.205 -0.0272 -0.1087  0.3076
17667W        W33476  13.499   5.929   2.368  0.3535  0.0138  0.0031
17668W        W33477   7.369   7.229  14.288  0.1880  0.0093  0.0165
17669W        W33478   3.016   1.343   0.272  0.0944 -0.0073  0.2214
17670W        W33479  14.669  18.499   1.939  0.0001  0.2131  0.3070
17671W        W33480  12.120   5.436   3.050  0.3819 -0.1495  0.1570
17672W        W33481  14.698   7.270   0.478 -0.0307 -0.1233  0.1185
17673W        W33482   1.059   7.772  10.869  0.2083  0.3153 -0.0056
17674W        W33483  14.507  13.972   3.694  0.1548  0.0819  0.0071
17675W        W33484   4.795   5.136  10.836  0.2846  0.1463  0.0085
17676W        W33485   5.211  13.085  14.073 -0.2087 -0.2178  0.0666
17677W        W33486   6.604   1.444   4.010  0.0892  0.1395 -0.2912
17678W        W33487   3.959  14.619   2.454  0.1808 -0.1750  0.0060
17679W        W33488   1.283   0.496  11.399 -0.2344  0.0063  0.1419
17680W        W33489   8.943   3.734   2.541 -0.2318  0.0872 -0.0537
17681W        W33490   7.722   9.222  15.167  0.3624  0.3579  0.2693
17682W        W33491  10.038  12.619   1.648  0.0239 -0.3327 -0.1061
17683W        W33492   9.804   1.861  14.896 -0.0112  0.0682 -0.0953
17684W        W33493   2.193   2.110  11.245  0.0875  0.3830 -0.0874
17685W        W33494   8.155   6.936  12.993  0.0035 -0.2333 -0.2150
17686W        W33495   5.033  10.236  11.739 -0.1915 -0.1774 -0.0762
17687W        W33496   1.163  11.720   0.270  0.1278  0.0485 -0.0363
17688W        W33497   4.904  15.058   5.913  0.0339  0.0878 -0.2154
17689W        W33498  10.510  14.269  14.465 -0.2992  0.0630  0.1903
17690W        W33499  12.169   2.889  14.194  0.0030 -0.4548 -0.2565
17691W        W33500   3.872  10.592   2.477  0.3852  0.1395 -0.3190
17692W        W33501  16.125   6.068  14.629 -0.0538  0.0791 -0.0181
17693W        W33502   8.500   4.762  13.507  0.2716  0.0325  0.3549
17694W        W33503   1.848   9.563  11.603 -0.0390 -0.2395 -0.0803
17695W        W33504  19.011   0.004  10.712  0.0512  0.0791  0.0895
17696W        W33505  17.024   8.125  12.748 -0.0519  0.3061 -0.2773
17697W        W33506   5.931  18.391   4.215  0.3414  0.0490  0.0414
17698W        W33507   7.579  12.107  11.769 -0.1328  0.0801  0.2461
17699W        W33508   3.286   3.481  10.814 -0.2253  0.0429 -0.2491
17700W        W33509  17.524   3.849  10.295 -0.1304 -0.0963  0.3456
17701W        W33510  18.739  13.151  13.045  0.3627  0.2407  0.0028
17702W        W33511  10.789  15.766   3.324 -0.1296 -0.1126 -0.0058
17703W        W33512   3.764  17.895  11.452 -0.1195  0.1408 -0.2181
17704W        W33513   7.132  17.315   3.326 -0.1056  0.1028  0.3319
17705W        W33514   4.093  11.022   3.260  0.1410  0.1905 -0.0771
17706W        W33515   4.422   6.077  14.737  0.1923 -0.1873  0.0241
17707W        W33516   8.993  16.891  13.210 -0.0908 -0.0481  0.0278
17708W        W33517  10.601   8.724  12.910 -0.1550 -0.0368 -0.1819
17709W        W33518  14.940  11.020   0.072  0.2776  0.1397 -0.1947
17710W        W33519   8.424   0.277   3.462 -0.1282  0.2673  0.2274
17711W        W33520   8.709  14.660  14.951  0.0610 -0.1212  0.0135
17712W        W33521   5.271   8.593   5.083 -0.0623  0.0097  0.0624
17713W        W33522  15.715   4.587   0.636 -0.2547  0.0358  0.1954
17714W        W33523  11.422   5.620   1.055 -0.0327  0.4049 -0.0260
17715W        W33524   9.380  12.548  11.601  0.2179 -0.1496  0.0406
17716W        W33525   6.053  18.410   3.189  0.1686 -0.3195 -0.0215
17717W        W33526   0.173  13.267  11.453  0.0735  0.0846  0.0163
17718W        W33527   4.989  10.515   5.636  0.0202 -0.0862 -0.0541
17719W        W33528   5.476   4.344   4.036 -0.1523  0.3249  0.2278
17720W        W33529   1.101  14.650   1.737 -0.4210 -0.0773 -0.0895
17721W        W33530   0.544   0.481  13.897  0.0923  0.0026 -0.1587
17722W        W33531  12.792  18.545   0.450  0.1316  0.0364 -0.3445
17723W        W33532  17.153   8.953   4.070  0.0168 -0.1481  0.1201
17724W        W33533   8.052   4.759  10.519  0.1257 -0.0021  0.3571
17725W        W33534  13.011  16.966   4.842 -0.1181  0.0481 -0.0361
17726W        W33535   0.690   5.043  15.154 -0.2455  0.1468 -0.1463
17727W        W33536   2.786   7.157   3.751 -0.1648 -0.0839 -0.1309
17728W        W33537   2.174   9.316  11.924  0.0642  0.0757  0.0798
17729W        W33538  17.784   0.965  12.038 -0.1473 -0.2086 -0.0370
17730W        W33539  17.641   8.944  10.468 -0.1510 -0.0386 -0.0483
17731W        W33540   7.255   7.249   2.775 -0.0781  0.1360 -0.1975
17732W        W33541   1.811  11.482  12.704  0.3706 -0.1613  0.1116
17733W        W33542   6.501  11.504  10.462 -0.0435  0.0043  0.3026
17734W        W33543  17.699   5.965  12.805  0.1662  0.1794 -0.0406
17735W        W33544  15.272   5.187  11.443  0.0329  0.0472  0.2398
17736W        W33545   3.924  16.985   4.334  0.0088 -0.3050  0.0025
17737W        W33546  13.963   0.564   0.368  0.0493 -0.0396 -0.2549
17738W        W33547   8.141  13.515   3.861 -0.0053  0.0415  0.1160
17739W        W33548   3.985  17.738   2.205 -0.4901  0.1185 -0.1853
17740W        W33549  17.210   6.745  10.382  0.0455 -0.0521 -0.0840
17741W        W33550  18.138  10.938  13.716  0.3328 -0.2096 -0.0614
17742W        W33551  12.012  10.648  15.158  0.0681 -0.1085 -0.1635
17743W        W33552  18.154  12.205  11.667  0.0915 -0.0321 -0.1002
17744W        W33553  15.784  13.049   5.087 -0.0896  0.0611  0.1471
17745W        W33554   4.374  16.956   3.141 -0.2363  0.0047  0.0641
17746W        W33555   9.566   6.403  12.910  0.2728 -0.2474  0.0244
17747W        W33556  15.532   4.931   4.093 -0.1424 -0.1618  0.1317
17748W        W33557  12.071  15.372  12.999 -0.4178 -0.3250  0.0713
17749W        W33558  19.083   2.830  14.119  0.1330 -0.2548  0.3008
17750W        W33559   6.445   8.688   3.173 -0.0740 -0.0417  0.0099
17751W        W33560   8.557  15.715   9.902 -0.1901 -0.2022 -0.0042
17752W        W33561   1.908   5.094  14.250  0.0110  0.0796 -0.0378
17753W        W33562  14.644  14.633   1.470 -0.0432 -0.0437 -0.1941
17754W        W33563  11.536   0.168   2.671  0.0170  0.0998 -0.1247
17755W        W33564  18.846   2.438  11.393 -0.0189  0.0228  0.1434
17756W        W33565  12.377  15.193  15.077 -0.0379 -0.1088  0.3254
17757W        W33566  10.160   1.026   2.465 -0.0475  0.0181 -0.1614
17758W        W33567   8.948   9.750  11.210  0.1484 -0.0200 -0.0677
17759W        W33568   2.195   1.811   4.267  0.0177 -0.1158 -0.3091
17760W        W33569   2.690   4.833   1.258  0.0177 -0.0700  0.3781
17761W        W33570  15.146   5.184  10.374 -0.0285 -0.1287 -0.0062
17762W        W33571   2.552   6.544   0.833  0.2763 -0.0359  0.1478
17763W        W33572  18.348  18.349  14.322 -0.3548 -0.1920  0.1370
17764W        W33573   9.777   1.953  12.071 -0.0340 -0.0689 -0.2292
17765W        W33574   5.920   5.456  14.212  0.2081 -0.1049  0.0973
17766W        W33575   2.576  11.731  13.146 -0.0159 -0.0819  0.0458
17767W        W33576   7.354   2.184  14.538  0.0229  0.0638  0.1893
17768W        W33577  14.830   6.294  13.627 -0.0928 -0.0236  0.0197
17769W        W33578  15.619   5.414   5.018 -0.2727  0.0941 -0.1956
17770W        W33579  14.108   1.818   0.576  0.1214 -0.2517 -0.2180
17771W        W33580  12.406  14.029   2.752 -0.0894 -0.0938 -0.1777
17772W        W33581  15.748   2.241   4.540 -0.2653  0.2152  0.1413
17773W        W33582  11.422  16.835  12.588 -0.1763  0.1416 -0.1881
17774W        W33583   1.012   4.209   2.183  0.4205  0.0918  0.2214
17775W        W33584   3.446  11.533  14.566 -0.1187 -0.1853  0.0342
17776W        W33585   1.387  18.286  13.166 -0.1250 -0.0268 -0.2570
17777W        W33586   6.629   1.290  14.609 -0.0785  0.0673  0.0345
17778W        W33587   1.367  13.263  12.970 -0.2454  0.1130 -0.2190
17779W        W33588   4.528   0.048  12.779  0.0370  0.0605  0.0888
17780W        W33589   8.481   7.784   2.065 -0.0596  0.1466  0.0475
17781W        W33590  12.957  14.990  13.911  0.1487  0.0076  0.0464
17782W        W33591  18.731  17.682   1.717 -0.0254 -0.0184 -0.2289
17783W        W33592  17.017  18.765   0.661 -0.0950  0.1581  0.0516
17784W        W33593  16.584  17.521   4.307  0.0869 -0.2554  0.3739
17785W        W33594   9.352  18.999   3.466  0.0429  0.2194  0.0599
17786W        W33595  13.285   9.822  14.310 -0.2097  0.2278 -0.0815
17787W        W33596  11.418  14.333   1.249 -0.2283  0.3742  0.1064
17788W        W33597  15.689  11.008   3.835 -0.0379  0.1491 -0.1594
17789W        W33598   2.312  16.788   1.732 -0.0187  0.0193  0.0747
17790W        W33599  10.308   5.972  11.820 -0.2267 -0.0874  0.0995
17791W        W33600   8.961  16.297   0.170  0.4055  0.1425  0.1244
17792W        W33601  17.079  16.960  11.746 -0.1149 -0.1614  0.2650
17793W        W33602  16.639   4.989  12.609  0.1677 -0.0864  0.0534
17794W        W33603   8.783   2.494  14.285 -0.1373 -0.2175  0.0749
17795W        W33604   8.702   8.293  12.150  0.0851 -0.1585 -0.1348
17796W        W33605   4.684  16.086   2.950 -0.1344  0.2758 -0.1623
17797W        W33606  12.290  12.669   5.517 -0.1348 -0.1039  0.0798
17798W        W33607  16.573  14.826  11.439 -0.0143  0.2332  0.0444
17799W        W33608  14.566  14.743   0.966  0.0846 -0.1353  0.0453
17800W        W33609   8.539   5.804  10.503  0.0687 -0.2455 -0.1612
17801W        W33610   6.305   7.743  14.906 -0.0932  0.0637 -0.0146
17802W        W33611   8.962   7.720   1.961  0.0061 -0.3956  0.1964
17803W        W33612  15.488   0.136  14.027 -0.2011  0.1014  0.2079
17804W        W33613   7.194   0.061   0.137  0.1391 -0.1126 -0.1375
17805W        W33614   1.386   0.673  11.858 -0.0342  0.1509  0.0436
17806W        W33615  11.485  13.648  13.457 -0.3223 -0.2539  0.3033
17807W        W33616   4.832  12.080   0.202  0.0361 -0.2396  0.4095
17808W        W33617   1.775  11.978   3.567 -0.0541 -0.2881  0.1903
17809W        W33618  15.440   7.355  13.040 -0.0163  0.1197  0.0610
17810W        W33619  15.670   7.971   2.620  0.1213  0.6731  0.1233
17811W        W33620  17.035   2.918  15.175 -0.0708 -0.2497 -0.3816
17812W        W33621  18.050   9.000  10.983 -0.0878  0.0510  0.0446
17813W        W33622  19.129   4.117  13.916 -0.2885  0.0401  0.0523
17814W        W33623  14.356  11.420  10.757  0.1476 -0.4739  0.0754
17815W        W33624   6.010  17.968  15.237 -0.2121 -0.0882  0.4751
17816W        W33625  16.961  16.067   4.178 -0.1003 -0.2891 -0.2872
17817W        W33626   6.896   1.722   5.178 -0.0517  0.0436 -0.2921
17818W        W33627   2.529  15.902   4.565 -0.1666 -0.0031  0.3416
17819W        W33628   7.536  11.189   2.698  0.2079  0.2549 -0.2276
17820W        W33629  10.721  18.364  14.930  0.3284 -0.0746  0.2410
17821W        W33630   8.566   9.927   4.933 -0.0373  0.1104  0.1164
17822W        W33631   6.578   2.799  13.700 -0.1511 -0.1727 -0.0129
17823W        W33632   3.286  13.068   1.097  0.0805 -0.2477  0.3268
17824W        W33633   1.796  13.361   2.732 -0.2212 -0.0282  0.0272
17825W        W33634  13.159   9.257   4.742 -0.0222 -0.1213 -0.2279
17826W        W33635  16.284  13.777   1.452 -0.3352 -0.2353 -0.1250
17827W        W33636   5.868  10.098   1.884 -0.0526  0.1994  0.2728
17828W        W33637   4.426  14.849  11.726  0.0691 -0.1243  0.1359
17829W        W33638   7.810  11.389  10.278 -0.0769  0.2338  0.1067
17830W        W33639  14.498   9.516   2.259 -0.0451  0.2920  0.0484
17831W        W33640   4.212  14.931   2.788  0.4197 -0.0074  0.3904
17832W        W33641   8.427   0.551  13.532  0.0198 -0.1190  0.0455
17833W        W33642  10.124  12.350  10.754 -0.2944  0.0055 -0.0169
17834W        W33643   6.271   5.558   0.167  0.1382 -0.0613  0.0187
17835W        W33644   1.439  17.782   1.744  0.0390 -0.1285 -0.0991
17836W        W33645  10.235  11.528   0.477 -0.1112 -0.2755  0.2017
17837W        W33646   1.450   7.134   1.607  0.2614 -0.0229 -0.0488
17838W        W33647   1.180  14.291   3.859 -0.1781 -0.2350  0.4811
17839W        W33648   1.371   0.021  10.493 -0.0337  0.2445 -0.4243
17840W        W33649  18.742  17.737  12.581  0.0559  0.0711  0.1642
17841W        W33650  12.386   7.991   2.217  0.1553 -0.1210  0.1083
17842W        W33651  12.446   7.115   5.226  0.3481 -0.2000  0.3993
17843W        W33652  10.008   9.884   0.720  0.1369  0.0960 -0.0376
17844W        W33653  10.444  16.848   0.145  0.4258 -0.2441 -0.0534
17845W        W33654  16.846   7.365   4.525  0.1449  0.1357 -0.0858
17846W        W33655  15.417   3.621   4.691  0.0924 -0.0994 -0.0076
17847W        W33656   2.979   2.020   3.510 -0.2213 -0.3512  0.2903
17848W        W33657   9.551  18.478   2.021  0.3498 -0.1115 -0.0742
17849W        W33658   3.827   0.509  13.270  0.1080 -0.0403  0.2211
17850W        W33659   5.236  11.658   5.213 -0.2332  0.1780  0.2603
17851W        W33660   4.709   3.046  15.014  0.0736 -0.1857  0.1055
17852W        W33661  18.454  15.333   1.415 -0.1245  0.0554  0.1822
17853W        W33662   3.593  18.299   0.476 -0.0192  0.2219 -0.1051
17854W        W33663   2.988   7.545   3.952  0.0167  0.2917 -0.1697
17855W        W33664   6.496   1.071   9.589 -0.0572  0.0731 -0.0852
17856W        W33665  12.609   6.808  12.384 -0.3201 -0.0772  0.2940
17857W        W33666  11.761   2.917   2.170  0.0733  0.2393 -0.3716
17858W        W33667  13.805   3.245   0.315 -0.2311 -0.2838 -0.0516
17859W        W33668   9.646   9.317  13.610  0.1373 -0.3793  0.3742
17860W        W33669   6.858  14.197   1.063 -0.1581 -0.2818  0.2083
17861W        W33670   9.925   7.256   0.154  0.2398 -0.1622 -0.1192
17862W        W33671   6.959   4.657   4.932 -0.1192 -0.1448 -0.3077
17863W        W33672   9.249  16.783   2.841 -0.1124  0.1866 -0.0437
17864W        W33673  12.244   8.391   3.067  0.0331  0.2012 -0.1245
17865W        W33674  14.915  11.873  13.681  0.2362  0.1631  0.1034
17866W        W33675  13.386  15.417   2.727  0.2655 -0.2274 -0.3802
17867W        W33676  14.759   3.693  11.937 -0.3322  0.1280  0.1348
17868W        W33677   0.104   4.146  15.056  0.1461 -0.3219  0.1326
17869W        W33678  16.730  10.128  14.325  0.0659 -0.1447 -0.0847
17870W        W33679   0.983  12.238   4.655  0.1314 -0.1962 -0.0373
17871W        W33680   6.981  11.333   2.302 -0.2855 -0.2342 -0.3558
17872W        W33681   5.744   5.841   2.446  0.1740 -0.5004 -0.3046
17873W        W33682   3.790   5.859   1.847 -0.0008  0.0390 -0.0166
17874W        W33683  11.222   5.935  11.942 -0.0966  0.0313 -0.2870
17875W        W33684   3.540  16.756  13.233 -0.1312  0.1777  0.0140
17876W        W33685  17.265   5.074  15.030  0.1097 -0.2854  0.1948
17877W        W33686  15.402  15.747   1.431  0.0957  0.0085 -0.4738
17878W        W33687   3.739   6.230  13.040  0.1123  0.3408 -0.1454
17879W        W33688  11.984  18.909   3.616  0.1384  0.1329 -0.1224
17880W        W33689  10.972  14.023   3.418  0.2576  0.1919  0.3238
17881W        W33690  12.815   2.235   0.382  0.3106 -0.0444  0.2940
17882W        W33691   5.036   8.681  13.334 -0.1071 -0.2201 -0.0768
17883W        W33692   5.306   2.207  13.651 -0.3129 -0.1128  0.2268
17884W        W33693   4.148   3.153  12.590 -0.1153 -0.1114 -0.0375
17885W        W33694   7.652   9.379   4.070 -0.1425 -0.3367  0.3000
17886W        W33695  10.667  11.273   5.293 -0.0930  0.0893 -0.1523
17887W        W33696  16.734  17.165   2.494  0.2388 -0.0404 -0.1715
17888W        W33697  12.367   3.244   1.533  0.0293 -0.0241 -0.0006
17889W        W33698  16.909   3.844   3.281  0.0476  0.1466 -0.0528
17890W        W33699  12.106   9.134   5.177  0.2067 -0.0461 -0.0443
17891W        W33700  11.871   1.659   0.571  0.0874 -0.1544 -0.2754
17892W        W33701   3.706  12.960   1.933  0.1852 -0.0374  0.1984
17893W        W33702   4.783   0.437  10.848  0.0139 -0.0366 -0.1572
17894W        W33703  15.599  10.041  14.125  0.2199 -0.0566  0.2941
17895W        W33704  16.449  12.109   2.517  0.0033 -0.0603 -0.1926
17896W        W33705   6.051  17.036  11.089 -0.0006 -0.1075  0.3692
17897W        W33706   1.690  11.516  13.563  0.3080  0.0041 -0.2028
17898W        W33707  14.063  14.808  12.685  0.0373  0.2747  0.1210
17899W        W33708  13.586   5.349   3.067 -0.1514  0.1465  0.4013
17900W        W33709  18.420   4.201   9.864 -0.2321 -0.0547 -0.0464
17901W        W33710   7.294   8.481   0.367  0.2639 -0.1039  0.1850
17902W        W33711  16.109   6.748  13.051 -0.4091  0.0861 -0.1058
17903W        W33712   9.163   8.290  14.069 -0.0685 -0.0867 -0.1341
17904W        W33713   7.635   7.120  13.883 -0.0793 -0.2430  0.1135
17905W        W33714   3.288  11.040   3.060 -0.1032 -0.1617  0.1027
17906W        W33715  11.454   0.170  13.446  0.1263 -0.1628 -0.1720
17907W        W33716   8.115   8.425   4.707 -0.2994  0.3390 -0.0564
17908W        W33717  16.460  13.936  11.166  0.1498 -0.1718  0.1415
17909W        W33718   7.115  17.746  11.311 -0.2314 -0.2551  0.3009
17910W        W33719   6.781   3.392  13.896 -0.2388  0.0035  0.3708
17911W        W33720  18.408   8.204   3.364 -0.1403 -0.1565  0.0068
17912W        W33721   1.412   1.568   0.558 -0.1636  0.1097 -0.0963
17913W        W33722  14.601  14.215  11.549  0.0523 -0.0077  0.0369
17914W        W33723  13.083   3.057  12.591  0.0832 -0.1561  0.0713
17915W        W33724  13.276   3.516   4.031 -0.4405  0.1905  0.4983
17916W        W33725  16.166  11.134   2.226 -0.1885 -0.1062  0.0459
17917W        W33726   1.186  15.567  10.728  0.2012  0.1243 -0.2470
17918W        W33727  18.125   5.531  14.351 -0.2401 -0.1546  0.2170
17919W        W33728   2.465  10.661   3.147  0.2613  0.0668  0.0353
17920W        W33729  15.033  14.627  11.941  0.0045 -0.0052 -0.0146
17921W        W33730   0.937  10.591   4.026  0.1748 -0.0255 -0.0139
17922W        W33731   2.685   9.092  10.866 -0.1773  0.2181  0.0491
17923W        W33732  18.411   4.076   3.843  0.1714 -0.2034  0.1739
17924W        W33733  17.285   5.364   1.665 -0.3190  0.1234  0.3204
17925W        W33734  17.456   5.467  12.006 -0.1306 -0.1084  0.1125
17926W        W33735   2.115  15.770  15.152  0.1868  0.0048  0.1646
17927W        W33736   2.263  13.580  14.835  0.0643  0.2358 -0.4475
17928W        W33737  15.852  18.010   1.719  0.0512 -0.1557 -0.4654
17929W        W33738   2.730  11.631  12.051 -0.0647 -0.0509 -0.2458
17930W        W33739   4.535  14.844  11.088 -0.1233  0.3418 -0.0445
17931W        W33740   4.005  14.131   0.469 -0.0029  0.1790  0.0097
17932W        W33741  16.153  10.001  13.917 -0.3180 -0.0776  0.0207
17933W        W33742   6.169  17.172   4.720  0.2451  0.2296  0.0827
17934W        W33743   3.532  14.231  14.647 -0.2506 -0.0014 -0.1466
17935W        W33744  17.025   8.006  11.612 -0.2393  0.0271  0.3496
17936W        W33745  16.786   8.147   1.687  0.3240 -0.1254  0.2310
17937W        W33746  17.539   7.087   3.126  0.0904 -0.0605  0.0372
17938W        W33747  13.850   2.224   0.660 -0.0184  0.1805 -0.1119
17939W        W33748  14.086   2.807   3.970  0.1048 -0.0415 -0.2955
17940W        W33749   2.011   3.876   9.993  0.3029  0.0428 -0.1956
17941W        W33750  15.781  17.409  13.292  0.0512 -0.2107 -0.1015
17942W        W33751  12.264  13.801  11.224  0.1772 -0.0223 -0.2415
17943W        W33752  15.936   7.200  12.979 -0.2904 -0.0916  0.1164
17944W        W33753   5.155   8.577   3.438  0.1999  0.0549  0.0846
17945W        W33754   1.380   0.911   2.194  0.3591 -0.1053 -0.0736
17946W        W33755  10.495  16.413   2.445  0.2157 -0.1399 -0.0640
17947W        W33756  10.156   8.854   2.990  0.0534 -0.0616 -0.0103
17948W        W33757  13.914  14.801  11.299  0.2602  0.0658 -0.0707
17949W        W33758  16.713   0.324  10.732  0.0610 -0.0259  0.3243
17950W        W33759  18.598   5.261  14.259 -0.0241  0.1358  0.4727
17951W        W33760   1.064  15.471  12.819  0.0656  0.0989 -0.0002
17952W        W33761  11.020  16.627   0.021 -0.1453  0.2906 -0.0215
17953W        W33762  12.026  12.848  13.756 -0.0919  0.2400  0.0945
17954W        W33763   2.453  15.581   0.689  0.2482  0.0779 -0.1896
17955W        W33764   3.740   1.659  12.246  0.2501  0.2170  0.1457
17956W        W33765   3.084   2.029   4.000  0.1918 -0.0222 -0.2797
17957W        W33766   8.285   7.300  14.890 -0.2233  0.1625  0.1408
17958W        W33767   0.335   0.934  10.643 -0.1015 -0.0337 -0.1877
17959W        W33768   6.100   0.886  11.885 -0.2371 -0.1522  0.0228
17960W        W33769   5.459   6.999   0.805 -0.3557 -0.1474  0.1698
17961W        W33770   9.539   0.134  10.655  0.1138 -0.1451  0.1263
17962W        W33771  15.857   0.455   0.033  0.1893 -0.1776 -0.1956
17963W        W33772  10.426   7.430   1.294 -0.0743 -0.0291  0.2432
17964W        W33773  17.233  18.544  11.628 -0.0535 -0.0283  0.6545
17965W        W33774   4.201   8.564   5.400  0.1081 -0.3235  0.0627
17966W        W33775   3.583   9.189   0.495  0.1031  0.2535 -0.1043
17967W        W33776   1.903  12.021  11.048 -0.1226  0.0782  0.1552
17968W        W33777  11.253   9.051   4.866 -0.2773 -0.3462 -0.0665
17969W        W33778  14.926   9.589  15.206 -0.0367  0.0144 -0.0904
17970W        W33779  11.545   5.153  12.478 -0.1382 -0.1546 -0.3600
17971W        W33780   3.742   2.046  10.891  0.2261 -0.1433 -0.2948
17972W        W33781   9.020  13.414   2.507 -0.1907  0.0324 -0.0416
17973W        W33782   3.619  16.390   5.410 -0.1032 -0.3116  0.2213
17974W        W33783  13.252  17.200  15.185 -0.1514  0.4371 -0.1369
17975W        W33784   0.134   0.177  13.617  0.0434  0.0839  0.0401
17976W        W33785  18.478   2.228   2.165  0.0751 -0.1142  0.0775
17977W        W33786   7.398  13.306  11.382  0.0667  0.2846  0.1201
17978W        W33787   6.168   3.583   9.090  0.3255 -0.0942 -0.0868
17979W        W33788   9.720   3.250   9.208  0.2347 -0.0505  0.2068
17980W        W33789  17.301   9.680   3.356  0.0849  0.0325 -0.2967
17981W        W33790   0.821   5.077   3.854  0.5128  0.1122 -0.0786
17982W        W33791   2.225   4.135  11.047  0.2410  0.3808 -0.3252
17983W        W33792   0.865  14.601   4.325 -0.0717  0.0490  0.1059
17984W        W33793  17.513   2.586   1.228 -0.0850 -0.1530 -0.1766
17985W        W33794  11.029   7.680   0.847 -0.3851 -0.2847  0.0557
17986W        W33795   4.639  17.684   3.772  0.0066  0.0970 -0.2033
17987W        W33796  13.107  14.012  14.767  0.2856  0.0731  0.0586
17988W        W33797  16.300  17.113  11.543 -0.1784 -0.2874 -0.2531
17989W        W33798  17.427  15.569  14.562  0.3453 -0.0939 -0.1830
17990W        W33799  13.562   0.085   1.234 -0.0223  0.0570 -0.0168
17991W        W33800  11.460  12.306  12.135  0.1916 -0.3297  0.2077
17992W        W33801   8.559  18.362  13.063 -0.2687  0.0026  0.1649
17993W        W33802  10.787   6.477   2.473 -0.0935  0.0646 -0.1651
17994W        W33803   1.962  12.989  11.537 -0.0640 -0.0031  0.0708
17995W        W33804   7.821  15.990   4.486  0.1865 -0.0187 -0.0846
17996W        W33805   1.578   4.919  13.296  0.0097  0.4422 -0.0197
17997W        W33806   9.719  16.875   5.338 -0.0050 -0.0268  0.4987
17998W        W33807   1.688  18.697   2.893 -0.0685  0.1915 -0.1781
17999W        W33808  13.127   4.203   4.140  0.1069  0.0735 -0.0815
18000W        W33809  17.288  12.679  12.464 -0.2070 -0.2789 -0.0894
18001W        W33810  15.632   6.086  14.266 -0.0201  0.2851  0.2406
18002W        W33811  18.638   4.729  14.240  0.0493 -0.2498  0.1095
18003W        W33812   0.872  18.251  11.500 -0.2402  0.0627  0.0258
18004W        W33813  10.334  17.670   2.542 -0.1800 -0.0167 -0.0298
18005W        W33814   1.503  17.448   3.481 -0.0595 -0.0552  0.1471
18006W        W33815   3.827   8.933   5.035  0.0188  0.1151 -0.1032
18007W        W33816   8.602  14.446  12.153  0.3015 -0.1684  0.2348
18008W        W33817  17.512  14.426  13.025  0.0328 -0.1862  0.1198
18009W        W33818   7.984   1.506   2.838 -0.0971 -0.0987  0.0169
18010W        W33819  16.441  13.528  13.171  0.2203  0.4222  0.1572
18011W        W33820  15.360   8.341   1.891 -0.2457  0.1959 -0.3187
18012W        W33821  11.098   5.668  11.085 -0.1131 -0.1284  0.4016
18013W        W33822   8.847  10.436   0.291  0.0010 -0.1965  0.3313
18014W        W33823  18.447  15.162   0.199 -0.0436  0.2295  0.0194
18015W        W33824  11.066   6.867   2.048 -0.0645 -0.0314  0.1120
18016W        W33825   1.879   2.896  14.994 -0.0159  0.0496 -0.5744
18017W        W33826  11.282  10.388   0.571 -0.2186 -0.4519  0.1899
18018W        W33827   3.154  17.072   0.403  0.1093  0.2323  0.1217
18019W        W33828   7.234   1.353  11.133  0.1187  0.0208 -0.0122
18020W        W33829  11.912   8.383  13.546  0.1008  0.1645  0.0454
18021W        W33830   4.407   7.216   1.701  0.5289 -0.1522 -0.2306
18022W        W33831  18.974   1.691   3.070  0.0366 -0.0104 -0.0204
18023W        W33832   4.810  11.350   2.880 -0.3995 -0.0172  0.1433
18024W        W33833   3.847  14.965   0.351  0.2145 -0.3410  0.1205
18025W        W33834  17.089  12.882   0.811 -0.0462  0.1169 -0.0631
18026W        W33835   5.538   0.928  10.625  0.0215  0.0175 -0.1111
18027W        W33836   6.375   2.569   4.142 -0.0082 -0.0248  0.0426
18028W        W33837  17.457   2.049  14.401  0.0899 -0.0418 -0.2706
18029W        W33838   4.395  12.605  12.492 -0.0596 -0.1896  0.0785
18030W        W33839   8.078   1.978   3.047  0.1384 -0.2284 -0.3808
18031W        W33840   3.066  17.727  14.359 -0.2857  0.1594 -0.1886
18032W        W33841   6.918   4.561  11.675 -0.0274  0.2161 -0.2772
18033W        W33842   8.392  17.392  12.302  0.1178 -0.0301 -0.3295
18034W        W33843  10.882   7.126  10.999  0.3192 -0.3235 -0.2638
18035W        W33844   0.963   9.855  14.661 -0.0164  0.3275 -0.3143
18036W        W33845  12.847   0.985  11.822  0.1290 -0.1926 -0.0052
18037W        W33846  16.855   0.982  12.845  0.2317 -0.0902 -0.2243
18038W        W33847  12.776  14.587   0.220 -0.0256 -0.1643 -0.0320
18039W        W33848   3.043  14.433   1.255  0.2054 -0.0593  0.1351
18040W        W33849   0.894   8.510   1.221  0.0177  0.0238  0.0903
18041W        W33850   9.544  11.404   5.217 -0.1069 -0.0744 -0.4269
18042W        W33851   8.861   8.871  13.995  0.0127  0.0548 -0.0664
18043W        W33852   2.273  15.945   3.887 -0.1398  0.3016 -0.3146
18044W        W33853  17.195   4.026  13.711 -0.4468  0.2328  0.0193
18045W        W33854  14.971  17.676  13.560 -0.0929 -0.1078  0.0814
18046W        W33855  13.228  10.623   2.240  0.3954  0.1757 -0.1059
18047W        W33856   6.590   3.230   4.948 -0.0208 -0.0558 -0.2341
18048W        W33857  17.299   6.831  10.928 -0.3479  0.1315  0.1124
18049W        W33858  18.657   1.751   3.516 -0.0212  0.2306  0.0955
18050W        W33859   8.466  14.484  11.689 -0.0953  0.0421  0.2751
18051W        W33860   5.650   4.684  10.686  0.0382  0.3228  0.4219
18052W        W33861   3.884   8.015  13.948 -0.0274 -0.0169 -0.0429
18053W        W33862  14.373   5.210   3.324 -0.2821 -0.0290  0.0025
18054W        W33863   1.397   7.461  12.404 -0.1541  0.2312  0.2112
18055W        W33864   6.379  11.075   3.564  0.1218 -0.3010 -0.0524
18056W        W33865   0.692  18.427   4.958  0.2962 -0.1086 -0.1343
18057W        W33866   7.494   0.676  12.404  0.0684  0.2149  0.2767
18058W        W33867   2.922  14.563  13.598 -0.0190  0.0009 -0.0254
18059W        W33868   8.710  15.568  15.178 -0.0717 -0.0081  0.0998
18060W        W33869   1.969   5.831   2.360 -0.1325  0.2234 -0.0386
18061W        W33870  16.240  13.273   2.254  0.1576  0.3517  0.0620
18062W        W33871   5.134  11.290   0.544 -0.0622  0.2405 -0.1388
18063W        W33872   6.372  13.650   2.385 -0.1199 -0.0494  0.1087
18064W        W33873  11.621  14.351  10.736  0.1138  0.2635 -0.2891
18065W        W33874   7.189   6.414   3.202  0.2853  0.2671  0.2700
18066W        W33875  17.075  16.860  14.367  0.1177  0.0526  0.1728
18067W        W33876   7.343  16.075  10.222 -0.2349 -0.1950  0.1649
18068W        W33877   1.358  12.268   1.150 -0.0131  0.2628  0.0636
18069W        W33878  16.114  16.834  11.944 -0.0808  0.2308 -0.2541
18070W        W33879   7.782   9.987  10.813 -0.1048  0.1412 -0.1078
18071W        W33880   7.462   5.156   4.026 -0.0211 -0.0000  0.1412
18072W        W33881  16.282  12.048   3.643 -0.1307 -0.0274 -0.1042
18073W        W33882   6.649   3.459   3.638  0.2671  0.2913  0.0897
18074W        W33883  11.703   2.422   2.192 -0.0157 -0.3017  0.0902
18075W        W33884  12.830   9.977   0.731 -0.1619  0.3785 -0.2004
18076W        W33885   5.627  18.440   0.095  0.1672 -0.1433  0.0939
18077W        W33886  16.845  10.897  15.140 -0.0431 -0.1159  0.2864
18078W        W33887  17.136   5.560  13.402  0.1915  0.0529 -0.0494
18079W        W33888  10.681  15.473   4.780  0.0589 -0.2694  0.0888
18080W        W33889  18.456   5.409  12.817  0.0165 -0.0026  0.1344
18081W        W33890  17.124  17.918   0.829 -0.0993 -0.1104 -0.1836
18082W        W33891  11.138   7.015  11.703 -0.1135 -0.3516  0.2238
18083W        W33892   2.644  11.246  11.051 -0.0711  0.1011  0.2737
18084W        W33893  19.119  12.537  11.715 -0.3702  0.1591 -0.4353
18085W        W33894   9.683   1.437   4.200  0.0509  0.0457  0.0078
18086W        W33895  16.294   3.824   0.415  0.2003  0.0068 -0.1581
18087W        W33896   2.483  11.743   2.363  0.1054 -0.1256 -0.0260
18088W        W33897   2.930   1.576  12.251  0.3227 -0.1202 -0.3769
18089W        W33898  13.211   5.802  11.514 -0.0430  0.0552  0.6485
18090W        W33899  14.214  16.249  13.429 -0.1035  0.1991 -0.0846
18091W        W33900   8.508  15.077   2.083  0.1083  0.1051  0.1246
18092W        W33901  16.764  15.258   0.090 -0.4307  0.0614 -0.0222
18093W        W33902   4.791   2.050  11.242  0.3246 -0.5171 -0.2625
18094W        W33903  10.381   6.720  14.787 -0.2145  0.0480  0.0289
18095W        W33904   7.824   8.503  10.926  0.2842 -0.1811 -0.1179
18096W        W33905  12.508  13.202  10.983  0.2755  0.0767  0.0370
18097W        W33906  12.025   6.933   4.033  0.2984  0.1447  0.3609
18098W        W33907  17.726   1.110  13.230 -0.1220  0.2219  0.1801
18099W        W33908   2.115   1.071  13.580  0.0772  0.1414 -0.1467
18100W        W33909  10.607  15.346  11.985  0.2231  0.1714  0.3428
18101W        W33910  15.370  10.739  14.775 -0.2716  0.1468  0.1473
18102W        W33911  11.875   3.988   0.263  0.3231 -0.1521 -0.0879
18103W        W33912  18.921   5.868   0.223  0.1708 -0.0035  0.0871
18104W        W33913   7.218   1.028  10.150  0.2410 -0.3160  0.1236
18105W        W33914   9.826  17.410   3.213  0.2069 -0.2020 -0.1576
18106W        W33915  18.746  12.562   4.037  0.4124  0.1993 -0.1634
18107W        W33916  18.851  13.607  14.806 -0.1930 -0.3170  0.1407
18108W        W33917   9.892  15.296  11.677  0.2684  0.0701 -0.0087
18109W        W33918   1.612   8.983   4.881 -0.2062  0.1916 -0.0624
18110W        W33919   5.257   7.067  14.440  0.2349 -0.1765 -0.1077
18111W        W33920   6.191  19.049  11.131 -0.0710  0.0125  0.2004
18112W        W33921  11.496  17.657   1.399 -0.2816 -0.0679 -0.1151
18113W        W33922  12.312  15.552   1.027  0.1467  0.0484 -0.0690
18114W        W33923  14.517   2.810  11.765  0.1935 -0.0147 -0.0527
18115W        W33924   5.222  11.946   2.090 -0.2681  0.0466 -0.0982
18116W        W33925   1.965  17.106   2.316 -0.0367  0.0587 -0.4785
18117W        W33926  14.274   7.073  12.078  0.1005 -0.1037 -0.3932
18118W        W33927  11.625  11.591   0.189 -0.1949  0.0529 -0.1688
18119W        W33928   9.097  14.609   4.011 -0.0015  0.0482 -0.1472
18120W        W33929   9.476   5.593   4.785  0.1328 -0.3595  0.2062
18121W        W33930   1.677   4.295   0.434 -0.2046  0.1225 -0.0724
18122W        W33931   6.376  14.093  12.752 -0.1265 -0.2705 -0.2251
18123W        W33932   6.773   1.332   0.412  0.1458  0.0917 -0.0073
18124W        W33933   9.023  14.664   0.100  0.0469 -0.3283 -0.0491
18125W        W33934  18.940  17.896  12.015 -0.0617 -0.2494  0.0334
18126W        W33935   3.739   1.060  11.021  0.1698  0.1120  0.1325
18127W        W33936  11.867   6.190   1.946  0.0102 -0.4586  0.4267
18128W        W33937  13.714  12.766  10.126  0.0762  0.2236 -0.1086
18129W        W33938  10.805   4.393   0.416 -0.0514  0.1660 -0.1852
18130W        W33939   5.614   8.283  10.992  0.0752  0.0403 -0.1979
18131W        W33940   5.606  16.353   2.505 -0.0300 -0.2281  0.4359
18132W        W33941   9.245  13.186  15.042 -0.0983  0.0771  0.0409
18133W        W33942  14.145   0.258  14.296 -0.1439 -0.1425 -0.2308
18134W        W33943   4.921  13.524   4.035  0.1896 -0.1940 -0.0208
18135W        W33944   8.473   1.693   0.781 -0.0442  0.4897  0.2043
18136W        W33945  13.585  10.986  12.919  0.2360 -0.1092  0.1699
18137W        W33946   8.708  16.434  14.920 -0.0227 -0.1162 -0.3450
18138W        W33947   5.653   5.925  12.651  0.0680 -0.1182 -0.0526
18139W        W33948   6.368  15.754   2.574  0.1239 -0.1896  0.1678
18140W        W33949   8.132   7.080   0.472 -0.1437  0.2190  0.0909
18141W        W33950  14.781  14.235   5.075  0.1492  0.1440 -0.1097
18142W        W33951  13.823   5.871  14.069  0.3059  0.0258  0.2144
18143W        W33952   5.686  18.298  13.355 -0.2681  0.1137  0.1334
18144W        W33953   0.822  13.911   1.131 -0.1851 -0.1652  0.0023
18145W        W33954   1.823  15.607   4.600  0.1223  0.2874  0.0260
18146W        W33955  14.388  12.095  14.516  0.2134 -0.3519 -0.0127
18147W        W33956   6.952  15.999   4.287  0.2834 -0.0794  0.0765
18148W        W33957  17.560  14.503  12.342  0.2226  0.2666  0.0775
18149W        W33958   8.976  11.042  12.503 -0.4151 -0.2289  0.2138
18150W        W33959  15.950  13.425   4.824  0.2180  0.1129 -0.2295
18151W        W33960   2.929  15.762   0.861 -0.4528  0.2682  0.2925
18152W        W33961   9.492  14.508  10.990  0.1320  0.1418 -0.1113
18153W        W33962   0.338   8.568  14.820 -0.0482  0.3896 -0.0398
18154W        W33963   2.552  15.194   1.003  0.2082  0.0724 -0.0744
18155W        W33964  16.481  15.681  14.531 -0.0794  0.0761 -0.0731
18156W        W33965  15.285   1.104   3.143 -0.2315 -0.2019 -0.0991
18157W        W33966   6.274   7.021   2.822 -0.0624  0.4001 -0.4006
18158W        W33967  13.672  13.740   1.281 -0.0097 -0.0751  0.0500
18159W        W33968  14.350  16.359   2.389  0.0561 -0.1150 -0.2273
18160W        W33969   6.685  11.681  12.629  0.0098 -0.0759 -0.2356
18161W        W33970  17.695   1.237   0.908  0.1546  0.2244 -0.3228
18162W        W33971   4.682   6.559   3.448 -0.0089 -0.3762  0.1496
18163W        W33972   8.448   4.704  11.043  0.0522  0.2213 -0.0652
18164W        W33973   0.278   8.091   5.316 -0.0834  0.0340 -0.1593
18165W        W33974  19.132   3.987   0.303  0.1255 -0.2482  0.0381
18166W        W33975  16.056  11.984  11.439 -0.2923 -0.1172 -0.4191
18167W        W33976   4.448  18.991   2.444  0.2005  0.1244 -0.0308
18168W        W33977   4.989  13.202   1.390 -0.1943 -0.3019  0.0436
18169W        W33978   8.919   9.012   3.498  0.2607 -0.0110  0.1289
18170W        W33979   7.593  17.160  13.312  0.0686  0.2077 -0.0723
18171W        W33980   0.650   8.208  11.151 -0.3149 -0.1218  0.1446
18172W        W33981  15.053   2.162   5.647 -0.1030 -0.1055  0.0248
18173W        W33982   3.967  15.599  12.524  0.0880 -0.2877 -0.0260
18174W        W33983   3.885  12.709  14.506 -0.0064 -0.1636 -0.1081
18175W        W33984  10.424   9.143   3.493  0.0364  0.0056  0.1572
18176W        W33985  10.514   5.344   0.731 -0.0558  0.0573  0.1074
18177W        W33986   9.542  13.876  13.611 -0.0697 -0.0515 -0.0128
18178W        W33987  12.811  17.381   5.192 -0.2365 -0.3047  0.1361
18179W        W33988  13.837   5.220   1.993 -0.0680 -0.0135  0.1609
18180W        W33989   5.370  13.497  14.284  0.3085  0.3322  0.2743
18181W        W33990  14.269  14.867   1.946  0.1326 -0.0670 -0.0812
18182W        W33991   1.327  18.852  11.407 -0.0839 -0.0518 -0.0054
18183W        W33992  10.805  16.171   0.143 -0.4416  0.1245  0.3021
18184W        W33993   6.236  13.162   1.501  0.0089 -0.1521  0.0576
18185W        W33994  18.159   9.498  12.749 -0.1089 -0.1400  0.0238
18186W        W33995   9.484   3.624   1.398 -0.2955 -0.2498 -0.3277
18187W        W33996   1.750   0.860   2.774  0.6246  0.1630 -0.0644
18188W        W33997   3.188  10.908  13.120  0.0322  0.1627 -0.5342
18189W        W33998  12.278  15.986   1.395  0.2344 -0.2610  0.2568
18190W        W33999  11.321   5.066  14.157 -0.1029 -0.0288  0.0392
18191W        W34000  16.155  15.431  12.271  0.2180  0.1074  0.0182
18192W        W34001   7.235   1.860   1.789  0.1503  0.4128  0.0759
18193W        W34002   6.122  12.547   0.748  0.1937 -0.2766 -0.1634
18194W        W34003  11.983   1.383   0.074  0.3595 -0.1724  0.1394
18195W        W34004   0.763  12.391  12.764 -0.1611 -0.3567  0.2739
18196W        W34005   8.677   4.826   1.847 -0.0626 -0.1549 -0.0571
18197W        W34006   2.635  16.551  14.057 -0.0845 -0.0613 -0.4353
18198W        W34007  12.683  13.582   2.284 -0.0054  0.1134 -0.2243
18199W        W34008   6.877   1.308   3.548 -0.0178  0.0464 -0.3628
18200W        W34009  18.552  12.948   0.747 -0.2398 -0.0106  0.0088
18201W        W34010   5.598   4.041  11.460 -0.0277  0.1985  0.4056
18202W        W34011  17.465   8.276  14.255  0.1707 -0.1010 -0.1617
18203W        W34012  18.474  13.336   0.481 -0.2098 -0.0229 -0.3077
18204W        W34013  11.450   9.421   2.839  0.2777 -0.2302 -0.2673
18205W        W34014  15.445   4.470  12.147 -0.0396  0.1798 -0.1167
18206W        W34015   7.258  18.462   3.676  0.3163 -0.0901  0.0080
18207W        W34016  14.669  15.401   2.098  0.2391  0.4604 -0.1564
18208W        W34017  16.891  13.123  10.869 -0.2576 -0.1115  0.0274
18209W        W34018   5.253   9.418  12.074  0.0897 -0.2463  0.1185
18210W        W34019   1.438  12.048   1.596  0.1249 -0.3783  0.2353
18211W        W34020   9.334   7.255   4.826  0.2401 -0.0729  0.0426
18212W        W34021   0.195  14.721   3.718  0.2190 -0.1063 -0.1604
18213W        W34022   4.989   8.110   9.912  0.1199 -0.2381 -0.0583
18214W        W34023   7.210   7.049  13.425 -0.1193  0.4305 -0.4889
18215W        W34024  15.440  16.131   0.112  0.2687  0.1599  0.1874
18216W        W34025  11.833  14.531  11.864  0.0087  0.0154  0.2185
18217W        W34026   9.692  17.558   0.226 -0.0356  0.2321 -0.1042
18218W        W34027  13.626  15.776   2.947  0.0604  0.1183 -0.0150
18219W        W34028   5.499   7.564  10.517  0.3452 -0.2403 -0.0284
18220W        W34029   5.549   6.540  10.842 -0.4158  0.1054 -0.3577
18221W        W34030   7.047  11.794   2.132  0.1312 -0.0488 -0.0531
18222W        W34031   3.055  14.499  12.057 -0.4760  0.2145 -0.0992
18223W        W34032  15.724  10.791  12.818 -0.0912 -0.3056 -0.1127
18224W        W34033   4.102  15.174  12.267  0.2238  0.4997  0.1436
18225W        W34034   4.653   8.022  11.738  0.2976 -0.2038 -0.2671
18226W        W34035  14.783  13.898  14.126  0.1146  0.1681 -0.2267
18227W        W34036  16.328   9.207  15.264 -0.0621 -0.1828  0.2263
18228W        W34037   0.742  10.962  10.459 -0.3475 -0.0958 -0.0688
18229W        W34038  16.662  16.695  14.595  0.0357  0.3353  0.0947
18230W        W34039   1.367   6.760   9.517  0.0974  0.4679  0.3127
18231W        W34040   6.696   5.646  12.424 -0.1211 -0.2768 -0.1630
18232W        W34041  15.250   8.906   4.085 -0.0517 -0.1093  0.0090
18233W        W34042  16.016   1.851   0.921 -0.1100  0.1451 -0.1578
18234W        W34043  12.730   2.743   2.454  0.0624 -0.0395 -0.0437
18235W        W34044   3.171  11.526  12.276  0.1716  0.0059  0.2050
18236W        W34045   1.429  11.247   2.930  0.2860  0.4093  0.1236
18237W        W34046  14.589  17.537  13.921 -0.1207 -0.2189  0.0064
18238W        W34047  16.820   1.944  12.624 -0.0156  0.2049 -0.0174
18239W        W34048   2.045  14.581   2.208 -0.0193 -0.1536  0.3317
18240W        W34049  13.095   4.493  10.491 -0.0018  0.2674  0.2230
18241W        W34050   7.783   5.552   4.006 -0.0241  0.1709 -0.2858
18242W        W34051   2.817   4.891  12.929  0.4119  0.1694 -0.0794
18243W        W34052  18.223   9.792   1.768  0.0309  0.0281 -0.1257
18244W        W34053   2.093   9.026  14.297  0.2917 -0.2160  0.2340
18245W        W34054  17.836  16.682  12.151  0.1927  0.0745  0.1167
18246W        W34055   5.526  16.025   5.680 -0.1622 -0.0368  0.2817
18247W        W34056  17.804  10.774   4.869  0.1829 -0.1666  0.0783
18248W        W34057   3.094  18.423  13.131 -0.0218 -0.2073  0.0247
18249W        W34058   2.817  17.509  13.901 -0.1334 -0.2383  0.2834
18250W        W34059  15.664  13.140   2.410  0.2474  0.1291 -0.2213
18251W        W34060  16.460   0.685   2.202 -0.2663  0.0162 -0.1883
18252W        W34061  11.991  14.877  10.973 -0.1515  0.0088  0.0029
18253W        W34062  14.645   3.851   1.216  0.2653  0.0522  0.1765
18254W        W34063   3.051   2.608   4.128 -0.1266 -0.0468 -0.0258
18255W        W34064  18.405  15.440   3.417 -0.1668 -0.3977 -0.0408
18256W        W34065  16.179  10.945  12.961 -0.0625 -0.1124 -0.0079
18257W        W34066   1.169  12.723   0.297  0.0114 -0.1469 -0.3478
18258W        W34067   1.961   7.637  13.859  0.0930  0.1662  0.1592
18259W        W34068   3.223   4.505  12.305 -0.0532 -0.0352 -0.0947
18260W        W34069   8.728   6.191  10.823  0.0924 -0.0034 -0.2384
18261W        W34070   8.301   8.851  13.971  0.1824 -0.0418 -0.0538
18262W        W34071   3.487  19.101  13.077 -0.0302 -0.4654  0.0984
18263W        W34072  11.943   1.615  14.286  0.1387 -0.2470  0.3088
18264W        W34073  14.816   7.404  14.860 -0.2048 -0.0530 -0.0457
18265W        W34074   0.560   8.498   3.159 -0.2640  0.2535  0.2762
18266W        W34075  17.411   7.556  15.083  0.2028 -0.2191 -0.3211
18267W        W34076   6.820   6.439   3.600 -0.2046  0.0334  0.1297
18268W        W34077   1.997   6.449  14.731 -0.3499 -0.0075  0.0615
18269W        W34078  12.993  12.575   0.766  0.1554  0.0027  0.0900
18270W        W34079   4.054  12.951  10.708  0.3812  0.0302  0.2013
18271W        W34080   2.428  10.797  12.892  0.3420  0.1513 -0.2598
18272W        W34081   9.909  11.389   4.255  0.0754 -0.2323 -0.0201
18273W        W34082  16.466   7.860   9.522  0.2162 -0.0358  0.0011
18274W        W34083   5.851  18.618   2.762 -0.3323  0.2486  0.3381
18275W        W34084  10.430   4.679  12.217  0.2574  0.2357  0.2412
18276W        W34085   4.569  12.126   5.241 -0.1010  0.0582  0.0109
18277W        W34086   6.443  15.846  10.125  0.1826 -0.0921  0.3375
18278W        W34087  14.743   5.233  15.055  0.0529 -0.0229 -0.1663
18279W        W34088   1.862   6.563  11.503  0.0170  0.2425 -0.1355
18280W        W34089   0.847   0.587   9.385 -0.0520  0.0009  0.2368
18281W        W34090   9.588   0.796   5.204  0.5700  0.1656  0.1593
18282W        W34091   1.810   4.162  13.869 -0.1257  0.2376  0.2177
18283W        W34092  16.108  17.789  11.513 -0.0186  0.0557  0.0157
18284W        W34093  15.926  13.372   3.806  0.3281 -0.0229  0.2080
18285W        W34094   1.308  14.146  12.356 -0.0062 -0.3238 -0.1289
18286W        W34095  12.787  17.856  13.150 -0.2533  0.2593 -0.2936
18287W        W34096   8.838   5.030   3.602  0.1116  0.2240 -0.3196
18288W        W34097   8.851  10.710   2.384 -0.0632 -0.0267 -0.2080
18289W        W34098   6.001  16.674   4.073 -0.0700 -0.1388 -0.0087
18290W        W34099   1.553  17.714  13.883 -0.0712 -0.1995  0.1851
18291W        W34100   9.211   7.010  14.933 -0.1213  0.1605  0.1635
18292W        W34101   9.679   6.990   1.924 -0.1258  0.2906  0.4550
18293W        W34102   7.707  12.943  12.138  0.2328 -0.0560 -0.2500
18294W        W34103  17.466  13.091  11.029 -0.1085  0.4394  0.2613
18295W        W34104   2.577  13.648  15.244 -0.0652  0.1452 -0.0630
18296W        W34105   3.591   1.345   0.283  0.1656 -0.2682  0.0020
18297W        W34106   5.231  17.754  13.582 -0.0790 -0.2716 -0.2555
18298W        W34107   6.946   5.408  13.010  0.1566  0.0710 -0.0136
18299W        W34108   2.280   7.066  12.813 -0.0257  0.0224 -0.1500
18300W        W34109  18.483   7.987   5.067  0.1125 -0.1064 -0.0390
18301W        W34110   2.444   6.858   2.510 -0.2461  0.0288  0.0593
18302W        W34111  13.285  14.617   0.803 -0.1457  0.1179  0.0483
18303W        W34112  12.638   9.333  11.288  0.1298  0.4751 -0.0580
18304W        W34113   4.581  10.597   1.464  0.1161 -0.2258 -0.2142
18305W        W34114   9.570  17.607   1.324  0.2426 -0.2172 -0.1522
18306W        W34115  18.896   2.167   2.459  0.0772 -0.2314 -0.0264
18307W        W34116  18.803   7.653   2.560 -0.0168  0.0133  0.0453
18308W        W34117   9.609   0.469   4.073  0.3658  0.0857  0.4297
18309W        W34118  18.486  18.788   2.778  0.0658  0.0086 -0.0361
18310W        W34119  12.083   5.150   2.029 -0.0484  0.0444  0.3077
18311W        W34120   8.686  14.857   4.372  0.1976  0.0864  0.0166
18312W        W34121  12.314  15.850   2.563  0.0995 -0.0133 -0.1276
18313W        W34122  10.378   7.876  13.583 -0.2332 -0.0703 -0.0090
18314W        W34123   0.885   6.721  11.519 -0.1535  0.4652  0.2544
18315W        W34124   4.702  15.331   4.909 -0.1382 -0.1938 -0.1727
18316W        W34125  12.208  17.961  14.507  0.1610  0.2830  0.1221
18317W        W34126  17.951   2.883  10.899 -0.0796  0.0733 -0.3189
18318W        W34127   7.505  15.005   4.728  0.2720 -0.1603  0.0193
18319W        W34128  12.838  15.413  13.663 -0.0798 -0.0977  0.0395
18320W        W34129   9.698  17.141   1.174  0.1767  0.2356  0.2316
18321W        W34130   3.438   4.462   0.987 -0.0187  0.0496  0.0120
18322W        W34131  12.176   7.422  12.033  0.1084  0.1899  0.0960
18323W        W34132  12.270   1.401   3.506  0.0708 -0.4211  0.1816
18324W        W34133  11.392   5.430   4.175  0.2377  0.1020  0.1693
18325W        W34134  17.000   7.623   1.934  0.0970  0.1979 -0.0932
18326W        W34135   9.074   9.419   2.360  0.0185  0.2984 -0.2375
18327W        W34136  14.282  16.555  12.400 -0.2901 -0.0469 -0.2843
18328W        W34137   8.076  10.616  13.333 -0.0588  0.0319  0.1693
18329W        W34138   6.836  15.414  13.565 -0.1939 -0.0063 -0.1541
18330W        W34139   5.240   7.742   3.960 -0.1279 -0.2045  0.1607
18331W        W34140   9.423   7.641   2.309 -0.0267 -0.1641  0.2188
18332W        W34141  16.849   8.368   4.089  0.0087 -0.1272 -0.0750
18333W        W34142   7.573   6.632  12.647 -0.2357  0.1447 -0.3285
18334W        W34143  14.629  15.144   3.235  0.1841 -0.1804 -0.1512
18335W        W34144   4.882  14.450  10.080  0.1619 -0.0467  0.0212
18336W        W34145   9.522   7.795   3.218 -0.1535 -0.2759  0.1412
18337W        W34146  12.356   3.700  10.424  0.0578 -0.4097  0.3375
18338W        W34147   7.052   3.073   2.333  0.2811  0.3138 -0.2426
18339W        W34148   3.081   8.189  10.970 -0.1429 -0.0268 -0.2809
18340W        W34149  15.909   9.468   2.070  0.0339  0.1825  0.2552
18341W        W34150  18.370   0.075   5.797  0.0607  0.1538 -0.0239
18342W        W34151  16.897  11.426   2.042  0.1177 -0.0667  0.0116
18343W        W34152   3.625  14.568  12.833 -0.0231  0.2281  0.1002
18344W        W34153   6.972  17.777   3.389 -0.1788 -0.0719  0.1284
18345W        W34154  10.990  15.915   1.410  0.1947  0.0549  0.1720
18346W        W34155   4.567   2.351  10.898 -0.1213  0.4459  0.1357
18347W        W34156   4.326   6.740   2.647  0.0913  0.2697  0.2061
18348W        W34157  11.023  11.324   0.865  0.1251 -0.1018  0.0362
18349W        W34158  15.310   8.707   3.298  0.1561 -0.1267  0.0026
18350W        W34159   9.738  12.216  11.716  0.1189  0.1628 -0.1357
18351W        W34160  16.102  18.281   3.144 -0.2254  0.1518  0.2419
18352W        W34161   1.093  15.166  11.124 -0.0019  0.2175 -0.2325
18353W        W34162  12.687   4.517   0.756  0.0964 -0.2648  0.1047
18354W        W34163   8.527  14.138   0.563  0.3036 -0.0374  0.1652
18355W        W34164   5.974   7.126  11.664 -0.0674 -0.0610  0.3391
18356W        W34165  17.203   2.035  13.548  0.1537 -0.0271 -0.0024
18357W        W34166  19.043   9.083   4.304 -0.0802  0.2949 -0.1158
18358W        W34167   9.570  11.715  14.430  0.2155 -0.2255  0.3788
18359W        W34168   4.417  13.410   3.914 -0.1763 -0.3173  0.0771
18360W        W34169   0.048  10.551  12.071 -0.1494 -0.1999  0.2911
18361W        W34170   4.428   8.765   0.171  0.2137 -0.2868 -0.0822
18362W        W34171   0.246  13.566   0.244  0.2292  0.0595  0.2439
18363W        W34172   6.662   5.240   1.691 -0.0795  0.1163  0.0750
18364W        W34173   9.239   0.330  12.662  0.0462  0.4335 -0.1531
18365W        W34174  18.039  16.165  10.818  0.0268  0.0500 -0.1902
18366W        W34175   1.930  18.127   2.834  0.1797  0.0575  0.2935
18367W        W34176  19.054  13.748  11.425 -0.2437  0.4712 -0.0501
18368W        W34177   1.678  11.198   0.356  0.0901  0.0680  0.1087
18369W        W34178   8.605   0.773   1.303  0.3232 -0.1642  0.2675
18370W        W34179  15.221  11.241   2.652 -0.0808  0.1937 -0.0445
18371W        W34180  12.225  12.173   0.642 -0.1543  0.1723 -0.0879
18372W        W34181  18.289  12.771   4.839 -0.1541  0.2885 -0.0705
18373W        W34182   2.359  11.523  13.575  0.2557  0.0957  0.0782
18374W        W34183  17.204   1.892   2.263 -0.0485 -0.0173 -0.0546
18375W        W34184   0.050  10.861  11.590  0.0843  0.1093 -0.1819
18376W        W34185   8.923  16.995   2.079 -0.0486  0.0728  0.0824
18377W        W34186   9.677   0.514   0.832 -0.0100  0.2518  0.2142
18378W        W34187   0.503  14.220   2.622  0.0277 -0.3092  0.0430
18379W        W34188  14.176   9.928   0.244 -0.1807 -0.1147 -0.0112
18380W        W34189  11.372  16.341  11.016  0.2710 -0.2645 -0.2283
18381W        W34190  16.237  14.831   2.114 -0.1198 -0.2001  0.1974
18382W        W34191   4.101   0.503   1.472 -0.2470  0.0359 -0.0166
18383W        W34192  10.909   1.464  14.394  0.0309  0.3233 -0.1428
18384W        W34193   3.267   1.897  13.388 -0.0342 -0.0520  0.3233
18385W        W34194  11.855   8.184   9.297 -0.0888  0.1516 -0.1666
18386W        W34195   8.079   7.906  13.873 -0.2391  0.0156 -0.3300
18387W        W34196  17.190   6.629   5.610 -0.1073 -0.0135  0.1515
18388W        W34197  11.405  18.004  13.430  0.3178  0.0183  0.2317
18389W        W34198  10.582  14.936  10.655 -0.1172  0.1299 -0.0620
18390W        W34199  18.554  10.352   3.777  0.1298  0.2516 -0.0605
18391W        W34200   1.826  16.628   0.281 -0.1542 -0.0544  0.0670
18392W        W34201  16.650  14.763  14.436 -0.3317 -0.0210 -0.0806
18393W        W34202   6.509   4.573   1.164  0.1271  0.2159  0.4159
18394W        W34203  10.707  16.103  14.076 -0.1183  0.0179  0.0578
18395W        W34204   6.125   5.825   4.863  0.2051  0.1661  0.1610
18396W        W34205  12.734   0.022   9.978  0.2768 -0.0526 -0.1105
18397W        W34206   1.082  12.392  11.950  0.0531  0.1576 -0.1244
18398W        W34207   3.612  15.291  11.380 -0.0477  0.1605 -0.0241
18399W        W34208  17.886  18.425   3.075  0.1325 -0.6479  0.3282
18400W        W34209   7.827   5.817  10.492 -0.2513 -0.1015  0.2074
18401W        W34210   7.901  16.941   3.532 -0.0059  0.2083 -0.1645
18402W        W34211   0.715  15.624  12.016 -0.0082  0.1082 -0.0014
18403W        W34212  17.343   3.671   1.789 -0.0169  0.1684 -0.1868
18404W        W34213   4.525  11.720   4.866  0.0735  0.0785 -0.2672
18405W        W34214  14.690  17.097   5.435  0.0527 -0.4481 -0.0071
18406W        W34215   2.282  14.245   0.066 -0.0726 -0.0469  0.2037
18407W        W34216  12.917  10.019  14.606 -0.0030 -0.0198  0.3451
18408W        W34217  16.427  12.046   1.456 -0.0802  0.2704 -0.0120
18409W        W34218   6.957   9.159  13.941  0.1556 -0.3198  0.1165
18410W        W34219  11.275  14.072   4.331  0.1335 -0.0940 -0.2585
18411W        W34220  13.719  12.016  13.855 -0.0193  0.0506  0.0554
18412W        W34221   0.409   9.492   1.591  0.0879 -0.0187 -0.2903
18413W        W34222   7.576  15.479   2.079  0.2420 -0.0279  0.0327
18414W        W34223  13.688   6.135  12.612 -0.1179 -0.0704  0.1497
18415W        W34224   4.493  15.750   1.795 -0.1197 -0.0199 -0.1396
18416W        W34225   6.769  11.484   3.651  0.1887  0.0994  0.1483
18417W        W34226   5.257   5.979  10.828 -0.0978  0.0979  0.1558
18418W        W34227   1.297   7.270   5.207 -0.0774  0.0295 -0.1552
18419W        W34228  12.447  18.149  12.422 -0.2205 -0.0598 -0.0177
18420W        W34229   4.911   1.702   0.940  0.0537 -0.1794 -0.1598
18421W        W34230   7.329  14.336  13.176  0.0411  0.2655 -0.0272
18422W        W34231   6.260   1.963   1.380  0.2328 -0.0005  0.1647
18423W        W34232  14.342  16.744  14.843 -0.1662 -0.2457  0.1665
18424W        W34233  13.181   6.169   3.031 -0.0204  0.3500  0.0558
18425W        W34234  11.530   9.912   3.190 -0.0066  0.2693  0.1621
18426W        W34235  12.793  11.632   2.887 -0.2705 -0.0776 -0.0649
18427W        W34236   3.850   4.732   5.450  0.1323  0.1193 -0.0916
18428W        W34237  11.163  14.069  15.262 -0.1006  0.2539  0.3138
18429W        W34238   2.464  12.557  10.879  0.3936 -0.2967 -0.0402
18430W        W34239   9.438   0.210   3.096 -0.0372 -0.2241  0.0388
18431W        W34240   0.641   6.799  13.040 -0.0203  0.0954  0.1112
18432W        W34241   0.451   2.032   5.044  0.1377  0.2911 -0.1859
18433W        W34242   8.534  12.892   3.253 -0.0857  0.1061 -0.0957
18434W        W34243   0.018   3.539  13.018  0.2613 -0.3250  0.1961
18435W        W34244  13.492   8.761   5.007  0.0239  0.1997 -0.1254
18436W        W34245   3.525   5.733  14.322  0.0290  0.0802  0.4301
18437W        W34246   1.610  10.105  12.319  0.1546  0.0086 -0.2413
18438W        W34247  11.714   8.609  14.959  0.1517 -0.0563 -0.0418
18439W        W34248   6.942  10.320  14.824  0.0348 -0.2124 -0.0451
18440W        W34249  12.262   1.780   5.031  0.2996 -0.1556  0.2911
18441W        W34250   5.694   8.195   4.220  0.1692  0.1412 -0.0804
18442W        W34251  13.955   6.358  10.214  0.0291  0.1871  0.2828
18443W        W34252   2.744   5.820  11.895  0.0200 -0.0377  0.1063
18444W        W34253  13.683   8.817  15.148  0.0140  0.0529 -0.0947
18445W        W34254  18.469  10.663  14.773 -0.3043 -0.0682  0.0820
18446W        W34255  19.106  13.249  12.239  0.0742 -0.1867 -0.1710
18447W        W34256  11.376   5.867  13.224 -0.3672 -0.2300  0.1113
18448W        W34257   5.673   9.086   1.296 -0.3727 -0.2245  0.2767
18449W        W34258  11.828   2.485   1.134  0.0962 -0.1855  0.1596
18450W        W34259  14.892  12.781   0.297  0.2945 -0.0480 -0.3137
18451W        W34260  12.594  13.694  12.630 -0.0293  0.1886  0.1748
18452W        W34261   0.794  16.684   5.517 -0.3106 -0.0486 -0.1149
18453W        W34262   0.641   5.986  10.264  0.2197 -0.2560 -0.2563
18454W        W34263   3.730   4.919   2.663  0.2532 -0.1697  0.0256
18455W        W34264   1.516   6.099   1.725  0.0939 -0.2240 -0.1399
18456W        W34265  12.563  17.482  10.423 -0.1479 -0.2290  0.0321
18457W        W34266   3.894  13.631  13.638  0.0937 -0.4218  0.0250
18458W        W34267  17.525  12.485   9.969 -0.0309 -0.3538 -0.1666
18459W        W34268   6.573  11.771   4.056  0.0410 -0.1734 -0.0587
18460W        W34269   0.519  18.362   0.545  0.0100 -0.0865  0.0409
18461W        W34270   1.085   3.599  13.323 -0.1613  0.0519 -0.1809
18462W        W34271   2.125   2.441  12.701 -0.0416 -0.1283  0.1005
18463W        W34272  11.400  10.767   1.754 -0.3012 -0.1396  0.0412
18464W        W34273   7.476  15.150  10.336 -0.0176  0.0441  0.2773
18465W        W34274  14.741  17.475  11.102 -0.0940 -0.0861  0.2306
18466W        W34275  17.444  15.741   3.845 -0.0155 -0.0794  0.2633
18467W        W34276  16.702  14.699   5.357 -0.1993 -0.2711 -0.3676
18468W        W34277  16.109   1.883   4.879  0.0137  0.0874  0.2286
18469W        W34278   3.835   0.856  13.851  0.0622 -0.0075  0.2979
18470W        W34279   6.366   1.682  12.464 -0.0946 -0.3949 -0.2061
18471W        W34280  13.722  17.636  14.058 -0.0557 -0.1520 -0.1297
18472W        W34281   1.600  11.500   3.787 -0.1059  0.2550 -0.2861
18473W        W34282   6.976  13.675  10.342 -0.0106 -0.1688  0.0233
18474W        W34283   5.176  17.047   0.438 -0.2977  0.2582 -0.0164
18475W        W34284   5.199   2.716   0.663  0.3919  0.1102  0.3059
18476W        W34285  11.557  13.303   0.523  0.0620  0.0440  0.2348
18477W        W34286  15.741   9.406  12.489 -0.1574 -0.0915 -0.0127
18478W        W34287  16.482   0.174  13.801  0.1878  0.0113 -0.0810
18479W        W34288   9.197   7.223   2.091 -0.0227 -0.0460 -0.0857
18480W        W34289   2.246  10.840   2.655 -0.0808  0.3217 -0.2222
18481W        W34290  15.260  18.385   3.220 -0.2829 -0.1593 -0.1858
18482W        W34291  13.884   6.536  11.045 -0.1729  0.1905  0.1556
18483W        W34292   9.462   4.267  10.172  0.0526 -0.0359 -0.0019
18484W        W34293   9.918   0.215   2.945 -0.0827 -0.2556 -0.0453
18485W        W34294   0.332   2.369  11.206  0.2143 -0.0233 -0.3353
18486W        W34295   4.467   4.518   4.057  0.1429 -0.1278 -0.4755
18487W        W34296   2.259   1.352  12.752 -0.3123 -0.3974 -0.0554
18488W        W34297  17.117  10.158   2.347  0.1252 -0.1604  0.1878
18489W        W34298   7.906   7.649   1.849  0.4224  0.1003 -0.2095
18490W        W34299   6.977  18.039  13.301  0.0593 -0.0714  0.2350
18491W        W34300  18.014   4.895   0.272  0.1161 -0.1736  0.2220
18492W        W34301   4.580   9.517   5.104  0.2117 -0.0266 -0.0431
18493W        W34302  12.270   6.104  15.181  0.0780 -0.0051  0.1316
18494W        W34303  17.082   5.535   0.146  0.1848  0.2762 -0.3150
18495W        W34304  13.559  10.246  12.977  0.0282  0.0569 -0.1571
18496W        W34305  10.930  16.902   0.461 -0.0273  0.2251  0.2888
18497W        W34306  12.235  18.743   2.703  0.0167  0.3462  0.0816
18498W        W34307  10.607   3.413   4.266 -0.0514 -0.1923 -0.4570
18499W        W34308  16.508   2.385  14.622  0.0097 -0.1032  0.1415
18500W        W34309   3.901  10.039  15.155 -0.0595  0.2680 -0.1811
18501W        W34310   1.069   1.726  13.491 -0.1315  0.0332 -0.2762
18502W        W34311  15.853  17.353  11.251 -0.2151  0.0813  0.1427
18503W        W34312   0.749   7.732  11.272  0.0030 -0.0603  0.1142
18504W        W34313   8.726   9.608  13.296 -0.1473  0.1385  0.0437
18505W        W34314  16.875   7.092  13.814  0.0466  0.0723 -0.2413
18506W        W34315  14.441  13.246   0.750  0.2064 -0.0111  0.0042
18507W        W34316   5.682  13.044   1.433  0.0226 -0.1953 -0.1035
18508W        W34317  16.016  12.924   4.337  0.0091 -0.1372  0.0495
18509W        W34318  15.998  16.924   1.711  0.2504 -0.2500  0.4510
18510W        W34319   1.706  17.486   1.476 -0.3631 -0.0740 -0.0145
18511W        W34320   0.960  15.431   4.525  0.0328  0.4175 -0.0433
18512W        W34321   3.300   4.439   0.444 -0.0583 -0.0262  0.2484
18513W        W34322   6.320  17.077  12.864 -0.3015  0.1503  0.0412
18514W        W34323  13.662  15.693  13.519 -0.2903  0.1149  0.1521
18515W        W34324  15.735   7.783  13.227  0.1573 -0.0802  0.2285
18516W        W34325   0.268   9.045   5.532 -0.2650  0.1231 -0.1844
18517W        W34326   0.207   6.334   3.397  0.0845  0.2992 -0.3535
18518W        W34327   0.848   5.562   3.535 -0.0702  0.2892  0.0066
18519W        W34328   8.770   6.335   4.010  0.3714  0.0177  0.3709
18520W        W34329  12.135   2.527  11.916  0.2773  0.3506 -0.0385
18521W        W34330   3.256   2.883  12.583 -0.1652 -0.3195  0.2902
18522W        W34331  17.829  15.253  13.822 -0.1986  0.1237  0.1996
18523W        W34332  10.693   7.315  11.808 -0.0806  0.2105 -0.0215
18524W        W34333   0.010   6.548  11.242  0.1568  0.0520  0.0572
18525W        W34334   5.185  11.884  10.044 -0.0932 -0.1807 -0.0336
18526W        W34335   9.999   8.288   0.275 -0.2974  0.3517 -0.0169
18527W        W34336  16.499  16.221  12.605 -0.0286  0.0481  0.2934
18528W        W34337  14.187  10.149  14.299 -0.0954  0.0198  0.2170
18529W        W34338  18.972   5.110  13.839  0.0632 -0.3603 -0.2724
18530W        W34339  12.148  17.549   0.190 -0.0104 -0.3098 -0.1872
18531W        W34340   4.936   8.184  13.313 -0.0353  0.1066  0.0453
18532W        W34341  13.598   7.092   0.043  0.0247  0.0134  0.0732
18533W        W34342   1.255  10.043   1.647  0.4124 -0.1856 -0.0736
18534W        W34343  17.648   8.384   9.827  0.3394 -0.0696  0.0261
18535W        W34344   8.354  17.686   4.941 -0.0979 -0.1104  0.1204
18536W        W34345  16.225   2.058  12.973 -0.0690 -0.2008 -0.4241
18537W        W34346  10.236   2.435   4.468  0.0594 -0.1087  0.2007
18538W        W34347  10.075  10.753  11.138 -0.0202 -0.4412 -0.2545
18539W        W34348  16.538   5.490  12.695 -0.3069 -0.0062 -0.2314
18540W        W34349   8.009   0.362   1.926  0.0605  0.4158  0.2076
18541W        W34350   7.857  12.105   0.437  0.0547  0.0765  0.0097
18542W        W34351   8.179   6.939  15.204 -0.2166 -0.0957 -0.1335
18543W        W34352   4.126  18.753  12.880 -0.1691  0.1678  0.0778
18544W        W34353  15.553  14.401   3.215 -0.2337  0.1396  0.2024
18545W        W34354   1.585  11.707   0.453 -0.2170 -0.0802  0.2386
18546W        W34355  11.812  14.796  12.652 -0.0971  0.3590 -0.0445
18547W        W34356   8.625   9.089  13.644  0.2418  0.2886 -0.0856
18548W        W34357   1.477   2.217  13.218  0.0667 -0.1098 -0.0794
18549W        W34358  12.728  14.483   4.605 -0.1743 -0.0289  0.1321
18550W        W34359  17.016   0.074   0.797  0.3572  0.0214  0.1965
18551W        W34360  12.172   3.209  10.407  0.1317  0.0205  0.1135
18552W        W34361  19.079   3.830   0.826  0.2618 -0.4192 -0.1063
18553W        W34362   0.266   4.749  13.346  0.1153  0.2045 -0.1098
18554W        W34363   9.129   6.136  13.672 -0.0556 -0.1375 -0.1260
18555W        W34364   2.722  17.985   1.482 -0.2489  0.2863 -0.1733
18556W        W34365   9.241  10.899  12.947  0.0148  0.2703  0.3523
18557W        W34366  18.117  15.221   1.021  0.0660  0.3590  0.0539
18558W        W34367  11.654  11.075  11.886 -0.1444  0.1353  0.1120
18559W        W34368   9.689   0.279  11.168  0.3195  0.2139 -0.1345
18560W        W34369  12.463   4.369  14.633  0.1326 -0.1256  0.1457
18561W        W34370   2.566  11.274   5.082 -0.1172  0.0762 -0.0012
18562W        W34371  12.366  11.435  12.713 -0.0978 -0.2440 -0.2226
18563W        W34372  13.994  18.148  12.585  0.3533 -0.2512  0.1641
18564W        W34373  14.415   6.661   2.476  0.2278 -0.1743 -0.2277
18565W        W34374   9.735   4.770  11.547 -0.0821 -0.3758  0.4436
18566W        W34375   1.459  18.432   3.564  0.1384 -0.0063 -0.1863
18567W        W34376   7.716  17.213  13.864  0.1028 -0.0069  0.2334
18568W        W34377   8.558   3.926  14.079  0.1716  0.0482  0.2980
18569W        W34378   2.234   9.736   2.130  0.1047 -0.1235  0.0131
18570W        W34379  12.923   5.146  13.122 -0.0418 -0.0939 -0.3837
18571W        W34380  18.399  16.705  14.449 -0.1485  0.0451 -0.1497
18572W        W34381   3.756  18.059   9.940  0.0736  0.1263 -0.0800
18573W        W34382  16.988   8.836   4.669  0.1546  0.1062  0.1342
18574W        W34383  12.829   3.161   3.212 -0.3546 -0.4046 -0.0358
18575W        W34384  13.403  13.319  14.461  0.3069 -0.0470  0.2674
18576W        W34385  14.433   5.464  11.429  0.1330  0.3925 -0.0628
18577W        W34386  15.005  14.828   0.227  0.0387 -0.0443  0.1217
18578W        W34387   5.506   2.807  12.578 -0.3158 -0.2082 -0.2557
18579W        W34388  15.823  18.399  13.190 -0.2477 -0.0721  0.0135
18580W        W34389   4.128  12.475  11.579  0.1682  0.2731  0.0271
18581W        W34390  16.255  17.879  10.959  0.1711  0.0065 -0.1105
18582W        W34391   4.534  16.101  15.077  0.0760 -0.3222 -0.0891
18583W        W34392  17.310   5.805   2.469  0.2385 -0.0697 -0.1534
18584W        W34393  18.165   8.902  10.460 -0.5077  0.1092  0.3833
18585W        W34394  18.567  12.475  13.322  0.0605  0.2759  0.0728
18586W        W34395  11.637   0.221  14.505  0.0459  0.0628 -0.1084
18587W        W34396   6.318   7.168   0.864 -0.2563 -0.2633 -0.1055
18588W        W34397   4.977   2.811  13.742 -0.0496 -0.1815 -0.0730
18589W        W34398  13.830   8.831   2.624  0.1654 -0.1726  0.1405
18590W        W34399  10.389   4.266   3.525 -0.3189 -0.0869  0.1482
18591W        W34400  12.468  17.497   0.583 -0.1767 -0.1138  0.1998
18592W        W34401   1.443  13.438   0.695 -0.0082  0.2193 -0.1647
18593W        W34402  16.448  11.215   1.151 -0.1205  0.0849 -0.1609
18594W        W34403  14.805  15.166  13.986  0.0316 -0.3454  0.1093
18595W        W34404  17.545   6.493  14.766  0.2509  0.0346  0.1964
18596W        W34405  17.867  17.682  10.765  0.1414 -0.2348  0.2860
18597W        W34406  13.916  14.473  10.359 -0.0272 -0.1247  0.0639
18598W        W34407   6.249   4.945  11.895 -0.2113 -0.1206 -0.2450
18599W        W34408  12.861   5.501  11.748 -0.0213 -0.3738  0.0214
18600W        W34409   3.604   7.309   5.189  0.1992  0.3699  0.0045
18601W        W34410   3.841  11.992  13.693 -0.2217  0.2320  0.0879
18602W        W34411   6.070   6.161   3.716  0.2309 -0.0633 -0.2811
18603W        W34412   5.577   9.112  13.053  0.0643  0.1822 -0.1004
18604W        W34413   5.343   8.163   3.731 -0.0667  0.1087 -0.1795
18605W        W34414  13.041   4.734  15.068  0.2215  0.0794 -0.0885
18606W        W34415  16.476   8.205  10.385 -0.1342  0.1620  0.1837
18607W        W34416   4.544   7.368  15.019 -0.0339 -0.0033 -0.0839
18608W        W34417   9.868   9.102   4.208 -0.0845  0.0113  0.0532
18609W        W34418   7.267   5.269  10.957 -0.1621  0.1369  0.1024
18610W        W34419   2.851  13.498   1.518 -0.4124 -0.1512 -0.2786
18611W        W34420   1.252   4.691  13.621  0.0484  0.1779  0.4240
18612W        W34421  14.172   0.399  10.642  0.3077  0.1025 -0.1628
18613W        W34422   6.559   9.037  13.155 -0.0846  0.0178 -0.1164
18614W        W34423   9.025  16.648   4.185  0.2339  0.2452  0.1114
18615W        W34424  12.900  15.301  14.901  0.0701 -0.1645 -0.2758
18616W        W34425   3.988   8.022   3.367 -0.0251 -0.0886  0.0082
18617W        W34426  18.829   8.490  12.012 -0.2821  0.3732 -0.0684
18618W        W34427  16.572   0.751  10.774  0.0660 -0.2543 -0.0397
18619W        W34428   7.529  17.164   4.713  0.0971  0.0741 -0.1648
18620W        W34429  12.521   4.415   2.181  0.1375  0.2306  0.1869
18621W        W34430  11.747   8.472   4.180  0.0651 -0.0393 -0.4747
18622W        W34431  16.046  14.351  13.995 -0.0598  0.0363 -0.0632
18623W        W34432  14.970  10.132   5.344  0.0404  0.3859  0.0920
18624W        W34433   7.304  10.427   2.874 -0.1025 -0.3060  0.0316
18625W        W34434  13.991   3.507  12.089 -0.1924 -0.3934  0.2457
18626W        W34435   1.946  11.719   2.399 -0.1530  0.0971  0.2918
18627W        W34436  12.167   3.532  10.911 -0.1816  0.1193  0.1352
18628W        W34437   5.053  10.629  15.141 -0.1264 -0.1656  0.0191
18629W        W34438  13.844  16.912  13.772 -0.2195 -0.0471 -0.2920
18630W        W34439   4.295   4.879  14.472 -0.1971 -0.1273  0.1709
18631W        W34440  16.062   6.043  14.071  0.4860 -0.0064  0.0665
18632W        W34441   8.768  14.100  10.440  0.0685 -0.1473  0.1358
18633W        W34442   4.121  13.134  14.759  0.1959  0.3404  0.1837
18634W        W34443  17.590  13.871  13.083  0.0403 -0.2425 -0.0563
18635W        W34444   7.365  15.183   3.933  0.1173 -0.1044  0.3316
18636W        W34445   0.708  14.365   0.832  0.1110  0.0415 -0.0806
18637W        W34446   0.473  10.399   0.998 -0.0598  0.1114 -0.2165
18638W        W34447   9.721   0.539  11.651  0.0966 -0.0236 -0.3776
18639W        W34448   2.009  11.044  12.597 -0.1537  0.0315  0.0400
18640W        W34449  16.341  16.304  11.984  0.1165 -0.1188 -0.0685
18641W        W34450   8.428   9.251  13.215 -0.1007  0.1216 -0.1210
18642W        W34451   3.573  14.802   3.972 -0.0740  0.0822 -0.0362
18643W        W34452   0.646   4.298  14.967 -0.0908  0.2917  0.2320
18644W        W34453  13.073   3.476   0.546 -0.2896 -0.0038  0.1442
18645W        W34454  17.853   5.921  14.031 -0.0264  0.0825  0.3585
18646W        W34455  18.104  13.225  13.351  0.0173 -0.1802 -0.0015
18647W        W34456  10.693  13.985  11.075 -0.0800 -0.0187  0.2632
18648W        W34457   1.895  11.184   4.212 -0.1433 -0.2999  0.0903
18649W        W34458  12.580   8.845  11.178 -0.0753  0.0976 -0.2547
18650W        W34459  12.510   8.297  14.514 -0.0945 -0.0154 -0.0239
18651W        W34460   9.605   8.096   1.011  0.0749 -0.0018 -0.2056
18652W        W34461  17.811  17.085   1.202  0.2635 -0.0315  0.0788
18653W        W34462  10.538   8.173   2.363 -0.1442 -0.1688 -0.1578
18654W        W34463  16.398  13.348  13.887  0.2919  0.0440 -0.1860
18655W        W34464  15.101   9.040  10.906 -0.4570  0.1324 -0.0102
18656W        W34465  10.761  13.102   4.216  0.0438  0.1666  0.1200
18657W        W34466  15.367   8.850  14.624  0.0382  0.4441  0.3153
18658W        W34467  18.119   3.545   1.819 -0.0815 -0.0468  0.1614
18659W        W34468  16.271   8.392  12.791 -0.3223 -0.0776  0.0313
18660W        W34469  16.160  15.274   2.756 -0.0612  0.0201  0.0834
18661W        W34470  17.575   0.352  15.190 -0.0070 -0.0843  0.0550
18662W        W34471  13.545   6.718  14.920  0.3369  0.2779  0.6030
18663W        W34472   7.957   1.873   1.973 -0.1824 -0.1660  0.1120
18664W        W34473  16.748   9.119   0.617 -0.1629 -0.2709 -0.1858
18665W        W34474   5.810  13.622   9.779 -0.2029  0.1441 -0.1040
18666W        W34475  10.285   6.249  12.784  0.1219 -0.3442  0.2424
18667W        W34476  18.466   6.822   1.150 -0.2446  0.0138 -0.3321
18668W        W34477  17.850  17.244  12.151  0.2215  0.2358  0.0107
18669W        W34478   1.383  13.815   3.152  0.1144  0.5037  0.2019
18670W        W34479  10.355  18.640  11.666  0.2253  0.1927  0.1543
18671W        W34480  10.774  14.104  14.914  0.2197  0.1889  0.2220
18672W        W34481   2.624  15.112  11.041 -0.2281  0.2105  0.0338
18673W        W34482   6.906  11.303   1.110 -0.1994 -0.0988  0.1570
18674W        W34483   7.899  13.179  14.133  0.1640  0.1050  0.4926
18675W        W34484  15.434   0.520   2.480  0.1055  0.1489 -0.0096
18676W        W34485  16.289  17.016  14.684 -0.0278  0.0135  0.0051
18677W        W34486   4.384  18.642  14.422  0.2134 -0.3445 -0.1248
18678W        W34487   3.016  14.473   0.234  0.0348  0.2701  0.0555
18679W        W34488  19.117  17.868   0.780  0.2498  0.0042 -0.1459
18680W        W34489  12.530  13.331   1.760 -0.2192  0.3488  0.2274
18681W        W34490   4.169  14.425  12.847  0.2125 -0.0502 -0.2970
18682W        W34491   3.597   7.518  13.215 -0.0709  0.2045  0.1048
18683W        W34492   2.833  13.361  11.825 -0.1608  0.2068  0.1298
18684W        W34493   0.249  10.369  12.519  0.0394  0.0031  0.2868
18685W        W34494   3.845   8.451   1.043 -0.2866  0.1787 -0.1290
18686W        W34495   8.533  18.885  13.041  0.2189  0.2670  0.1251
18687W        W34496   1.495  12.749  13.258 -0.2658  0.0233  0.2157
18688W        W34497  12.801  17.783   1.884 -0.2330  0.0362  0.0493
18689W        W34498  14.295   9.192   1.893  0.2483  0.3273 -0.0847
18690W        W34499   3.781  18.341   0.025 -0.0216  0.2568  0.1130
18691W        W34500   8.367  16.177   2.113  0.0634  0.2082 -0.3411
18692W        W34501   4.516   5.530  14.914  0.0144  0.3022 -0.0502
18693W        W34502  13.039  12.756   1.981  0.2055 -0.0052 -0.2968
18694W        W34503   5.693   2.956  11.569 -0.0420 -0.0553 -0.2544
18695W        W34504   5.796  11.042  11.086 -0.5162 -0.0669  0.1831
18696W        W34505   4.012   8.145  11.967 -0.4038 -0.0579  0.0483
18697W        W34506  15.512  14.833  10.275 -0.0959 -0.0186  0.1500
18698W        W34507   5.320   3.344  10.567 -0.1393 -0.0166 -0.2932
18699W        W34508   9.232  16.654   0.434  0.0090 -0.0585  0.1355
18700W        W34509  10.545   9.431   2.362  0.2380 -0.1653 -0.1107
18701W        W34510  10.230   4.087   2.298 -0.2056 -0.1015 -0.3283
18702W        W34511  10.246   0.915  14.021 -0.1870  0.2176 -0.2974
18703W        W34512   5.799  11.293  11.598  0.0148 -0.2375 -0.1901
18704W        W34513   7.983   3.270  11.834 -0.1013 -0.2654 -0.0105
18705W        W34514  18.782   4.036  10.220 -0.1561  0.0117  0.1238
18706W        W34515   0.304  13.075  10.911 -0.1053  0.1556 -0.2471
18707W        W34516   3.872   1.454  11.345  0.3033  0.1824 -0.2947
18708W        W34517  17.772  11.314   4.980 -0.0555  0.2253  0.2658
18709W        W34518  15.027   2.299  12.561  0.1991  0.5809  0.1963
18710W        W34519   1.907   5.680   4.060  0.1635 -0.1097  0.2802
18711W        W34520  18.791  14.063   0.596  0.1258 -0.1341  0.0788
18712W        W34521  17.506   2.186   3.872  0.0001  0.1372  0.0133
18713W        W34522   0.124   1.988   2.782 -0.2553 -0.1017  0.1116
18714W        W34523  14.135   6.980  10.319  0.0631 -0.1426 -0.1999
18715W        W34524  11.129   5.030   1.152 -0.0413 -0.0181 -0.0230
18716W        W34525   8.529  11.244   4.425 -0.2339 -0.2512  0.0050
18717W        W34526   3.809   0.239   3.889  0.0769  0.1125 -0.0664
18718W        W34527  11.724  13.185  10.505  0.2082  0.2540 -0.0219
18719W        W34528   4.626  18.602   0.430 -0.2253  0.0733  0.0935
18720W        W34529  12.434  10.937  12.345 -0.3307  0.3169 -0.0064
18721W        W34530  11.682   8.705   3.661  0.0962 -0.0749 -0.2188
18722W        W34531  16.744   9.110  12.673 -0.0384 -0.2007 -0.0987
18723W        W34532  17.323   4.321  11.769  0.1131  0.2308  0.4975
18724W        W34533  14.268  16.856  13.389  0.1048 -0.3723 -0.1139
18725W        W34534   3.580  11.314   4.886 -0.2907 -0.4833  0.1613
18726W        W34535   6.748   6.152   3.154 -0.1047 -0.1165 -0.1558
18727W        W34536   2.553  14.442  13.105 -0.0393 -0.0645 -0.0939
18728W        W34537   4.003  17.563  13.125  0.3161  0.0477  0.1099
18729W        W34538   2.761   4.088   0.480 -0.1624 -0.2595  0.3391
18730W        W34539   4.758   6.256  12.926 -0.0782 -0.1629 -0.2991
18731W        W34540   3.957   3.523  12.195 -0.0793 -0.0135 -0.0531
18732W        W34541  16.529   2.383   3.092  0.0669 -0.0285 -0.0357
18733W        W34542   0.464  10.970   2.700  0.0588 -0.2899 -0.0070
18734W        W34543  18.368   3.409   2.637  0.2977 -0.0660 -0.1595
18735W        W34544  18.515  15.033  13.304  0.3998 -0.1988  0.0618
18736W        W34545  15.458  12.966  14.541  0.0701  0.1451 -0.1627
18737W        W34546   2.007   7.775  14.410  0.2435 -0.0255  0.2428
18738W        W34547   6.242   0.752  11.347  0.0843  0.0733  0.3095
18739W        W34548   8.801   7.785  15.253  0.2603 -0.1428 -0.0474
18740W        W34549   6.597   5.683   4.975  0.0716  0.2432  0.1036
18741W        W34550  16.770   5.335   5.328 -0.1941 -0.1491 -0.3349
18742W        W34551   4.180   8.615  13.562  0.1839  0.2344 -0.0662
18743W        W34552  13.318   5.391  13.310 -0.0209 -0.1786 -0.2859
18744W        W34553   4.965  18.783  13.228 -0.0221 -0.1967 -0.2803
18745W        W34554   0.768  12.830   4.144 -0.1614  0.1124  0.3709
18746W        W34555   5.188   4.614  11.147 -0.2432  0.2646 -0.0939
18747W        W34556  15.030   3.594  15.231  0.2795  0.1564 -0.2854
18748W        W34557  10.806  14.601  11.822 -0.3139 -0.0489  0.1984
18749W        W34558  17.610  10.582   1.713  0.1278 -0.0552 -0.3640
18750W        W34559   6.991   3.157  12.609  0.3351  0.0719 -0.0112
18751W        W34560   0.384  14.198   1.534 -0.0002 -0.1687  0.1477
18752W        W34561   6.684   8.115  14.927  0.0935  0.0841 -0.0773
18753W        W34562  13.499   6.776   9.619  0.2078  0.1920 -0.1334
18754W        W34563   4.962  11.139   3.341  0.1332  0.1765 -0.2554
18755W        W34564   0.253   5.418   3.228  0.0686 -0.0046 -0.1187
18756W        W34565   8.160   0.116  14.386 -0.4068 -0.1380 -0.0431
18757W        W34566   0.028  12.589   0.493 -0.1556 -0.1727 -0.0850
18758W        W34567   6.635  15.393   2.775 -0.2436  0.0356 -0.1376
18759W        W34568  11.510  12.879  11.524  0.1767  0.1445 -0.4028
18760W        W34569  16.927  11.123  12.529  0.3486 -0.1394 -0.0122
18761W        W34570   2.166   0.309   2.592  0.1817 -0.0514 -0.1330
18762W        W34571  16.654  12.941   2.901  0.2417  0.2017 -0.0075
18763W        W34572  10.562  14.038  11.591 -0.0442  0.1700 -0.0948
18764W        W34573  15.566  18.501   0.053 -0.0718 -0.0367 -0.1855
18765W        W34574  19.030   0.070   2.142  0.1474  0.0750 -0.1091
18766W        W34575  10.515  13.911   2.023  0.1577  0.0056  0.2387
18767W        W34576  12.463  17.091  13.127  0.2295  0.1481  0.4306
18768W        W34577   6.606  17.593  12.668  0.0780 -0.0890 -0.1213
18769W        W34578  11.996   5.365   0.427  0.1901 -0.2862  0.2225
18770W        W34579  18.277  16.357  14.807 -0.2378 -0.1688  0.3621
18771W        W34580   9.986   5.670   3.179  0.0264  0.0256 -0.1025
18772W        W34581  16.768   8.601   0.640  0.1830 -0.2175 -0.1740
18773W        W34582  16.370   7.503   2.572  0.0491 -0.0507  0.0755
18774W        W34583  13.659   6.761  10.127 -0.2546 -0.1669  0.4169
18775W        W34584  18.166  14.778  14.427  0.1148  0.2754 -0.1168
18776W        W34585   9.340   5.358   1.780  0.0773  0.0351 -0.5485
18777W        W34586   7.750  10.689  10.915 -0.0886 -0.0766  0.1107
18778W        W34587   6.311   9.797  10.379  0.2566 -0.0765 -0.0583
18779W        W34588  11.657  10.277  10.370  0.1078  0.2362 -0.0922
18780W        W34589  17.441   5.824   3.111  0.0397  0.0837 -0.1227
18781W        W34590  17.118   1.686  14.384 -0.1616 -0.1095  0.3305
18782W        W34591   9.471   1.758   2.667  0.2472 -0.3945 -0.4703
18783W        W34592   2.483  17.085   3.048  0.0321  0.2533 -0.0337
18784W        W34593   2.772   1.487  13.989 -0.0513 -0.0488 -0.0067
18785W        W34594   5.627   6.603  12.024 -0.1024 -0.0822  0.0327
18786W        W34595  18.206  13.830   0.705  0.2883  0.1777 -0.0963
18787W        W34596  15.216   9.635   1.801  0.0446 -0.0530 -0.1835
18788W        W34597  18.134  16.458   5.653 -0.1735 -0.1931 -0.0244
18789W        W34598  18.478  12.406   5.335  0.1196 -0.2006  0.0195
18790W        W34599  11.485  16.041   1.260 -0.0715  0.1186 -0.3139
18791W        W34600  10.923  17.930   4.449 -0.0561  0.1412 -0.2553
18792W        W34601  18.495   0.712  13.585  0.0259  0.1928  0.0548
18793W        W34602   9.583   9.546   3.147  0.0762 -0.0980  0.2065
18794W        W34603   3.681  16.409  14.126 -0.1405  0.1913  0.0569
18795W        W34604   7.499   4.555   2.088  0.0015 -0.1838  0.0764
18796W        W34605  17.201   8.714  14.516 -0.0704 -0.3522 -0.0012
18797W        W34606   6.234   2.188  12.392  0.0436  0.2086 -0.3657
18798W        W34607  17.375   2.374   2.282  0.1989  0.1407 -0.0313
18799W        W34608   6.576  15.889   3.029  0.1128  0.1626  0.1558
18800W        W34609   7.318  16.870   0.908  0.0439  0.1917  0.0663
18801W        W34610   8.548  18.637   1.766  0.0793  0.1897  0.1691
18802W        W34611   4.007  10.806  10.453 -0.2216  0.0489 -0.3495
18803W        W34612   7.927  11.656   4.017  0.0835  0.0709  0.0749
18804W        W34613  13.452  11.921   0.245 -0.0792  0.0875 -0.0559
18805W        W34614  10.814   5.188   4.759  0.1489  0.0918 -0.0230
18806W        W34615  17.943   3.325  11.722 -0.1966  0.1274 -0.2006
18807W        W34616   3.158   2.675   0.620 -0.3316 -0.1256 -0.1982
18808W        W34617   4.489   7.639   5.980 -0.3365  0.0584 -0.1056
18809W        W34618   0.024  16.566  14.998  0.0532 -0.1271 -0.1263
18810W        W34619   0.189   3.492  10.882  0.0605  0.2628  0.1796
18811W        W34620   5.356   9.714  14.334  0.2290 -0.0082 -0.1262
18812W        W34621  12.818   2.487   3.291 -0.2554  0.1756 -0.1303
18813W        W34622  16.646  10.974   2.026 -0.0084  0.1976 -0.0784
18814W        W34623  15.224  11.499  11.777  0.2220 -0.0598  0.3226
18815W        W34624   9.904  13.670  11.593 -0.0669  0.0860  0.2662
18816W        W34625   6.364  17.558   4.906  0.3287  0.4568 -0.0400
18817W        W34626  18.433   9.515  13.246  0.1887  0.2908  0.2812
18818W        W34627   6.272   8.785   3.690  0.0402 -0.1079  0.1350
18819W        W34628  13.328  17.038   3.860  0.1175  0.0743 -0.1575
18820W        W34629  11.685   9.576  12.886 -0.3015  0.0477  0.0505
18821W        W34630  15.971  10.973   4.850  0.0883  0.1567  0.0186
18822W        W34631   3.293   0.234  12.003  0.1378  0.1213 -0.0347
18823W        W34632   1.182   6.461  14.412 -0.1078  0.2456 -0.3417
18824W        W34633  17.249  10.951   3.747  0.0164  0.1471  0.3562
18825W        W34634   5.884  13.087   3.053  0.1856  0.0386 -0.3556
18826W        W34635   3.841  15.045   1.428 -0.2942  0.1650 -0.1075
18827W        W34636   6.906   3.874   0.319 -0.2108 -0.1898  0.1435
18828W        W34637   6.738  16.653   3.737  0.1304 -0.3000  0.0797
18829W        W34638   5.046   5.516  10.991  0.0771 -0.2242  0.3147
18830W        W34639  13.499   9.848   0.015 -0.2838  0.0021 -0.0678
18831W        W34640   8.541  18.670  15.105 -0.2742 -0.2748 -0.1744
18832W        W34641  18.417   3.940   1.622  0.1961 -0.2054 -0.0804
18833W        W34642  12.684  17.001  12.646 -0.3682  0.0130 -0.1469
18834W        W34643   5.542   6.994  12.492  0.0984 -0.0022  0.0467
18835W        W34644   5.562   5.852   4.623 -0.5262  0.1633 -0.2541
18836W        W34645  16.179   7.271   2.172 -0.0517 -0.0425  0.0399
18837W        W34646   4.042   1.859   3.396  0.0063  0.0152  0.0808
18838W        W34647  12.583  13.337   3.967  0.1485 -0.1172  0.1389
18839W        W34648  18.529   5.026  13.594 -0.4035 -0.2445 -0.2031
18840W        W34649  14.986   2.068  14.345 -0.0218  0.0089 -0.2538
18841W        W34650  14.214   5.332   3.756 -0.2581  0.3263  0.1299
18842W        W34651   8.058  14.214   1.348  0.3582 -0.2056  0.0490
18843W        W34652  17.648  17.358  13.987 -0.0783 -0.0143 -0.5801
18844W        W34653   5.504   7.527  12.236  0.4974 -0.0092  0.2850
18845W        W34654  14.082  12.894   5.270 -0.0946  0.0173 -0.2444
18846W        W34655   9.661   2.507  14.042  0.4917  0.1354  0.4585
18847W        W34656   2.244  12.197   2.335  0.1304 -0.1232  0.3618
18848W        W34657  11.370   3.121   4.361  0.3174  0.2358  0.0564
18849W        W34658  13.439  10.190   2.035  0.1987  0.1508 -0.1253
18850W        W34659   9.244   8.791   1.552  0.1822  0.3426 -0.2299
18851W        W34660  16.353   0.312   4.513 -0.0528 -0.2416  0.0991
18852W        W34661  18.211  14.360  13.710  0.0185 -0.1353  0.0443
18853W        W34662   1.443   4.553   0.096  0.1282  0.0302  0.1103
18854W        W34663   5.477   0.546  13.855  0.1221  0.1259 -0.2839
18855W        W34664  10.415   6.540   2.805  0.2033 -0.3293  0.2229
18856W        W34665  14.916   3.359   0.397  0.3496 -0.0376  0.0364
18857W        W34666  15.175   8.529  14.270 -0.3550  0.0483 -0.2593
18858W        W34667   0.832   5.795  12.839 -0.1701 -0.0099  0.4265
18859W        W34668  11.080  14.447   0.900  0.1791 -0.1197  0.1331
18860W        W34669   4.764  16.518  13.538 -0.0337 -0.1503 -0.1665
18861W        W34670   1.674   6.540   1.900  0.2050 -0.2634 -0.2461
18862W        W34671  10.636  16.724   4.525  0.0653  0.0694  0.3968
18863W        W34672   4.162   5.325  11.408 -0.0942 -0.0023  0.1743
18864W        W34673  17.006  13.493   2.528  0.0753  0.2481  0.0860
18865W        W34674  15.870   5.919  10.241 -0.0129 -0.0159  0.1930
18866W        W34675  15.285  17.980   2.515 -0.0669  0.2131  0.2490
18867W        W34676   4.023  16.285  10.807  0.4697 -0.2045  0.0166
18868W        W34677   5.958   1.266  10.449  0.3009  0.1754  0.1969
18869W        W34678  17.424   9.669  14.708 -0.2672  0.3450 -0.2078
18870W        W34679   5.149  15.816   3.038 -0.3012 -0.4547 -0.2219
18871W        W34680  17.627  11.234   3.600 -0.4297 -0.1766 -0.0238
18872W        W34681  16.311  10.713   2.482 -0.0897  0.1196  0.0873
18873W        W34682   6.295   8.177   3.147 -0.1449  0.3146 -0.0101
18874W        W34683  12.734   2.958  11.067  0.1313 -0.1999  0.2771
18875W        W34684   1.663   1.715   1.330 -0.0616  0.2272  0.2065
18876W        W34685  18.819   3.505   2.518  0.0579  0.2158 -0.2291
18877W        W34686  15.970  13.500   0.713  0.1124 -0.1833  0.0901
18878W        W34687  13.266   9.350   1.080 -0.1227  0.1649  0.1152
18879W        W34688   2.078   8.990   5.742 -0.2074 -0.2546  0.1150
18880W        W34689  13.770  11.154   0.899 -0.1193 -0.0141  0.0626
18881W        W34690   3.837  11.110   5.429 -0.0963  0.2009  0.1482
18882W        W34691  12.109   0.311   4.817  0.2609 -0.2370  0.0088
18883W        W34692  10.089   5.531  10.536  0.0273  0.0579 -0.0249
18884W        W34693   5.486   0.860  12.323 -0.1394 -0.1041  0.1213
18885W        W34694   0.838  18.012   4.071 -0.0390 -0.0727 -0.2384
18886W        W34695  15.982  15.216  11.465  0.2123  0.1002 -0.2323
18887W        W34696  15.486   0.675   1.119  0.4748  0.2751 -0.0563
18888W        W34697   4.923   0.051  15.089  0.3755  0.1510 -0.2624
18889W        W34698  15.860  15.077  11.940  0.0627  0.4116 -0.1578
18890W        W34699  14.965   2.608   0.782 -0.2285  0.3654 -0.0434
18891W        W34700   2.532   8.231   4.132 -0.1552 -0.0294 -0.3708
18892W        W34701   5.279  11.759   0.775  0.2544  0.0480  0.1955
18893W        W34702  18.424   4.623   3.709 -0.1733 -0.2524  0.0518
18894W        W34703   1.170   5.653   4.121  0.0229  0.0027 -0.3397
18895W        W34704  15.506   8.094   4.525  0.3060 -0.0486  0.1629
18896W        W34705  13.333   3.525   5.174  0.2783  0.0509 -0.0906
18897W        W34706   4.360  10.027   5.148 -0.2949  0.2719  0.0301
18898W        W34707  12.995   2.831   2.910 -0.2758 -0.1220 -0.0025
18899W        W34708  15.839  14.496  14.525 -0.0050 -0.1343 -0.1354
18900W        W34709  10.233   1.352  12.423  0.1394  0.2156 -0.0171
18901W        W34710  16.048   3.886   3.406  0.1797  0.1316 -0.5949
18902W        W34711  17.562  10.069  11.464  0.0262  0.0784 -0.1471
18903W        W34712   1.405  14.741  11.090  0.0073  0.0996  0.0349
18904W        W34713  14.797  11.726  12.020  0.0886  0.0742  0.4661
18905W        W34714  12.224   9.499   0.278  0.0826 -0.3195 -0.0364
18906W        W34715  11.646   1.054  15.139  0.2550 -0.1517 -0.1204
18907W        W34716  12.502  10.654  15.072 -0.1239  0.0253 -0.0023
18908W        W34717   8.472  13.208   4.666 -0.3793 -0.0698 -0.1656
18909W        W34718   0.405  17.128   1.036  0.0655  0.0129  0.0604
18910W        W34719  14.284   6.874   1.408  0.1014  0.2366  0.2788
18911W        W34720  16.122   7.517  11.540  0.0688 -0.0351 -0.0333
18912W        W34721   1.040   7.919   1.077 -0.5411  0.0110 -0.1315
18913W        W34722  16.116   8.488   2.931 -0.0099 -0.2741  0.0252
18914W        W34723  18.079  11.504   5.351  0.2018  0.0611 -0.2404
18915W        W34724  15.210  12.704  10.883 -0.3131  0.0170  0.2920
18916W        W34725   2.045   2.840   0.437  0.0132 -0.3129  0.0920
18917W        W34726   2.979  16.205   3.427  0.0894 -0.0701 -0.1108
18918W        W34727   6.474   5.738  14.188 -0.0304  0.0225 -0.2888
18919W        W34728  16.627  14.803   3.609 -0.0495 -0.0104  0.1171
18920W        W34729  13.646   6.999   0.758  0.1548  0.0835 -0.1494
18921W        W34730   9.669   2.368  13.494  0.1229  0.1862 -0.2427
18922W        W34731   1.223  16.113   3.942 -0.3064  0.3536 -0.2229
18923W        W34732   7.450  16.860  14.284 -0.1097 -0.2355 -0.0210
18924W        W34733  16.775   6.491   2.549 -0.0759  0.0724  0.0209
18925W        W34734  10.056  16.257   0.872 -0.2815 -0.1584 -0.4035
18926W        W34735  16.844  10.877  11.541 -0.0368  0.0042  0.0361
18927W        W34736  14.574   8.643   1.216 -0.0398  0.0869 -0.0068
18928W        W34737   8.556   8.991   4.847 -0.1024 -0.1086 -0.0721
18929W        W34738   5.769   1.544  14.134 -0.0641 -0.0180  0.2227
18930W        W34739   5.563  14.872  14.882  0.1676  0.2637 -0.2151
18931W        W34740   6.175  12.439  10.454  0.3434 -0.2668  0.1632
18932W        W34741  14.094  18.295  11.973 -0.2446  0.0541  0.2299
18933W        W34742   7.190   2.741  11.737  0.0792 -0.0788 -0.0997
18934W        W34743  18.177   7.756   4.792  0.0538  0.1057  0.1251
18935W        W34744   1.371  14.390  11.526  0.3122  0.2142 -0.0744
18936W        W34745  14.492  15.049   2.402 -0.0151  0.3738 -0.0865
18937W        W34746   8.440   8.431   1.110 -0.0555 -0.1199  0.3930
18938W        W34747  17.350  12.718   1.212  0.1820  0.0582 -0.0796
18939W        W34748   0.831  18.149  12.329 -0.3415  0.0034  0.1345
18940W        W34749  13.360  13.188   0.175  0.2093  0.2062 -0.3368
18941W        W34750  12.747  13.240   1.352 -0.1684 -0.0438 -0.1700
18942W        W34751   8.874   6.338  12.755  0.0309 -0.3678  0.0796
18943W        W34752  11.314  12.944  15.092  0.1038  0.1254 -0.0346
18944W        W34753  15.017  13.399  13.336 -0.0975  0.0766 -0.0628
18945W        W34754   8.038   0.421  14.922  0.4007 -0.1609  0.1468
18946W        W34755  10.879  17.609   4.918 -0.0146  0.1300  0.1100
18947W        W34756   1.057   6.894  10.547 -0.4416  0.0396  0.4796
18948W        W34757   1.173  18.509   1.419 -0.0911  0.1654 -0.0006
18949W        W34758  17.178  14.438  10.631  0.0308 -0.0230  0.0476
18950W        W34759   5.764  13.783  10.745  0.1867 -0.0604 -0.0178
18951W        W34760   4.425   3.633   2.083 -0.0913 -0.1197  0.0329
18952W        W34761  12.089   2.931   1.226  0.3112  0.2698 -0.0914
18953W        W34762   7.338   6.913   4.382 -0.0859 -0.0003 -0.2479
18954W        W34763   7.181   2.529   5.347 -0.3147  0.0678 -0.1678
18955W        W34764  14.002  12.286  10.982 -0.1356 -0.0841 -0.0335
18956W        W34765  15.611   6.912  13.243 -0.1965  0.1427  0.0824
18957W        W34766   8.623  11.505  11.363  0.4081  0.0258  0.5009
18958W        W34767   8.412  18.873   9.969 -0.0689 -0.0441  0.1743
18959W        W34768   6.773   9.820  10.655  0.0831  0.1731 -0.1464
18960W        W34769   7.812  12.556   3.021 -0.2374  0.1031  0.0055
18961W        W34770  13.584   0.302  13.501 -0.2452 -0.3228 -0.0269
18962W        W34771   4.548  19.112   1.969  0.4238  0.1693 -0.0423
18963W        W34772   6.441   3.452  11.467  0.0279 -0.3061 -0.5688
18964W        W34773  11.423  14.370  12.144 -0.2162 -0.2371 -0.0822
18965W        W34774  10.093   7.668   1.717  0.0354  0.2405  0.0225
18966W        W34775   4.278   0.376   0.237 -0.0666  0.0620  0.2335
18967W        W34776  13.005   7.257   3.647 -0.5039  0.0315  0.2001
18968W        W34777  15.949   7.159  14.012  0.1271  0.2561 -0.0276
18969W        W34778   9.069   2.309  13.363  0.1816 -0.1401  0.1491
18970W        W34779   6.726  10.225   4.650 -0.0498 -0.0578  0.1676
18971W        W34780  14.657   7.960   1.893  0.0727 -0.2515 -0.1428
18972W        W34781  10.965  10.742  11.162 -0.0168  0.1395  0.0442
18973W        W34782  18.263  10.748  12.725 -0.0706  0.0521  0.2869
18974W        W34783  15.707   4.581   4.794 -0.0745 -0.4282 -0.2049
18975W        W34784  15.539  11.427   4.041  0.0820 -0.3064 -0.1795
18976W        W34785  11.328  11.311  12.926  0.0078  0.2074 -0.0429
18977W        W34786  14.248  15.101   4.504 -0.0977  0.1050  0.0003
18978W        W34787  10.249  18.128   2.347 -0.0768  0.0760 -0.3784
18979W        W34788   1.197   1.224  13.348  0.2658  0.0239 -0.1797
18980W        W34789   3.129   1.250  11.883 -0.0907  0.1463 -0.1658
18981W        W34790  12.393   1.791   1.014  0.1051 -0.0929 -0.0069
18982W        W34791   0.736   6.285   2.217 -0.1791  0.1095 -0.0096
18983W        W34792  12.805   4.077   0.572 -0.0445  0.0625 -0.1427
18984W        W34793   4.186  12.513   3.529  0.3396  0.0562 -0.3221
18985W        W34794   0.945  12.700  11.019  0.0785  0.2774 -0.2405
18986W        W34795   4.519   4.999  11.514 -0.0961  0.1698  0.1530
18987W        W34796  16.919   5.448  14.874 -0.0077  0.1451 -0.1488
18988W        W34797   4.227   0.716   4.294 -0.0540 -0.2604 -0.2657
18989W        W34798   9.583   4.958  11.047  0.0190 -0.3130  0.1493
18990W        W34799   2.553   2.520  11.645 -0.0048 -0.4723 -0.0068
18991W        W34800   7.160   6.688   0.702  0.0773 -0.1475  0.0653
18992W        W34801  13.427   6.921   1.812  0.2236  0.1635 -0.3221
18993W        W34802  14.592   6.972  10.422  0.2141  0.1930  0.2476
18994W        W34803   4.974   5.323  10.391  0.0667 -0.0772  0.2147
18995W        W34804  16.900  17.253   5.066  0.0795  0.1453  0.1634
18996W        W34805   2.630  18.549   2.950  0.2723 -0.1715 -0.0818
18997W        W34806  11.489   7.269   4.445  0.0049  0.0847 -0.0502
18998W        W34807   3.912   3.962  12.416  0.1691 -0.1906 -0.1853
18999W        W34808  15.662   8.329   9.356 -0.2505 -0.0691  0.0537
19000W        W34809   7.973  10.479   4.266  0.1586  0.0406  0.1514
19001W        W34810   7.200  16.394  13.018 -0.0374 -0.0460  0.2151
19002W        W34811  12.892   0.655  14.127 -0.1199 -0.2492 -0.0759
19003W        W34812   9.155   6.370   2.109 -0.2904 -0.1188  0.2586
19004W        W34813   4.958   0.740   3.179  0.1978 -0.0515  0.0454
19005W        W34814  18.568   7.116   3.220 -0.0851  0.1669  0.1200
19006W        W34815   7.287   6.024   4.505  0.1774 -0.0033  0.0390
19007W        W34816  13.069   8.663  10.116  0.1456  0.0254 -0.1172
19008W        W34817  11.716   0.566  12.730 -0.0478  0.3290 -0.3271
19009W        W34818  18.845   7.375  13.818 -0.0892 -0.2913  0.0294
19010W        W34819  19.037  16.525  12.647 -0.2105  0.1189  0.0795
19011W        W34820  14.933  10.572  15.109 -0.2163 -0.0721  0.0765
19012W        W34821  13.100   8.204  13.603 -0.0115  0.0290 -0.2728
19013W        W34822  13.757   8.710  13.844  0.1742  0.0210  0.1305
19014W        W34823  15.762  12.206  10.340 -0.2525  0.0815 -0.0466
19015W        W34824   1.814  16.252   2.451 -0.2270 -0.4176 -0.0114
19016W        W34825  16.484   7.724   0.619  0.1496 -0.0728  0.0169
19017W        W34826   9.611   0.690   2.819 -0.0447  0.2719 -0.1740
19018W        W34827   2.144   6.574   5.190 -0.1902 -0.0583  0.2025
19019W        W34828   7.680   8.130  14.232  0.0748  0.2882  0.2112
19020W        W34829  11.888   8.716   3.211 -0.0577  0.2012  0.1877
19021W        W34830   7.638  10.771   3.029 -0.0691  0.0637 -0.1158
19022W        W34831   1.288  18.939   0.180 -0.0293  0.2236  0.2584
19023W        W34832  12.965  18.985  14.139  0.1277 -0.1726 -0.0791
19024W        W34833   8.688   6.660  13.125 -0.1782 -0.2585 -0.2466
19025W        W34834  12.833   1.428   4.286  0.0159 -0.0191 -0.1702
19026W        W34835   0.987  10.426   3.534  0.2703  0.0676  0.0506
19027W        W34836   3.793   0.594  10.309 -0.2222 -0.0216  0.4057
19028W        W34837  18.427   0.249  10.054  0.1701  0.1471  0.1273
19029W        W34838   7.027  14.137   3.919  0.1642 -0.1920 -0.0542
19030W        W34839  17.960  13.931   5.546 -0.1641 -0.0124  0.0934
19031W        W34840  14.303   0.547   4.615 -0.0703 -0.0994  0.0633
19032W        W34841   7.362   9.998  12.205 -0.0046  0.1325  0.0401
19033W        W34842  11.554   9.305  13.970 -0.2506  0.1985  0.1225
19034W        W34843   8.439  12.036  13.184 -0.0641  0.0323  0.2185
19035W        W34844  18.411   2.133  14.676 -0.0382  0.0163 -0.4953
19036W        W34845  14.561  10.394   3.256  0.0937  0.1891  0.2736
19037W        W34846  10.741   4.357  12.674  0.0251  0.3682  0.0083
19038W        W34847   5.492  16.654  11.120  0.0830  0.1478 -0.5842
19039W        W34848   9.131   4.636  14.473 -0.0431 -0.0266 -0.1883
19040W        W34849  16.902   2.943  14.484  0.0968  0.1424 -0.0040
19041W        W34850  17.402  10.944   3.255  0.2976 -0.1726  0.3698
19042W        W34851  10.955  18.325   9.500  0.1505  0.2156 -0.1191
19043W        W34852  17.887  12.134   0.109 -0.1385  0.1924 -0.2455
19044W        W34853  16.895   5.591   2.340  0.3945  0.1052  0.1073
19045W        W34854  13.738  12.678   1.430 -0.3919 -0.0300  0.1822
19046W        W34855  18.369   7.921  13.712 -0.1487 -0.1070 -0.1388
19047W        W34856   2.326  12.911  12.556 -0.2061  0.2376  0.1112
19048W        W34857   4.372  16.565  13.116 -0.1653  0.0068  0.0491
19049W        W34858   1.986   7.018   3.741 -0.0837 -0.0130  0.1881
19050W        W34859  14.238   7.906  13.656  0.0319  0.0832  0.0150
19051W        W34860  12.197  14.129  11.908 -0.4134  0.5063  0.0432
19052W        W34861  12.647  18.908  13.376  0.1505 -0.0029  0.0163
19053W        W34862   5.530   5.243  14.443 -0.1502  0.3075  0.1678
19054W        W34863  19.133   1.842   0.371  0.1206 -0.0932 -0.0753
19055W        W34864   6.013   6.471   4.099 -0.3580 -0.1740  0.2053
19056W        W34865   2.854  11.221   5.935  0.0062 -0.2214  0.2463
19057W        W34866   8.657  16.977   0.711  0.2325  0.3432  0.0749
19058W        W34867   2.261   6.358  10.459 -0.2283 -0.2820 -0.0077
19059W        W34868  11.717  11.059   5.001 -0.2534 -0.1725  0.1886
19060W        W34869   5.776  16.144   0.526  0.0167 -0.0076  0.2897
19061W        W34870   4.349   5.923  13.833 -0.2406 -0.3751  0.0920
19062W        W34871  18.246   3.548  10.433 -0.5485 -0.0041 -0.0401
19063W        W34872   5.360   6.351  13.096  0.1140  0.2262  0.0420
19064W        W34873   1.386  16.057  10.824  0.4101  0.0601 -0.2265
19065W        W34874   0.051   7.917   2.183 -0.0240 -0.0516  0.2205
19066W        W34875   5.507   9.563  13.075  0.1911  0.0828 -0.1359
19067W        W34876   0.683   5.025   1.685  0.2318 -0.1612 -0.1370
19068W        W34877  17.392  15.876   5.097 -0.2945 -0.4729  0.1453
19069W        W34878   5.392   1.808   0.542  0.0098  0.3023  0.1407
19070W        W34879   4.203   5.029   3.592  0.3957  0.1585  0.1834
19071W        W34880   6.693  11.909  14.490  0.1205 -0.1810 -0.1437
19072W        W34881   4.251  13.441  10.651 -0.1225 -0.2891  0.1104
19073W        W34882   7.540  18.865   4.811 -0.1801  0.2273 -0.0894
19074W        W34883   2.296   3.475  15.224  0.0054  0.3090 -0.1319
19075W        W34884  15.247  13.602   3.417 -0.1943 -0.0868 -0.1054
19076W        W34885   7.509   9.430  11.055  0.0988  0.3129 -0.0255
19077W        W34886  12.099  13.199   4.722 -0.0392 -0.2372  0.0750
19078W        W34887  15.126  13.534  14.831  0.3657  0.0321  0.1697
19079W        W34888  15.060  15.616  13.971 -0.0413  0.0859 -0.0504
19080W        W34889   2.594  18.827   3.740  0.1344 -0.1849  0.1138
19081W        W34890  19.063  10.473  13.429  0.0065  0.5491 -0.4955
19082W        W34891  10.174  18.844   0.122  0.3745 -0.0488  0.1834
19083W        W34892   4.954  18.109  10.626  0.3405 -0.2931  0.2008
19084W        W34893  11.868   6.954  14.495  0.0605 -0.2012 -0.1250
19085W        W34894   3.207   9.196  13.847 -0.0962 -0.0537 -0.0272
19086W        W34895   3.011   8.023   4.018 -0.3284  0.0167 -0.1414
19087W        W34896  13.152  11.482  13.319 -0.1192  0.0622 -0.0864
19088W        W34897   5.191   3.470  11.317 -0.1178  0.1709  0.0030
19089W        W34898  17.552   1.491  11.882 -0.2918 -0.0720  0.1640
19090W        W34899  14.268  13.220   3.278  0.0806 -0.0535 -0.0716
19091W        W34900  16.192  19.036  14.501 -0.0924 -0.0387  0.4783
19092W        W34901   5.529  18.193   2.876 -0.0023  0.1051  0.4031
19093W        W34902   4.942  11.596  14.696  0.1805  0.0012  0.1094
19094W        W34903   7.100   0.320   0.639 -0.1606  0.3823  0.0482
19095W        W34904  14.847  13.516   4.930 -0.0068  0.1353  0.1676
19096W        W34905  13.265  11.159   1.006 -0.1470 -0.1110  0.0809
19097W        W34906  11.950   7.494   3.203  0.1670  0.3155 -0.1414
19098W        W34907   4.271   2.746  15.141  0.0480  0.1714 -0.0349
19099W        W34908  16.942   1.466   0.636  0.3105  0.0444  0.1343
19100W        W34909   3.075   6.709  14.919  0.1263 -0.3393 -0.0702
19101W        W34910  15.214   2.675   1.876  0.0261  0.0956 -0.0171
19102W        W34911  11.397   3.257   4.845  0.1223 -0.0220  0.0300
19103W        W34912   1.216   5.933  14.264 -0.0821  0.3145  0.0387
19104W        W34913  14.523  17.578  12.668 -0.0532 -0.0779 -0.1772
19105W        W34914   0.052   2.977   1.281  0.2364  0.2488  0.2171
19106W        W34915   0.308   5.229  10.909  0.0214 -0.1951  0.2662
19107W        W34916   7.492   9.659  15.056 -0.1346  0.1214  0.0178
19108W        W34917   6.889  13.590  12.204  0.2099  0.0658 -0.0903
19109W        W34918   6.381   0.541   5.159 -0.0405 -0.0639  0.0836
19110W        W34919   1.613   7.961   3.893 -0.1561  0.1399 -0.2483
19111W        W34920  18.254  16.108   5.290 -0.3133  0.0432  0.0019
19112W        W34921   6.541   3.867  12.269  0.0422 -0.0091 -0.2766
19113W        W34922   8.171  16.306   0.944 -0.3406  0.0437 -0.0454
19114W        W34923   5.720  11.929   1.554 -0.1471  0.1341 -0.1671
19115W        W34924  12.485  13.540   4.445 -0.1404 -0.2159 -0.0235
19116W        W34925  13.096   4.201  10.133  0.1589 -0.1833 -0.1115
19117W        W34926   3.937  11.756   1.045 -0.0405 -0.2082 -0.0604
19118W        W34927   2.443  18.098  11.001  0.0063 -0.1550 -0.1581
19119W        W34928   4.627  10.482   3.726 -0.1340  0.0773  0.0364
19120W        W34929  14.915  10.853  14.264 -0.0823  0.0857 -0.3119
19121W        W34930   6.663   1.673   3.296 -0.1894  0.0158  0.1391
19122W        W34931  15.241  14.151  11.681  0.0270  0.0986 -0.0131
19123W        W34932   9.827  14.055   4.430 -0.1929  0.0379  0.0982
19124W        W34933   4.497  10.144   0.626 -0.0694  0.0023 -0.3140
19125W        W34934  18.958  10.560   4.568  0.4154 -0.0556 -0.3623
19126W        W34935   1.790   6.401   2.432  0.0959  0.2831  0.2832
19127W        W34936   5.619   7.540  14.199 -0.0459  0.3128 -0.3398
19128W        W34937  11.025   3.158  11.350  0.3182 -0.1089  0.1428
19129W        W34938  14.358   5.912   2.377 -0.0980 -0.0865 -0.1220
19130W        W34939  14.510  18.556  14.936  0.1093 -0.1790 -0.2074
19131W        W34940  15.495  10.706   5.113  0.2449 -0.1418 -0.0687
19132W        W34941  17.635   9.182  13.195  0.1645  0.1519 -0.1867
19133W        W34942   1.295  16.358   0.276  0.2974 -0.0085 -0.0852
19134W        W34943   2.220  19.031  10.793  0.1218  0.2424 -0.1900
19135W        W34944   1.396   6.275   9.351 -0.1250 -0.0717 -0.1593
19136W        W34945  14.350  11.628   0.166  0.3172 -0.0438 -0.3594
19137W        W34946  14.526  17.990  14.216 -0.0869 -0.0139 -0.0887
19138W        W34947   5.482   8.512  14.677 -0.4006 -0.0998 -0.1267
19139W        W34948  11.660   9.463   0.338 -0.1347 -0.0174  0.2547
19140W        W34949  17.090  14.372  12.322 -0.0149  0.2218  0.1198
19141W        W34950   1.348   6.128  10.240  0.0781  0.0884 -0.1607
19142W        W34951  16.692  14.058   1.739 -0.0214 -0.2825 -0.1032
19143W        W34952  16.190  14.962   0.274  0.3207 -0.0145 -0.2227
19144W        W34953  16.603  10.159   2.382 -0.0543 -0.0201  0.0837
19145W        W34954  14.101   3.179   0.747 -0.0467 -0.1869 -0.3177
19146W        W34955   3.953  15.592  11.222  0.0452  0.0278 -0.1156
19147W        W34956  13.171  13.397  15.031 -0.2199 -0.4403 -0.0542
19148W        W34957   6.844   9.288   1.871 -0.1162  0.0129  0.0159
19149W        W34958   6.138  12.971  13.275 -0.1325 -0.0457  0.0086
19150W        W34959   2.638   8.478  15.117  0.2004  0.0339  0.0790
19151W        W34960  14.990  16.962  13.772  0.1372  0.1202  0.1258
19152W        W34961  12.245   5.900  12.267  0.0792  0.0765 -0.4594
19153W        W34962  15.310   3.830   1.345  0.2020 -0.0378  0.0457
19154W        W34963   9.241  16.438  13.179  0.0499  0.2016  0.2793
19155W        W34964   4.754   3.578  15.059 -0.1300 -0.0012 -0.1403
19156W        W34965  14.944   7.031  11.554 -0.0381  0.0684 -0.0782
19157W        W34966   0.617   1.385  14.250 -0.0854  0.2462  0.3794
19158W        W34967  18.118   2.580   1.831 -0.0153 -0.0880 -0.1047
19159W        W34968   1.538   3.252   5.271 -0.2033 -0.1360  0.0657
19160W        W34969   4.093  18.053   3.904 -0.0752 -0.1961  0.4252
19161W        W34970  13.138  18.944   3.123  0.0425  0.1459 -0.3677
19162W        W34971  14.420  15.374   2.797 -0.1995 -0.0067  0.0268
19163W        W34972   9.060  14.158   3.204  0.3298 -0.3283  0.2570
19164W        W34973  14.469   5.531   2.673 -0.0555  0.0845 -0.2380
19165W        W34974  11.685  12.056   3.954  0.0180 -0.1230 -0.1719
19166W        W34975  16.557   9.817   2.703  0.1160 -0.1109 -0.0928
19167W        W34976  17.270   4.945  14.062 -0.1195  0.0934  0.0984
19168W        W34977   0.972  17.191  14.518 -0.0890  0.3598 -0.4286
19169W        W34978   3.308   0.444  10.142 -0.1176 -0.0157  0.1789
19170W        W34979   2.844   7.315   1.870 -0.2190  0.0322 -0.0979
19171W        W34980   5.673  10.503   1.656  0.3272 -0.1454 -0.0997
19172W        W34981  16.997  14.001   3.177 -0.1410 -0.0706 -0.1826
19173W        W34982  17.953   5.400   1.669 -0.4263 -0.2276  0.4456
19174W        W34983   0.847   4.334  13.822  0.1362  0.0263  0.1392
19175W        W34984   8.784  12.471   0.814  0.1159  0.1637 -0.1609
19176W        W34985  13.983  16.537   1.631  0.1113 -0.1360  0.2282
19177W        W34986  15.639   3.792   5.631 -0.0382 -0.2111  0.0691
19178W        W34987   3.246   3.498  15.095  0.1712  0.1070  0.2428
19179W        W34988  11.441   5.388  13.446 -0.1010 -0.0471  0.0636
19180W        W34989  17.598  17.745   2.956  0.3748 -0.2495  0.0160
19181W        W34990   7.136  10.587   5.746 -0.2296  0.0260  0.1983
19182W        W34991  15.240  12.192  12.626 -0.1902 -0.2646  0.0575
19183W        W34992  18.661   5.033   9.974  0.0290  0.1090  0.1649
19184W        W34993  10.687  11.056  12.890  0.0388 -0.1058  0.4826
19185W        W34994   3.855   1.987   1.554 -0.0587  0.2826  0.0829
19186W        W34995   9.323  17.875  12.176 -0.3203 -0.3293 -0.2875
19187W        W34996   3.135  17.137  14.699 -0.3648  0.2449 -0.1089
19188W        W34997  16.254  13.412  11.247  0.0129  0.0710 -0.1806
19189W        W34998   4.479  15.582  11.481  0.3167 -0.0175 -0.0839
19190W        W34999   7.170  15.731   1.769 -0.0725  0.3187 -0.1932
19191W        W35000   7.932   5.152   3.035  0.0264  0.1931 -0.2014
19192W        W35001   7.358   2.812   3.091  0.0177  0.3959  0.3856
19193W        W35002   9.646  16.822  11.187  0.0845 -0.0039 -0.0844
19194W        W35003  11.519  17.352   0.889  0.1023 -0.3754 -0.3917
19195W        W35004  16.235  14.837  14.715  0.0848  0.0880  0.2465
19196W        W35005  18.802  18.579  11.903  0.1275  0.0442 -0.0068
19197W        W35006  12.399   4.957  13.921 -0.0750 -0.3002 -0.5556
19198W        W35007  13.611   4.334  10.579 -0.2509  0.2129 -0.0753
19199W        W35008   0.438  15.884  11.159 -0.1461 -0.2072 -0.0658
19200W        W35009  13.595  17.692   4.818 -0.2978 -0.2325 -0.2374
19201W        W35010   8.612   9.596  11.582 -0.0280 -0.2853 -0.0540
19202W        W35011  18.879  13.635   0.380 -0.1043  0.2398 -0.0244
19203W        W35012  18.333  14.207  15.196 -0.2027  0.1090 -0.0500
19204W        W35013   2.506   7.755   2.006  0.0733 -0.3234  0.2102
19205W        W35014   7.943   2.137  11.183 -0.1375  0.1317  0.2241
19206W        W35015   0.557   7.730   0.837 -0.1434 -0.0214 -0.5347
19207W        W35016  13.021  10.101  10.637 -0.1949 -0.0905  0.0727
19208W        W35017  10.564   4.099  15.023  0.3823  0.0435  0.2441
19209W        W35018  14.340   9.569  11.982  0.1818 -0.1366 -0.1483
19210W        W35019  13.066   2.949   2.068  0.1156  0.0069 -0.1108
19211W        W35020   5.832   0.334   0.609  0.0966 -0.4127 -0.2968
19212W        W35021  16.824  16.721  13.650 -0.2444 -0.1580  0.0232
19213W        W35022  12.890  13.471   5.274 -0.0003  0.3195  0.0112
19214W        W35023  15.799  17.476   3.322  0.0822 -0.0277  0.2300
19215W        W35024   4.107  11.045  13.839  0.1382 -0.1288  0.2071
19216W        W35025  14.542  10.221   1.668  0.0385 -0.1884  0.1483
19217W        W35026   7.607   8.027  13.769 -0.3886  0.1202  0.1307
19218W        W35027  10.336  18.570   1.925  0.1197 -0.1698  0.2615
19219W        W35028   4.510   6.719  13.996  0.0775  0.2895 -0.5145
19220W        W35029   5.816  14.450  15.198  0.2972  0.1030  0.2591
19221W        W35030  10.347   3.983   4.411 -0.0280 -0.2291 -0.2105
19222W        W35031   7.701  13.889  13.044  0.1144  0.2975  0.1110
19223W        W35032   8.145   0.500   3.029  0.0618 -0.2999 -0.1823
19224W        W35033   9.830  15.520  12.885 -0.2742  0.1332  0.0254
19225W        W35034  19.087   0.995  11.651  0.3883 -0.1234  0.1915
19226W        W35035  14.880   6.126  10.024  0.0182  0.1949  0.0045
19227W        W35036   7.463   5.724   0.701  0.3130  0.1426 -0.0183
19228W        W35037   8.191   9.092  15.057 -0.0140  0.0849  0.3112
19229W        W35038  13.135  10.794  12.078 -0.0479  0.3843  0.4681
19230W        W35039   3.914  11.806  14.587 -0.0013  0.1908 -0.1537
19231W        W35040   9.043   5.782  13.369  0.0126 -0.2698  0.1142
19232W        W35041   1.434  10.465  11.047  0.3007  0.0954 -0.1066
19233W        W35042   2.049   6.356  12.331 -0.2008 -0.0785 -0.0820
19234W        W35043   5.400   6.851   1.834  0.1040 -0.2296  0.0346
19235W        W35044   8.069   8.903   4.707  0.0114 -0.1427  0.0107
19236W        W35045  17.448  12.519   0.753 -0.1114  0.1358 -0.0342
19237W        W35046  12.542   8.956   2.148 -0.0466  0.3088  0.1051
19238W        W35047  14.896   0.304   2.264  0.1572 -0.0218  0.3568
19239W        W35048   1.587  17.014   4.485 -0.0925 -0.0494  0.2456
19240W        W35049   7.183  18.569  14.074  0.0520  0.2684  0.0214
19241W        W35050   7.362  17.778   4.108 -0.1282 -0.0059  0.1002
19242W        W35051  10.508  17.560  10.608  0.0584  0.1788 -0.3187
19243W        W35052   3.839  12.966   3.487 -0.0412  0.1578  0.1743
19244W        W35053  12.361  12.593   1.453 -0.0904  0.2048 -0.1856
19245W        W35054   4.581   8.171   4.170 -0.0488 -0.0520 -0.0305
19246W        W35055  18.453   9.551  13.755 -0.0410 -0.2572  0.2071
19247W        W35056  15.866  19.038  11.493 -0.0558  0.0125  0.4928
19248W        W35057  16.695   6.063  12.924 -0.2051  0.0838 -0.0649
19249W        W35058   5.732   4.749   5.631  0.3200 -0.1171 -0.2333
19250W        W35059  16.631   0.108  14.816 -0.1881  0.0264  0.1838
19251W        W35060   7.240  18.733   1.888  0.2221 -0.2489 -0.1680
19252W        W35061   6.419   1.742   4.396 -0.2304  0.2902  0.1974
19253W        W35062   7.129   0.242  13.900  0.1598 -0.4088 -0.1262
19254W        W35063  11.050   9.743  15.095  0.1105 -0.5970 -0.0204
19255W        W35064  11.186  15.387   4.638 -0.1799 -0.2124  0.0136
19256W        W35065  15.513   2.453   5.650  0.0095 -0.2171  0.2607
19257W        W35066  17.932   2.057  14.973  0.2315 -0.1409 -0.2038
19258W        W35067   1.365  11.985  12.536 -0.1904  0.0124  0.1596
19259W        W35068  17.575   3.088  12.443  0.0205  0.0279 -0.3411
19260W        W35069  11.640  16.184  15.035 -0.0142  0.2816 -0.0380
19261W        W35070  14.451   2.077  14.039 -0.0453 -0.2222  0.2971
19262W        W35071  14.436   6.845   3.510 -0.1514 -0.1579  0.1175
19263W        W35072  12.448  13.011   2.364 -0.2056  0.0014  0.0335
19264W        W35073   9.873   4.970  14.765 -0.1777 -0.2498  0.0693
19265W        W35074  14.407   3.453  11.187 -0.1150 -0.0538 -0.1609
19266W        W35075  17.038  18.314   0.440 -0.1212  0.0856  0.0173
19267W        W35076   8.910  13.401  14.672  0.3095 -0.0857  0.0321
19268W        W35077  14.274  15.309   0.084  0.0462  0.2310  0.1921
19269W        W35078  15.391   3.469   1.851  0.0480  0.0599 -0.0250
19270W        W35079   0.268  14.996  13.095  0.0383  0.1067  0.0299
19271W        W35080   9.657  10.736   2.840 -0.0667 -0.3951  0.3831
19272W        W35081   0.679  18.658   3.412 -0.0666  0.2119  0.0044
19273W        W35082  10.711  18.345   5.506 -0.3115  0.1293  0.1940
19274W        W35083   2.573  13.811   3.481  0.0312  0.0190 -0.3769
19275W        W35084  12.123  15.149   5.844  0.0690  0.4807 -0.4001
19276W        W35085  12.246  16.084   0.771  0.1707 -0.1560  0.1611
19277W        W35086  17.188   9.819   0.657 -0.1346 -0.2173  0.1305
19278W        W35087  17.031   8.357   2.397 -0.0359  0.1854 -0.1102
19279W        W35088  14.251  17.108   2.437  0.1152  0.0212  0.1218
19280W        W35089   8.912  12.724  12.833  0.3675  0.0033 -0.2593
19281W        W35090   3.563   7.040  12.463 -0.2724 -0.0087  0.2400
19282W        W35091  18.869   5.917  13.986  0.5679  0.0533  0.0701
19283W        W35092   3.380  18.829  13.460 -0.3766  0.1636 -0.1399
19284W        W35093   9.582  10.494  11.396 -0.2124  0.1043 -0.0635
19285W        W35094  13.905  14.436   5.104  0.2310 -0.1341 -0.0262
19286W        W35095   8.811  14.804   4.836  0.2200 -0.1042 -0.1614
19287W        W35096  16.440   8.164   0.885  0.0366  0.0539  0.1241
19288W        W35097   1.309   6.423   5.499 -0.0887  0.1099 -0.0092
19289W        W35098  12.919  13.662  13.047  0.2524  0.1470 -0.2002
19290W        W35099  12.068   3.538  11.379  0.0095 -0.1747 -0.3016
19291W        W35100   6.955   3.439   2.662 -0.5971 -0.2663  0.2321
19292W        W35101   3.540   9.906  14.550 -0.2015 -0.2315 -0.1694
19293W        W35102   3.484  15.732  14.805  0.1658 -0.0568  0.1623
19294W        W35103   6.723  16.582  11.180 -0.1364 -0.0765  0.0450
19295W        W35104   2.540  15.343  12.598 -0.2080 -0.1287 -0.0527
19296W        W35105  15.902   5.628  14.421 -0.1578  0.0046 -0.1596
19297W        W35106   0.388  16.728   5.175  0.0377 -0.1062  0.1438
19298W        W35107   8.320  10.281   1.340  0.2644 -0.2175 -0.0381
19299W        W35108  14.854   0.686   3.123 -0.1458  0.0688  0.0366
19300W        W35109  14.457  10.720  13.558  0.0052  0.1303  0.3108
19301W        W35110   6.784   0.007   0.428 -0.1184  0.1253  0.4081
19302W        W35111  15.888  15.789   4.125 -0.4115  0.0461 -0.2622
19303W        W35112  11.500   1.381   0.297  0.1934 -0.1829  0.0411
19304W        W35113  13.972   1.449   2.177  0.0163 -0.0926 -0.2503
19305W        W35114   8.564  17.358   2.611  0.0986 -0.3355 -0.1726
19306W        W35115   5.854   4.869  12.677  0.0879 -0.1001  0.1982
19307W        W35116  11.064   4.047  13.970  0.0646 -0.3910 -0.4030
19308W        W35117  17.086  14.164  13.211 -0.0928 -0.0503  0.0258
19309W        W35118   5.875  18.109   0.874  0.3981 -0.2135 -0.2134
19310W        W35119   2.232   3.017   4.103 -0.0387 -0.0218  0.0295
19311W        W35120   3.874  18.874  13.294 -0.1246 -0.0615 -0.0481
19312W        W35121  18.176   8.218   1.982 -0.3014 -0.3133 -0.2706
19313W        W35122  18.452  12.443   0.154 -0.0984  0.1835 -0.0251
19314W        W35123  12.713  16.337   0.999  0.0707 -0.1047  0.3286
19315W        W35124  15.420   0.113   2.219 -0.0526  0.1276  0.0141
19316W        W35125   4.724   1.342  12.299 -0.2425  0.2609 -0.2214
19317W        W35126  11.849  16.715   4.348  0.1060  0.1232  0.0683
19318W        W35127   9.315  17.284  13.367  0.0569  0.0906 -0.2998
19319W        W35128   8.566  15.744  11.564 -0.2193  0.1807  0.2257
19320W        W35129  14.113  11.167   0.463 -0.0115  0.2387  0.4024
19321W        W35130   8.540   3.822   4.814  0.2214  0.1279 -0.2516
19322W        W35131   8.014   1.929   0.903  0.0301 -0.3517  0.0738
19323W        W35132  11.057  16.324   5.804  0.4207  0.3266 -0.0339
19324W        W35133   0.734   6.537   5.063  0.3036  0.3073  0.0655
19325W        W35134   4.301   4.436   0.156  0.1371 -0.0871 -0.1012
19326W        W35135  15.211   1.003   2.186  0.4216 -0.1939  0.0547
19327W        W35136   9.274   9.695  13.499  0.1380 -0.0739  0.2726
19328W        W35137  16.065  10.639  12.544 -0.2524  0.0922 -0.2669
19329W        W35138   8.036   7.747  14.481  0.4122  0.2094  0.0666
19330W        W35139   6.251   0.520   3.306 -0.1937 -0.0458  0.0886
19331W        W35140   9.333  13.538   3.346  0.0184  0.1825 -0.1729
19332W        W35141  15.088   6.812  13.939 -0.2052  0.2810 -0.1921
19333W        W35142   2.929  10.198   5.174 -0.0132  0.0073 -0.1700
19334W        W35143   0.134   8.828  14.156 -0.1927 -0.1838  0.2894
19335W        W35144   5.408   1.383  14.485 -0.3292 -0.2001  0.1406
19336W        W35145   2.556   4.728   4.716  0.1155  0.2320  0.2586
19337W        W35146  15.065   9.568   0.459 -0.2616  0.3913 -0.1749
19338W        W35147   9.882  18.832  11.796 -0.0983 -0.3367 -0.1097
19339W        W35148  12.179  18.017  13.182  0.0161  0.0485 -0.3096
19340W        W35149  10.723   5.996   4.097 -0.0853  0.1439 -0.3246
19341W        W35150   0.973  17.167   0.187 -0.0334 -0.0422 -0.2589
19342W        W35151  10.653  18.986   1.026  0.2463 -0.0803  0.2011
19343W        W35152  14.270   4.962   4.123 -0.2520 -0.2578  0.0750
19344W        W35153  11.840  11.111   2.023 -0.0303  0.1019 -0.2742
19345W        W35154  18.279  18.011  12.572 -0.1325 -0.0830  0.0638
19346W        W35155   1.948  14.319  13.633  0.0203 -0.0918 -0.4142
19347W        W35156  16.390  13.750  13.614  0.0484 -0.0710 -0.0902
19348W        W35157   9.049  13.905  13.162 -0.0126  0.0154  0.1547
19349W        W35158   5.602  16.007  10.517  0.0392  0.0953  0.1379
19350W        W35159   4.010   5.104   5.103  0.0962 -0.2923  0.2780
19351W        W35160   1.883   9.720  10.676 -0.1482 -0.1116 -0.4032
19352W        W35161   4.345  10.100  13.571 -0.0526 -0.2656  0.0604
19353W        W35162   6.456   8.604  11.373  0.1231 -0.0781  0.0038
19354W        W35163  18.313  17.049  12.245 -0.3681  0.3594 -0.2039
19355W        W35164   3.673   2.533   1.419 -0.0178  0.2494 -0.0484
19356W        W35165  10.058  16.771   3.529  0.3864  0.4437 -0.1929
19357W        W35166  11.453   4.927  13.663  0.2368  0.1198 -0.0009
19358W        W35167  11.374   3.240   0.875 -0.0123  0.2956  0.2769
19359W        W35168   8.728  16.767   0.278 -0.0554  0.1726  0.3532
19360W        W35169  12.909  13.366  12.462  0.0501 -0.0278  0.4190
19361W        W35170  13.905   5.277  12.687 -0.1060  0.1726 -0.1026
19362W        W35171   4.561  16.135   0.357  0.1008  0.1304  0.2636
19363W        W35172  11.323  11.968  15.040 -0.0773  0.0901 -0.2873
19364W        W35173   7.618  11.217   4.249 -0.3225  0.2972  0.3271
19365W        W35174  13.228  14.670  13.016  0.2113  0.4428 -0.0405
19366W        W35175   7.960  11.198  13.398 -0.0453  0.0433 -0.0436
19367W        W35176  15.158  14.431   2.264  0.2709  0.0706 -0.1964
19368W        W35177  14.868  18.531  14.157  0.2312  0.0559 -0.2070
19369W        W35178   2.899  18.714   5.417 -0.2081 -0.2300  0.2068
19370W        W35179  18.941  15.626  12.378 -0.1023  0.0608 -0.0938
19371W        W35180  16.278   5.627   1.848  0.1449 -0.1010 -0.0870
19372W        W35181   2.324  17.432   2.644  0.0122  0.0567 -0.0753
19373W        W35182   4.388  13.874   2.188  0.3197  0.0492 -0.0323
19374W        W35183  18.078  19.112  13.523  0.0778  0.2266 -0.1925
19375W        W35184   8.081   2.970   0.112 -0.0635  0.3275 -0.1480
19376W        W35185  13.098   3.707  15.033  0.1982  0.1220  0.2116
19377W        W35186  13.404   9.424   5.137  0.1146 -0.1177  0.2148
19378W        W35187  10.515   2.889   2.805  0.1288 -0.0235  0.0092
19379W        W35188  18.699  11.679   2.228  0.3456  0.3317 -0.1266
19380W        W35189   7.244   4.158  11.933 -0.0201 -0.1567  0.0832
19381W        W35190  14.340   7.312   1.783  0.2766  0.0817 -0.1012
19382W        W35191   3.130   6.247  13.379  0.0306  0.4908  0.1386
19383W        W35192   9.271  17.319  12.878  0.0230 -0.0186  0.1928
19384W        W35193   4.882   6.464  10.973  0.1293 -0.1633 -0.0331
19385W        W35194   2.939  15.825  12.517  0.0645  0.0065  0.1370
19386W        W35195   6.745   4.522   3.630  0.0220 -0.0760 -0.0682
19387W        W35196   1.599  13.422   1.753 -0.2641 -0.1853 -0.0372
19388W        W35197   4.385  14.700   3.577 -0.0456  0.2436  0.2633
19389W        W35198   4.298   3.920  13.686 -0.1664 -0.2267  0.0204
19390W        W35199  10.446   8.810  13.443  0.1577 -0.1433  0.0607
19391W        W35200  12.934   3.511  14.584  0.2099 -0.1367  0.0405
19392W        W35201   1.634  16.517   3.089  0.2684 -0.2010 -0.0376
19393W        W35202  18.136   4.433  11.364  0.0037  0.2857 -0.0297
19394W        W35203   1.982  16.272  14.631 -0.2999 -0.3565 -0.0293
19395W        W35204   8.446   6.545   0.088  0.2642  0.1617  0.1314
19396W        W35205  18.969   2.594   4.643  0.0122  0.0555 -0.0700
19397W        W35206   4.484   2.243   2.179 -0.1459 -0.1297  0.2760
19398W        W35207   4.772  18.091   0.572 -0.1671 -0.0227  0.0165
19399W        W35208   6.083   5.520  13.237 -0.1748  0.0833  0.1096
19400W        W35209  17.023   8.692  12.498 -0.0134  0.0434  0.1247
19401W        W35210   6.357  14.578   2.581  0.0853  0.3076 -0.2480
19402W        W35211   8.405  10.709   4.146 -0.0446  0.2160 -0.0988
19403W        W35212   2.568   7.652  11.861  0.2140  0.1484  0.2685
19404W        W35213  16.634   9.056   2.262  0.1319 -0.0513  0.1994
19405W        W35214  11.936  18.863  12.885  0.0148 -0.0399  0.1986
19406W        W35215   3.622  12.935   5.786 -0.1044  0.0851 -0.2464
19407W        W35216   4.435   6.721  11.389  0.1722 -0.0736  0.1737
19408W        W35217  15.858   1.565   1.860  0.1800  0.0797 -0.0479
19409W        W35218  16.795  18.196   3.553 -0.2250 -0.1851 -0.0772
19410W        W35219   6.985  10.919   3.618  0.1605  0.2060 -0.0881
19411W        W35220   6.511  13.804  13.115  0.0937  0.3152 -0.2294
19412W        W35221   7.606  15.747   2.587  0.0062 -0.0148 -0.2528
19413W        W35222  11.492  12.659   2.090 -0.1615 -0.0806  0.1514
19414W        W35223   5.196   5.141   4.992 -0.2068  0.1820  0.1374
19415W        W35224  11.038  13.486  12.089  0.0521  0.1492  0.0523
19416W        W35225  12.976  15.006   4.019  0.1323  0.1779  0.6016
19417W        W35226   6.092  12.705  11.621 -0.0639 -0.0502  0.3669
19418W        W35227  16.078  15.915  13.669 -0.1368  0.1036  0.1000
19419W        W35228   3.321   2.363  12.291 -0.1412  0.1196 -0.0045
19420W        W35229  17.406  18.172   3.796 -0.1908  0.3404  0.3286
19421W        W35230  10.419  14.839   0.109  0.1232 -0.0545  0.1810
19422W        W35231   0.111  10.232  11.639  0.3819 -0.0597 -0.0331
19423W        W35232   6.925   2.514   9.571 -0.5775 -0.1125  0.1615
19424W        W35233  10.369   5.995   1.021  0.1490 -0.1864 -0.1010
19425W        W35234   7.344  19.060  14.858 -0.0805 -0.0735 -0.1305
19426W        W35235  10.785  11.238  11.120  0.0882 -0.0091 -0.1483
19427W        W35236   2.027  15.498   3.025  0.0970 -0.1712  0.0965
19428W        W35237  12.005  12.316  12.231 -0.1959 -0.3185  0.0315
19429W        W35238  13.093   2.574   0.207 -0.2157  0.1146  0.0828
19430W        W35239  11.996   1.320   1.480  0.0832  0.5895  0.2465
19431W        W35240  10.101  17.231  12.290  0.0039 -0.0795  0.0435
19432W        W35241  17.362  11.565  10.814 -0.2334 -0.0148  0.1045
19433W        W35242  10.617   5.056   4.290  0.0966  0.0089  0.0690
19434W        W35243   2.243  10.248   4.644 -0.0732 -0.0397  0.1611
19435W        W35244  13.174   1.092  14.144  0.2028  0.3705  0.0225
19436W        W35245   6.693  16.436   0.890 -0.0704 -0.0847  0.1108
19437W        W35246  13.744  14.257   2.769  0.1768  0.0000  0.1457
19438W        W35247   3.164  12.991  13.035  0.2712  0.0193 -0.2434
19439W        W35248   9.532   7.649   5.242  0.1162 -0.2216 -0.0839
19440W        W35249  13.680   0.864  14.212  0.4284 -0.1815 -0.0387
19441W        W35250   2.571  16.809  10.770  0.0296 -0.1122 -0.0638
19442W        W35251  15.227   8.058   4.057 -0.1191 -0.1504 -0.0136
19443W        W35252  16.332  15.522   4.082 -0.0182  0.3384  0.0964
19444W        W35253   0.734   9.791   2.931  0.0685  0.2592 -0.1056
19445W        W35254   4.494  18.024   4.141  0.1617  0.0748  0.2941
19446W        W35255   8.488  10.968   1.593  0.1892 -0.1719  0.2972
19447W        W35256   1.578   6.335   3.669 -0.0972 -0.0918  0.1221
19448W        W35257  18.339   0.249   3.361 -0.1793 -0.0637  0.2271
19449W        W35258  16.389   1.050  14.076 -0.1598 -0.2460 -0.2849
19450W        W35259  14.588   8.305   0.004  0.0162  0.0127 -0.1525
19451W        W35260  17.289  15.122  15.200  0.0960  0.1909  0.1056
19452W        W35261   1.538  18.262   3.068 -0.0756 -0.2055  0.2667
19453W        W35262   8.591   9.675   1.618  0.0730 -0.0927  0.1609
19454W        W35263  12.067   1.913   1.480 -0.0486  0.1405  0.0362
19455W        W35264   8.987   0.866  14.828  0.1436  0.1171  0.4131
19456W        W35265   8.564   9.147  11.783  0.3346 -0.0316  0.2271
19457W        W35266  13.720   0.437  12.006 -0.0090  0.3681  0.0265
19458W        W35267  11.471  17.791   3.279  0.1150  0.1098  0.3472
19459W        W35268   4.234   3.676  12.645  0.0133 -0.0110 -0.0523
19460W        W35269   7.495   5.699   4.776 -0.1185  0.0430  0.2867
19461W        W35270  14.270  10.329  11.176 -0.0097 -0.0568 -0.3004
19462W        W35271   9.583   7.200   5.333  0.5312  0.3403  0.3688
19463W        W35272  13.463  10.588  13.802 -0.3271  0.2572  0.1257
19464W        W35273   1.451  10.873   4.290  0.1825 -0.1688  0.2783
19465W        W35274   0.431  19.042  11.466  0.0806  0.0694 -0.1624
19466W        W35275  16.841   1.883   4.690 -0.0494 -0.0414  0.4147
19467W        W35276   3.183   0.096   0.134 -0.1376 -0.1687 -0.1087
19468W        W35277  18.610   2.111   3.106  0.3770  0.0418 -0.0810
19469W        W35278  17.261   8.918   0.610 -0.3654  0.0103  0.1873
19470W        W35279   9.546   0.423   1.454 -0.0337 -0.2158  0.0693
19471W        W35280   9.890   2.785  13.455 -0.1727  0.0889 -0.1160
19472W        W35281  12.879  10.818   0.683  0.0379 -0.1096 -0.3892
19473W        W35282   0.738   4.920  10.260 -0.0568 -0.0597 -0.1986
19474W        W35283   4.811   7.537   0.624  0.2724  0.0680  0.0832
19475W        W35284  17.045   3.647  12.395  0.1102  0.1267  0.0566
19476W        W35285  16.687  12.078  13.690  0.0658 -0.1038  0.2382
19477W        W35286  18.756   7.814   3.738 -0.2635 -0.0441 -0.1018
19478W        W35287  14.327   3.561  13.849 -0.2114  0.1703  0.1064
19479W        W35288   9.724  15.494   4.063 -0.3036  0.1823  0.0914
19480W        W35289  14.131  15.737   3.060  0.2653  0.2066  0.0789
19481W        W35290   4.664   7.521  11.053  0.0823  0.3582  0.1423
19482W        W35291  18.371   7.183  15.170  0.2942  0.0053  0.1779
19483W        W35292   4.142  14.606  15.047 -0.1311  0.0820 -0.0219
19484W        W35293   0.091  11.704   0.150  0.0682  0.0444  0.1333
19485W        W35294   2.179   0.494  14.426 -0.1412 -0.0559  0.2001
19486W        W35295  11.123  11.619   0.255 -0.1395 -0.0915  0.1237
19487W        W35296   8.203   9.477   0.307  0.3662  0.0999 -0.0599
19488W        W35297  15.154   7.504   4.224 -0.0106  0.0099 -0.5348
19489W        W35298  15.661  11.615  13.335  0.2855  0.0002 -0.1096
19490W        W35299   0.348   3.193  14.052  0.1853  0.1062  0.0349
19491W        W35300   1.357  15.544   4.157  0.0753  0.1444  0.2377
19492W        W35301   9.707   1.567   2.200  0.2214  0.0368 -0.3073
19493W        W35302   1.152   1.988   2.011  0.3512 -0.2483 -0.3847
19494W        W35303   0.968  10.770   5.597 -0.0818 -0.0661 -0.1380
19495W        W35304  17.151   2.903  12.245  0.1117 -0.3905  0.4566
19496W        W35305  13.448  12.262   2.427 -0.0423 -0.0559 -0.0625
19497W        W35306   0.891   4.205   3.660  0.0247 -0.1057 -0.0897
19498W        W35307   2.056  12.443  14.291 -0.2737 -0.1297 -0.0101
19499W        W35308  16.506   9.171  10.249 -0.0001 -0.2019  0.0492
19500W        W35309   3.040   4.733  14.053  0.1008 -0.1409  0.0707
19501W        W35310   8.002  15.884   1.784 -0.0982 -0.2958 -0.0747
19502W        W35311   1.608  13.276   4.197 -0.2072 -0.4256  0.3067
19503W        W35312   4.995  17.655   3.012  0.1223 -0.3231  0.3267
19504W        W35313   5.364  18.898  12.977 -0.1665 -0.5197 -0.1615
19505W        W35314   4.102  16.230   3.648 -0.1095 -0.0294 -0.1244
19506W        W35315   1.767  15.864  12.202  0.0601 -0.0966 -0.3777
19507W        W35316  11.998  13.733   2.857 -0.0428 -0.1884  0.0863
19508W        W35317   4.919  15.985   2.073 -0.0538  0.0959 -0.0475
19509W        W35318  12.286  14.578  13.718 -0.1833 -0.2519  0.0834
19510W        W35319  11.498   9.765  13.753  0.1871  0.2729  0.5537
19511W        W35320  15.266   8.260  11.964  0.0638  0.0197  0.0231
19512W        W35321   6.349  11.589   3.334  0.1815  0.1235  0.2264
19513W        W35322  16.033   1.789  15.216  0.2711 -0.1940  0.0429
19514W        W35323   5.661   8.020  12.338  0.2679 -0.1057 -0.1685
19515W        W35324   6.861  13.440  13.287  0.0925 -0.0810 -0.0564
19516W        W35325  11.523  15.764   0.790  0.2697  0.0071 -0.2401
19517W        W35326   5.370  15.798   2.571  0.1506 -0.0586  0.1180
19518W        W35327  13.911   2.144  13.760  0.0369 -0.0891  0.4085
19519W        W35328  13.488  12.077   1.906 -0.1843  0.1141  0.1888
19520W        W35329   8.081  14.088   5.348 -0.4507  0.1116  0.2693
19521W        W35330   5.833   7.664  13.267  0.3891 -0.1328 -0.2254
19522W        W35331   6.698  13.093   1.611  0.1117  0.0842 -0.1016
19523W        W35332   0.354   2.582  12.741  0.1688 -0.1184  0.1239
19524W        W35333   1.653   5.344   1.419  0.0740  0.4326 -0.2247
19525W        W35334  16.619  13.132  12.067  0.1876 -0.4079 -0.1963
19526W        W35335  15.732   5.891  11.811 -0.0392 -0.0463  0.2899
19527W        W35336  17.743   5.253  14.105  0.0770  0.2224 -0.1409
19528W        W35337  17.292  15.243   2.217 -0.1968  0.0586 -0.1585
19529W        W35338  19.128  12.185   0.190  0.1816  0.0602  0.1351
19530W        W35339   9.774  16.010  11.183  0.1151 -0.0065 -0.1267
19531W        W35340  10.063  14.607   0.660 -0.0202 -0.1788 -0.1240
19532W        W35341   2.496   9.318  14.205 -0.0792  0.3124  0.0736
19533W        W35342  15.400  17.804   4.558 -0.1086 -0.1801  0.0936
19534W        W35343   2.148   6.117   0.461 -0.3206 -0.0227  0.2365
19535W        W35344   2.939   8.859   3.755 -0.0144  0.1505  0.0170
19536W        W35345  16.598  18.906  15.179  0.3211  0.0274  0.0916
19537W        W35346   5.357  16.097   4.018  0.1459 -0.2067 -0.1255
19538W        W35347   5.519   8.939  10.388  0.0313  0.0750  0.0924
19539W        W35348  13.601   4.976   0.563 -0.1328  0.1918 -0.0673
19540W        W35349  10.350   4.406  13.490 -0.2529 -0.1202 -0.2983
19541W        W35350  15.097   5.021  11.935  0.1144  0.1628 -0.1487
19542W        W35351   8.460   0.149  12.631  0.0074  0.0370 -0.4400
19543W        W35352   9.012  16.388  11.369  0.3327  0.1581  0.2522
19544W        W35353   0.262   0.019   1.277 -0.0882 -0.2344  0.0906
19545W        W35354   6.661   7.593   4.054 -0.0644  0.1323  0.3735
19546W        W35355  18.441   0.457   1.096 -0.0020  0.4909 -0.1623
19547W        W35356  18.905   5.349   0.382  0.0394  0.0637 -0.0096
19548W        W35357  10.004   9.468   2.246 -0.0773  0.2692  0.0391
19549W        W35358   0.088   0.679  14.141 -0.1108  0.0568  0.3299
19550W        W35359   8.874   6.706  11.005  0.2755 -0.2182 -0.1310
19551W        W35360   9.719   8.469   1.985 -0.0394 -0.2009 -0.0351
19552W        W35361  10.079   0.771  14.538  0.1231  0.1451  0.0232
19553W        W35362   5.413   8.608   1.288  0.0666  0.2168  0.0062
19554W        W35363   5.280   2.610  13.440  0.0228  0.0087 -0.0812
19555W        W35364  18.809  11.803  10.689 -0.2493 -0.3399 -0.3361
19556W        W35365  14.183   1.605   1.325 -0.1346  0.1821 -0.3532
19557W        W35366   0.725   7.087   3.603 -0.0342 -0.1072 -0.1795
19558W        W35367   5.916  10.499   1.123 -0.0104 -0.2830  0.1795
19559W        W35368  12.977  15.572   0.575  0.0774 -0.6383 -0.2670
19560W        W35369  11.172   7.333   1.764  0.0543 -0.1039 -0.0940
19561W        W35370   6.365   0.477  11.749  0.0350  0.3104  0.2415
19562W        W35371   4.930   6.435   4.247  0.2074  0.1792  0.0109
19563W        W35372   6.824   2.221   2.967  0.1951 -0.0058  0.1714
19564W        W35373   6.487   6.597  12.531 -0.2927 -0.1465 -0.0237
19565W        W35374  15.901  14.741   1.082  0.0096 -0.1266 -0.0319
19566W        W35375  17.469   7.913   3.063 -0.0637 -0.2829 -0.3693
19567W        W35376  12.547  11.239   2.595 -0.3517 -0.1255 -0.1196
19568W        W35377   9.539   7.291   3.525  0.0285 -0.1380  0.0468
19569W        W35378  12.871   5.334   4.711  0.3254 -0.0332 -0.0858
19570W        W35379   8.244  12.022  11.986  0.0054  0.0692  0.0131
19571W        W35380  14.373   7.380   3.607  0.2221  0.2942 -0.1037
19572W        W35381   6.165   8.021  12.544  0.4677  0.1086 -0.2446
19573W        W35382   8.964   8.618  13.541  0.2990  0.3557 -0.3649
19574W        W35383  18.413  10.399   1.798 -0.1883  0.5317  0.2491
19575W        W35384   2.172   5.838  10.310 -0.0858 -0.1700  0.1438
19576W        W35385   4.410   7.531   3.894  0.0752 -0.0488 -0.2713
19577W        W35386  10.737   7.702  15.018  0.3144 -0.0560 -0.0076
19578W        W35387   9.340   6.201  12.442  0.0047 -0.0517 -0.2152
19579W        W35388  16.017  11.399   3.755 -0.0191 -0.0763 -0.1142
19580W        W35389  11.061   9.024   4.409  0.3223  0.2177  0.1167
19581W        W35390  12.700  18.429  11.271  0.0746 -0.1129  0.0664
19582W        W35391   0.220   3.011  12.915 -0.0546  0.0988 -0.1949
19583W        W35392  11.318  16.428  11.502  0.0975  0.0314  0.0104
19584W        W35393   2.457  14.147   1.968 -0.0782  0.0050 -0.0273
19585W        W35394  17.347   7.121  13.763 -0.1870 -0.0724  0.2813
19586W        W35395   6.060   2.206  11.202  0.1579 -0.2497 -0.0585
19587W        W35396   4.417  16.360   4.030  0.1159  0.1818 -0.1290
19588W        W35397  19.114  18.822   1.015  0.0100 -0.0231  0.0428
19589W        W35398   2.691  16.205   0.555 -0.3303  0.1492  0.0217
19590W        W35399  14.134   4.760   1.982 -0.2556 -0.0379  0.0570
19591W        W35400  16.072   2.444   3.992 -0.1880 -0.1520 -0.1283
19592W        W35401  12.965   4.593  11.217 -0.3841  0.2621  0.3429
19593W        W35402   0.193   8.354   0.882  0.1902 -0.1857  0.0430
19594W        W35403   7.866   4.944  12.502  0.1029  0.4634 -0.1250
19595W        W35404   3.071   1.668  12.972  0.3073  0.0442  0.1090
19596W        W35405   2.998   0.080  14.293 -0.1205 -0.0949  0.2262
19597W        W35406  14.178  14.702   0.087 -0.1835 -0.0415 -0.0023
19598W        W35407   8.789  18.886  10.983 -0.1649 -0.1595  0.1317
19599W        W35408   5.067   9.106   2.506  0.1357  0.0024  0.0165
19600W        W35409   4.573  18.498  13.034  0.0956  0.0647 -0.0337
19601W        W35410   1.257  15.640  11.225 -0.0566 -0.1979  0.1972
19602W        W35411   7.389  13.663  14.757  0.0067 -0.0906 -0.0461
19603W        W35412   4.154   6.581  14.364  0.1909 -0.3957  0.0716
19604W        W35413  13.184  14.622   2.881  0.1885 -0.3052  0.2508
19605W        W35414  14.890   9.780   5.772 -0.0275  0.1516 -0.1256
19606W        W35415  17.235   0.851   3.481 -0.1273  0.2376 -0.0638
19607W        W35416   6.381  13.905   4.557  0.3794  0.1591  0.1076
19608W        W35417  13.995  17.408  10.789  0.2133 -0.0620  0.3134
19609W        W35418   9.514  16.217  13.518 -0.1383 -0.1348 -0.0598
19610W        W35419   5.578  14.704  11.123 -0.2922  0.1113 -0.1295
19611W        W35420   6.317   3.569  14.721 -0.0736  0.0295 -0.0569
19612W        W35421  17.546  14.144  10.845 -0.3603  0.1115 -0.2349
19613W        W35422  18.677   1.354  12.911  0.1549  0.1797 -0.0728
19614W        W35423   3.493   4.120   3.129  0.1888 -0.0548  0.0292
19615W        W35424   0.327  15.153  14.736  0.1576  0.1518  0.0728
19616W        W35425   5.248  17.748   9.414 -0.0969  0.1468 -0.0999
19617W        W35426  18.322   3.339  14.190 -0.2092 -0.2052  0.0164
19618W        W35427   0.395   0.916  11.501 -0.0724 -0.0289 -0.1417
19619W        W35428  11.261  10.925   4.213 -0.3416 -0.1586 -0.0442
19620W        W35429  14.654  15.946  13.088 -0.1103 -0.0508 -0.0452
19621W        W35430   1.800   6.761  15.048 -0.1276  0.1403 -0.2361
19622W        W35431   2.924   0.909  10.724 -0.4050 -0.0741  0.1876
19623W        W35432  15.077   4.586   2.843  0.4981 -0.0592  0.1122
19624W        W35433   5.575   6.773  12.944 -0.1990  0.0803 -0.0377
19625W        W35434  18.399   2.713   1.431  0.0499  0.1477  0.1058
19626W        W35435   3.666   5.465   1.540  0.2424 -0.2702 -0.0040
19627W        W35436  15.287   0.442  11.123 -0.2601 -0.0381  0.2355
19628W        W35437  12.018  18.101  11.442  0.0571  0.0472 -0.0223
19629W        W35438   8.881   3.332  12.216  0.1296  0.1876 -0.0408
19630W        W35439   2.355   1.896  13.690 -0.3713  0.2505  0.1847
19631W        W35440   9.187  17.638   0.332 -0.0378  0.2429  0.0881
19632W        W35441   9.998  16.023  15.135  0.1467 -0.1301 -0.2784
19633W        W35442  17.990   2.618  13.480  0.0584  0.1778 -0.0898
19634W        W35443   0.106   5.789   4.161 -0.0355 -0.2131  0.2279
19635W        W35444  10.341  13.873   5.158  0.1682  0.1185  0.1717
19636W        W35445  15.249   5.497   0.383 -0.1824  0.3043  0.0180
19637W        W35446  11.374  16.104  14.591 -0.0328  0.4398 -0.2892
19638W        W35447  16.089   8.892  11.095  0.2514 -0.2210  0.1442
19639W        W35448  10.272   9.420  12.598 -0.0374  0.2829  0.1189
19640W        W35449   5.198  16.137  14.332  0.0475 -0.0290  0.2716
19641W        W35450  14.942   4.765  15.065  0.1372 -0.0249 -0.4242
19642W        W35451   0.872   3.280   4.122  0.0389  0.2565 -0.2295
19643W        W35452   5.845  13.467   2.694 -0.3824 -0.1298  0.0781
19644W        W35453   8.104  16.685  10.386 -0.1317 -0.0668 -0.4454
19645W        W35454   0.641  14.494   1.935  0.3566 -0.5028  0.2588
19646W        W35455  10.656   9.278   1.458  0.1728 -0.1295  0.2607
19647W        W35456   4.513   4.767  10.617  0.1824  0.1111  0.1548
19648W        W35457  14.127  15.535   9.850  0.4470 -0.0313  0.1945
19649W        W35458   3.650   3.454   2.255 -0.1041 -0.2199 -0.1715
19650W        W35459   6.397   3.740  14.204  0.1662 -0.2053 -0.0716
19651W        W35460  15.862  12.282  12.643  0.0830 -0.0253 -0.2096
19652W        W35461   5.835   1.221  10.983  0.1796  0.0836  0.0530
19653W        W35462   6.710   1.631   2.781 -0.0216  0.1774 -0.2593
19654W        W35463   3.525  10.152   1.564  0.1310  0.0414  0.0371
19655W        W35464  16.728   4.622   0.326  0.3858  0.1266  0.1202
19656W        W35465   0.663  12.620  11.934  0.1257 -0.0396 -0.3773
19657W        W35466   3.267  16.076  15.098  0.0474 -0.1759  0.1873
19658W        W35467   3.952   4.351   4.012  0.1735 -0.3272  0.0370
19659W        W35468   5.095   0.920   0.251  0.0624  0.1440 -0.0966
19660W        W35469   5.440   8.891   0.845 -0.3137  0.0004 -0.3097
19661W        W35470   1.513  11.755   2.790 -0.1514  0.2702  0.1714
19662W        W35471  18.628   9.783  12.771  0.1801  0.0205 -0.1007
19663W        W35472  12.113  17.639  11.790 -0.3558  0.0759 -0.0537
19664W        W35473  17.408   0.277  13.690  0.1469  0.3436  0.1512
19665W        W35474  15.268  17.686  12.728  0.3409  0.2239  0.2063
19666W        W35475  16.664  11.281   5.217 -0.2711  0.0643 -0.2576
19667W        W35476   8.820   5.847  14.834  0.0104  0.0602 -0.0205
19668W        W35477   5.660   7.830  11.857  0.1424  0.0005  0.0823
19669W        W35478  14.275   8.698   1.808  0.2989 -0.0919  0.0875
19670W        W35479   6.202   9.099  14.128  0.4330 -0.2347 -0.0293
19671W        W35480  15.004  11.012   6.280  0.3445  0.0381 -0.2726
19672W        W35481   2.404   7.790   0.435 -0.0162  0.2994  0.2944
19673W        W35482   5.306  11.482   3.123 -0.3182  0.0026  0.1165
19674W        W35483   4.603  16.607   2.878  0.0172  0.0395  0.2757
19675W        W35484  10.713   7.217   1.893  0.0782  0.3868  0.2456
19676W        W35485   5.569   3.090   0.342 -0.0024 -0.2242  0.1636
19677W        W35486   0.846   1.355   2.900  0.0637 -0.0769  0.4108
19678W        W35487  10.576  18.627   0.154 -0.0904  0.1271 -0.1341
19679W        W35488  16.095   0.854  10.993  0.2237  0.1366 -0.1460
19680W        W35489  18.917   4.190  11.649 -0.1770 -0.1024  0.4654
19681W        W35490   5.137   8.298   2.200  0.0961 -0.0868  0.1319
19682W        W35491   1.787   2.244  13.609 -0.1795 -0.3042 -0.0118
19683W        W35492  11.111   2.284   4.778 -0.3309  0.1315 -0.0865
19684W        W35493  15.977  16.747  14.042 -0.3341  0.0391  0.0223
19685W        W35494   5.875   4.747   0.027  0.0784  0.0026  0.4761
19686W        W35495  16.635  12.283  13.026  0.2689  0.0332  0.0134
19687W        W35496   4.770  17.292   4.061 -0.0406 -0.1181 -0.1398
19688W        W35497  15.192  18.365  12.581  0.1040  0.0004 -0.0103
19689W        W35498  17.252  13.337  14.893  0.4100  0.0436  0.1604
19690W        W35499  12.298  14.359   0.501  0.0325  0.3185  0.1370
19691W        W35500  15.533   0.207  11.786 -0.4914  0.2044  0.1854
19692W        W35501   4.619   7.674  13.613 -0.1171 -0.4592  0.2004
19693W        W35502   2.540  13.914   2.983 -0.2324 -0.1699 -0.0716
19694W        W35503  14.037   7.060  10.947 -0.1722 -0.0442  0.1056
19695W        W35504   0.740   5.152   1.167 -0.2232 -0.1657 -0.3177
19696W        W35505  13.356   5.051  12.868  0.0436 -0.1670 -0.1606
19697W        W35506  16.080  14.795   3.689 -0.2039  0.2371  0.1710
19698W        W35507   1.323  15.169   0.971  0.3863  0.0104  0.1397
19699W        W35508   7.197  16.326   1.023  0.1572  0.1523 -0.1887
19700W        W35509  14.764   9.314   4.142  0.2842 -0.0597  0.0500
19701W        W35510   4.937   8.485  12.908  0.1576 -0.0755  0.0157
19702W        W35511   3.618  14.611   1.186 -0.3288  0.0230  0.2072
19703W        W35512   1.728   6.907   2.396 -0.0735  0.0475 -0.3391
19704W        W35513  16.534   3.015   2.160  0.2293  0.0321 -0.1366
19705W        W35514   3.135   0.477  11.530 -0.2117 -0.0819  0.0436
19706W        W35515   8.845   7.070   4.618  0.0968 -0.0037 -0.1875
19707W        W35516   1.618   0.699   4.935 -0.7354 -0.0090 -0.3048
19708W        W35517  16.228   2.120   2.070  0.2187  0.0551  0.0586
19709W        W35518  14.019   8.852  10.809  0.0989 -0.1215  0.2719
19710W        W35519   8.990  10.444  13.728 -0.0820 -0.0852 -0.0473
19711W        W35520   8.897  11.222   0.605 -0.2588  0.0376 -0.1848
19712W        W35521  18.266   9.614  14.258 -0.0004  0.2978  0.1936
19713W        W35522   5.725   5.440   4.323  0.0191 -0.4632 -0.2518
19714W        W35523  10.916   2.367  15.128 -0.3473 -0.1514  0.2199
19715W        W35524   3.210   2.419  10.404 -0.0185  0.0056  0.2193
19716W        W35525   7.827  10.440   1.157  0.1094 -0.0620  0.2173
19717W        W35526   7.131   0.303  12.881  0.2544 -0.2726  0.0663
19718W        W35527   0.302  11.785  14.706 -0.3992 -0.3531  0.1306
19719W        W35528   9.492   7.723   5.776  0.0391  0.0364  0.3007
19720W        W35529  13.618  13.222  11.885 -0.0516  0.1123 -0.4024
19721W        W35530  14.598  18.588   0.291  0.1254  0.0258  0.1469
19722W        W35531   5.981   1.007   1.467 -0.1182  0.3592 -0.5198
19723W        W35532  11.470  12.370  14.158  0.0221  0.2500 -0.1336
19724W        W35533  13.039  12.163   3.934 -0.1579 -0.1122  0.0491
19725W        W35534   9.612   6.105  14.931 -0.1609  0.0407  0.2570
19726W        W35535   8.754   0.271   1.394 -0.0264 -0.0838 -0.2559
19727W        W35536   2.112  19.031   2.851 -0.0985 -0.3485 -0.1086
19728W        W35537  12.779  16.458  11.563 -0.1947  0.1371 -0.1763
19729W        W35538   9.251   3.223  11.866  0.0637  0.0542 -0.0649
19730W        W35539  12.899   0.683   3.682 -0.1186 -0.3663  0.1084
19731W        W35540   3.902  11.036   2.665  0.0437  0.1025 -0.0084
19732W        W35541   7.797  17.598   4.209  0.3469  0.3232 -0.0304
19733W        W35542  17.637  16.288  13.994  0.6289  0.2469  0.0681
19734W        W35543  17.932   4.097   2.806  0.4151  0.1012 -0.1055
19735W        W35544  15.767  16.450  13.692 -0.0979  0.0575  0.1383
19736W        W35545  17.240   8.214   1.445  0.2700 -0.1885 -0.0663
19737W        W35546  13.502  13.703  14.850  0.2269 -0.1447  0.1313
19738W        W35547  11.260  16.837  11.175 -0.1549  0.0947 -0.0731
19739W        W35548   6.135   7.303   4.842  0.3788 -0.1585 -0.1020
19740W        W35549  17.452   1.482   2.206  0.1988  0.3830  0.2986
19741W        W35550   4.255   2.848   3.262  0.1807 -0.0143  0.0035
19742W        W35551  15.369   3.620   0.339 -0.4743 -0.1243 -0.4616
19743W        W35552   3.317   7.831   0.625 -0.3802 -0.0573  0.0873
19744W        W35553  18.978   6.510  13.459  0.2612  0.0850  0.1749
19745W        W35554   9.031  15.353   0.885  0.0054  0.0386  0.1959
19746W        W35555   7.045   7.101  13.924  0.0731  0.4010  0.1057
19747W        W35556   3.006   2.460   2.806 -0.1314 -0.1810 -0.1138
19748W        W35557   3.251  14.628  11.580  0.0711 -0.2002  0.0309
19749W        W35558  16.146  17.768   5.214 -0.0723 -0.2589 -0.1929
19750W        W35559   5.247  19.087   3.231 -0.1178 -0.1115 -0.1033
19751W        W35560  18.862   8.846   4.698  0.3269  0.1790 -0.4522
19752W        W35561   8.874  15.135   3.975  0.1707 -0.2641 -0.1659
19753W        W35562   6.227  11.428   1.691 -0.1162 -0.0620 -0.0722
19754W        W35563   2.817   5.593   1.345  0.0646 -0.1748 -0.0957
19755W        W35564  17.791   8.353   0.790 -0.1036  0.2377  0.3100
19756W        W35565   9.522   4.412   3.480  0.0401  0.0533  0.0563
19757W        W35566   0.446   0.664  11.922  0.0405 -0.2470  0.1494
19758W        W35567   2.466   2.480   4.661 -0.0672  0.2921 -0.0806
19759W        W35568  15.904   0.681   2.277  0.1192  0.1526 -0.3564
19760W        W35569   0.601  18.520   3.982  0.2705  0.0555  0.0665
19761W        W35570  17.377  14.894  12.710  0.0511  0.0494 -0.3791
19762W        W35571  14.138  14.320   9.919  0.2645  0.1389  0.2041
19763W        W35572  14.123  13.890   1.967  0.1787  0.1495 -0.1542
19764W        W35573   7.175  14.052  12.645 -0.1187 -0.0443 -0.0867
19765W        W35574   0.020  14.914   2.614  0.0341  0.6525  0.1236
19766W        W35575   5.048   6.617   3.797  0.4492 -0.5800  0.0446
19767W        W35576   2.373  16.470   1.351 -0.1742 -0.0379  0.0111
19768W        W35577   6.425   1.845  12.010  0.1336  0.0329  0.1183
19769W        W35578  18.691  15.739   4.505  0.0576 -0.1295 -0.1037
19770W        W35579   6.029   4.439   0.512  0.1559 -0.3729 -0.0350
19771W        W35580   8.804  17.164  11.311 -0.0850  0.0835 -0.5219
19772W        W35581   4.318   5.911  15.260  0.1361  0.1338  0.1324
19773W        W35582   9.683   3.070  11.430 -0.2141 -0.0360  0.0966
19774W        W35583   1.021   5.691  12.254 -0.2610 -0.2142  0.0189
19775W        W35584   5.739  17.665  11.716  0.0472  0.1153 -0.1458
19776W        W35585  16.471   2.172   3.919  0.0975  0.0228 -0.0752
19777W        W35586   5.709  12.706   0.441 -0.2370  0.3943 -0.0511
19778W        W35587  12.882   9.056   4.333 -0.0897 -0.0782  0.1379
19779W        W35588   2.869   7.972   0.230  0.2592 -0.2950 -0.0157
19780W        W35589   9.389  12.996   1.424 -0.0234  0.1270 -0.0450
19781W        W35590   2.579  17.314  11.699  0.4399  0.2533 -0.1559
19782W        W35591   1.944   2.361  14.899 -0.0350 -0.2210 -0.0365
19783W        W35592  12.258  17.892  14.023 -0.1699  0.1446  0.1728
19784W        W35593  16.996   6.603  11.769  0.0642 -0.1936  0.1419
19785W        W35594  13.472  11.581   2.259 -0.0418  0.1170  0.1215
19786W        W35595  15.770   9.948  15.130 -0.0317 -0.0327 -0.1989
19787W        W35596   6.692   9.172  14.885  0.0865  0.0931  0.0405
19788W        W35597   5.158   8.645   1.753  0.0751 -0.1950  0.1942
19789W        W35598  11.884   1.198  10.482  0.2655 -0.0801  0.1487
19790W        W35599   0.329   9.801   3.376  0.0630 -0.1247  0.3404
19791W        W35600   3.957  15.022   2.135 -0.6122 -0.1911 -0.0182
19792W        W35601  12.589  10.949  12.885 -0.4498 -0.1767 -0.2039
19793W        W35602  17.282  15.605  11.510 -0.0358  0.0429 -0.1141
19794W        W35603  15.850  10.288  12.855 -0.0571  0.1768 -0.2137
19795W        W35604   7.664  11.385  13.797 -0.0636  0.1579 -0.2074
19796W        W35605  11.027   3.983  13.483  0.2854  0.3939 -0.0472
19797W        W35606  17.956  11.331   1.398  0.1371 -0.1596 -0.0054
19798W        W35607   5.570   3.587   4.441  0.1907 -0.2652  0.2351
19799W        W35608   5.122   7.102   4.938  0.2825 -0.1816 -0.0588
19800W        W35609  16.200  17.997   4.274  0.0833  0.3367 -0.2747
19801W        W35610   0.456  17.332   0.068 -0.1470 -0.2841  0.0546
19802W        W35611   6.354  11.955  10.234 -0.1500  0.0611 -0.2847
19803W        W35612  16.303   9.755   5.006  0.3274  0.2268  0.1014
19804W        W35613  10.857  18.817   4.435  0.1608 -0.1219 -0.2916
19805W        W35614   0.832  17.309  13.191  0.0716 -0.2228 -0.2055
19806W        W35615  18.602   3.440  13.310  0.1125  0.2543 -0.2771
19807W        W35616   1.986  15.790   0.827 -0.1025 -0.0844 -0.0415
19808W        W35617   3.803  11.421   3.157 -0.2962 -0.0524 -0.0612
19809W        W35618   1.442   9.675  14.590 -0.3254  0.0144 -0.1932
19810W        W35619  12.923  17.029  14.025  0.3855  0.2768  0.1278
19811W        W35620   6.944  11.229  10.465  0.0093 -0.3456 -0.1127
19812W        W35621   9.179   7.293   4.338  0.3529 -0.0496 -0.1178
19813W        W35622  16.526   4.988   0.667 -0.1043 -0.0940 -0.2629
19814W        W35623  15.484   0.876  14.466  0.3855 -0.3119  0.3534
19815W        W35624  16.237   6.871   3.620  0.2587 -0.1499 -0.1058
19816W        W35625   5.674  11.850  12.559 -0.1119  0.2057  0.4668
19817W        W35626   0.698   9.220   5.782  0.0887  0.1844  0.4380
19818W        W35627   6.139  14.543  11.885 -0.0343  0.0452 -0.0746
19819W        W35628   5.713   8.139  15.011  0.2403 -0.3002 -0.0552
19820W        W35629  10.168  17.328   1.269 -0.1255  0.1247 -0.0724
19821W        W35630   5.915  12.621   2.213  0.0264  0.2717 -0.2424
19822W        W35631  11.967  11.159   2.731 -0.1255 -0.2152  0.0464
19823W        W35632  14.744  17.469   0.860  0.3836 -0.0259 -0.1772
19824W        W35633   5.182  10.209  13.534  0.1763 -0.0794 -0.1436
19825W        W35634   8.104  14.234   9.632  0.2059 -0.0447  0.0509
19826W        W35635   0.692  11.462   3.462 -0.2931  0.0678  0.4563
19827W        W35636  18.792  11.930   5.862  0.3413  0.3571 -0.0941
19828W        W35637  18.235  11.157  11.907 -0.0480 -0.2634 -0.1074
19829W        W35638  15.268   1.491   1.980  0.1057  0.0929 -0.0951
19830W        W35639   8.585   7.041   4.182 -0.2564 -0.3951 -0.0892
19831W        W35640  17.607   6.453  12.962  0.0271  0.1488 -0.2511
19832W        W35641  17.483   1.685  14.777 -0.1073  0.1971  0.0207
19833W        W35642   4.065   9.833   1.480 -0.2792  0.0875  0.0563
19834W        W35643  10.234  11.829  10.557 -0.2390  0.0649 -0.3399
19835W        W35644  16.103   3.137  13.678  0.3412  0.0659  0.0516
19836W        W35645  12.896   0.271   3.307 -0.0452  0.2222  0.1192
19837W        W35646   9.999  12.948  15.073  0.0062 -0.1308 -0.0374
19838W        W35647   5.033  11.090   0.093 -0.0167  0.2217  0.0394
19839W        W35648   9.515  10.446  14.598  0.2018 -0.2778  0.1165
19840W        W35649   1.419  10.646  11.574 -0.4786 -0.0737  0.0270
19841W        W35650   8.740   2.878   0.363 -0.1251 -0.2371  0.4121
19842W        W35651   6.995   0.848  12.704 -0.2966 -0.0538 -0.1757
19843W        W35652  16.073   2.102   0.364 -0.0847 -0.0129  0.0042
19844W        W35653  13.663  13.891  11.120 -0.0284 -0.0674 -0.1787
19845W        W35654  10.932   6.106   1.100 -0.1431 -0.3174 -0.0058
19846W        W35655   3.381  13.696  14.386 -0.0092  0.1122 -0.0051
19847W        W35656  18.584   3.329   0.115 -0.0660  0.1566  0.0059
19848W        W35657   7.079  13.373  15.069 -0.3192  0.1092 -0.3477
19849W        W35658  14.255  12.582   0.540 -0.0827 -0.0427  0.1544
19850W        W35659   1.770   3.500  11.543  0.1071 -0.1179 -0.1375
19851W        W35660   8.131  12.016   2.636  0.1797 -0.0029 -0.2076
19852W        W35661   1.225   7.451   4.498 -0.3405  0.1016  0.2770
19853W        W35662  16.881  17.836  14.356 -0.2780 -0.2590 -0.0916
19854W        W35663   9.528  15.890   3.779 -0.2176 -0.1900  0.0225
19855W        W35664   4.637   6.034   4.206  0.0748  0.2235 -0.0663
19856W        W35665  15.039   5.249   2.716 -0.1672  0.1806  0.0997
19857W        W35666  14.808  17.680  14.522 -0.0173 -0.0150  0.3128
19858W        W35667   3.952  12.123   4.277 -0.0688 -0.1186  0.4130
19859W        W35668  15.539   0.823  10.816 -0.0493 -0.2019 -0.3264
19860W        W35669  14.357  12.609   3.329 -0.0184 -0.1932  0.0111
19861W        W35670  14.360   0.220   0.652 -0.3355 -0.2831 -0.2475
19862W        W35671   6.905   8.462  11.820 -0.0323  0.0576  0.2732
19863W        W35672  18.223   6.687  13.010  0.0034 -0.0074 -0.1519
19864W        W35673   0.086  19.042   0.126 -0.0058  0.0526 -0.1256
19865W        W35674  12.136  16.995   4.715  0.3852  0.3066  0.0735
19866W        W35675   3.643  15.678   1.078  0.0641  0.1849  0.0493
19867W        W35676   2.797   9.634  15.075  0.2438  0.0843 -0.0186
19868W        W35677   6.978   0.529   4.431  0.0533  0.3121  0.0363
19869W        W35678  11.430  16.302   0.804 -0.1668  0.1686  0.2390
19870W        W35679  17.836  13.457   2.485 -0.1995 -0.1120 -0.3819
19871W        W35680  11.715  10.127  11.905 -0.0179  0.1340  0.3953
19872W        W35681   0.095   4.958   3.180 -0.0869 -0.1280  0.1890
19873W        W35682  16.030   9.049   2.380 -0.3881 -0.0421  0.3594
19874W        W35683   9.346   2.139  14.842  0.0064  0.2810  0.3412
19875W        W35684  15.603   0.249   1.401 -0.3009 -0.3321 -0.1986
19876W        W35685   2.185  12.444   0.453 -0.0937  0.4476 -0.0501
19877W        W35686  11.771  18.249  14.078 -0.1934  0.0442 -0.4240
19878W        W35687   7.437  14.468   1.957  0.2770  0.3836  0.0377
19879W        W35688  11.954  11.801  12.068  0.2587  0.0935  0.3053
19880W        W35689  11.657  15.820   5.125 -0.0667  0.2915 -0.2627
19881W        W35690   2.286  17.202  13.458  0.0301 -0.0465 -0.0477
19882W        W35691   1.175  14.833   5.533  0.0935 -0.0319  0.0736
19883W        W35692   2.819   4.986   0.609 -0.1928 -0.1411  0.1061
19884W        W35693  17.933   3.197  15.240 -0.1693  0.0456  0.0737
19885W        W35694  18.345   9.100   3.993 -0.1858  0.3553  0.1329
19886W        W35695   5.770   7.014  13.794  0.2423  0.1246  0.2179
19887W        W35696   7.595  15.628  13.016  0.1222  0.2837 -0.1632
19888W        W35697   2.623   3.167   1.993 -0.0119 -0.1183 -0.1750
19889W        W35698   4.003  10.428   1.506  0.1451  0.0175 -0.0900
19890W        W35699  10.142  16.051   0.386 -0.2102  0.1933  0.0094
19891W        W35700   8.925  14.623   3.296  0.0206  0.2602 -0.3370
19892W        W35701  14.711   1.678   2.787  0.1533 -0.1295 -0.1402
19893W        W35702   1.940  11.234   1.281 -0.1023 -0.0890  0.2699
19894W        W35703   3.753   8.042   2.125  0.3873  0.1266  0.3034
19895W        W35704   3.912  13.403   3.732  0.1867  0.1156  0.0208
19896W        W35705  11.703   6.225  11.250  0.1086  0.0146 -0.2208
19897W        W35706   3.901   0.367  11.672 -0.3884  0.1069 -0.1143
19898W        W35707   9.170  10.599  12.520 -0.3139 -0.0854 -0.2908
19899W        W35708   2.483  10.321  15.030  0.1137 -0.0217 -0.6476
19900W        W35709  12.155  11.847  12.513  0.0541  0.1789 -0.4215
19901W        W35710   3.916   2.624   4.111 -0.0266  0.1644  0.0555
19902W        W35711   1.012   6.071   3.808 -0.2014 -0.0297  0.2001
19903W        W35712   7.570   4.957  12.126 -0.1970 -0.4755  0.1172
19904W        W35713   9.531  18.503  14.145  0.0620 -0.2659  0.1120
19905W        W35714  18.655  10.561   2.236  0.0086 -0.2910  0.3284
19906W        W35715   6.944  15.686  12.179  0.1173 -0.0111  0.0913
19907W        W35716  16.081   3.495  10.607  0.1316  0.1146  0.1469
19908W        W35717   3.799  14.481   4.378  0.2512  0.1976  0.6379
19909W        W35718   9.987   7.757   1.186  0.0948 -0.3620 -0.1356
19910W        W35719  13.785  18.482  14.330 -0.0012  0.0610  0.0162
19911W        W35720  16.826  15.968  12.919  0.2209  0.1599 -0.1275
19912W        W35721  16.299  12.954   5.077 -0.0036 -0.0732 -0.0466
19913W        W35722   7.280  16.204  14.823  0.0781  0.0096  0.2059
19914W        W35723  14.649   2.739   2.753  0.1609  0.0711 -0.1661
19915W        W35724   2.663  19.119  11.928  0.1748  0.1155  0.0280
19916W        W35725   5.672  14.019  13.347 -0.1448  0.2511  0.0917
19917W        W35726  18.624   5.467  13.284 -0.1470 -0.0695 -0.4284
19918W        W35727  17.940  14.893  12.073  0.1278 -0.1908  0.2590
19919W        W35728  15.196  18.232   0.358 -0.0408  0.1538 -0.0068
19920W        W35729   9.417  18.933  13.931  0.1130 -0.1019  0.0752
19921W        W35730   9.189   7.052  11.292  0.0349 -0.0017  0.1273
19922W        W35731  10.734   0.302   1.269 -0.4700  0.2588  0.0646
19923W        W35732   2.265   6.661  11.820  0.0932  0.0429 -0.1230
19924W        W35733   7.811  10.659  15.013 -0.4204 -0.2908  0.1855
19925W        W35734   2.709  17.353  14.465  0.0507  0.2901  0.0629
19926W        W35735   6.264   5.658   3.388  0.1267 -0.3006  0.1127
19927W        W35736   6.050   6.332   1.482 -0.3969 -0.0604  0.1743
19928W        W35737   8.448   3.650  11.975  0.3458 -0.1047 -0.2723
19929W        W35738   7.195   8.104  11.101 -0.1097  0.0227  0.3517
19930W        W35739  11.148   3.959   1.355 -0.2440 -0.0770 -0.1180
19931W        W35740  13.689  18.443  12.206  0.3119  0.0007 -0.1596
19932W        W35741  17.213   3.646   2.274 -0.1234 -0.0367  0.0696
19933W        W35742   4.337  17.499  14.711  0.1286  0.2173 -0.0347
19934W        W35743  12.184   1.447  13.405  0.0580 -0.0940  0.0916
19935W        W35744   6.323   5.388  14.593  0.3097 -0.1490  0.2430
19936W        W35745   3.257  16.452  11.356 -0.2536 -0.3146 -0.0349
19937W        W35746  14.325  14.223   4.850  0.0176 -0.2460  0.1562
19938W        W35747   7.971   3.930  11.162  0.1112  0.3299 -0.0295
19939W        W35748  17.938   3.834  14.677 -0.3944  0.0578 -0.2479
19940W        W35749   1.760  15.384   2.269  0.3315 -0.2540  0.1410
19941W        W35750  12.729   2.766   5.466  0.1882 -0.2856  0.1409
19942W        W35751  18.681   0.706  14.830 -0.1570 -0.0131  0.0594
19943W        W35752   6.419   4.434   3.203  0.2152  0.0963  0.0418
19944W        W35753  16.399   5.817   0.828 -0.0189  0.2135 -0.1316
19945W        W35754   9.310  11.561   1.667  0.1264  0.1782 -0.1484
19946W        W35755  10.399  12.693   1.311  0.1955  0.2162  0.2776
19947W        W35756   0.090  13.982   9.969 -0.2754 -0.1153 -0.1333
19948W        W35757   4.721   5.445  13.328 -0.3036 -0.2831  0.1867
19949W        W35758   3.161   8.592   3.226  0.0918 -0.1009  0.3859
19950W        W35759   0.295   3.695   1.709  0.0108 -0.1492 -0.0658
19951W        W35760   6.762   8.234   0.192 -0.0245 -0.0802  0.0443
19952W        W35761  17.587   1.208   1.438 -0.2976 -0.1418  0.1643
19953W        W35762  15.196  12.378  12.156 -0.1285 -0.0983 -0.1742
19954W        W35763   9.261   3.887   4.099 -0.4296 -0.1752 -0.2770
19955W        W35764   0.264   3.287   0.620  0.0082 -0.3320  0.2353
19956W        W35765   7.178  12.570   0.806  0.2531 -0.2028 -0.2215
19957W        W35766  15.742  12.596  14.409 -0.1591  0.0617 -0.1332
19958W        W35767   7.452   2.327  11.737  0.2161 -0.1028 -0.0879
19959W        W35768  13.120   4.331   5.078 -0.3112 -0.3043  0.0164
19960W        W35769   5.276   0.995  13.652  0.0057 -0.0432 -0.1180
19961W        W35770   9.743   7.255   1.488  0.0341 -0.2169 -0.1343
19962W        W35771   3.291   5.346   3.188  0.2804 -0.0904  0.1755
19963W        W35772  14.565  10.353  12.614  0.1762  0.4244  0.0642
19964W        W35773  12.521   3.292  11.777  0.3738 -0.1417  0.1487
19965W        W35774  10.804   3.237  14.566 -0.0694  0.2778  0.1561
19966W        W35775   9.543   3.082   1.362 -0.0663  0.0564 -0.2402
19967W        W35776  16.323  13.888   2.462  0.1353  0.0619 -0.3456
19968W        W35777   7.982   7.675   0.362  0.3842  0.1454 -0.1608
19969W        W35778  16.870  11.327   3.896 -0.2613  0.2250  0.0545
19970W        W35779  14.239  15.195  12.209  0.0542 -0.0711 -0.0085
19971W        W35780  13.595   7.754   9.447 -0.1100  0.2499 -0.5346
19972W        W35781   1.735   4.688  14.021  0.0194  0.1464 -0.5570
19973W        W35782   1.008   7.704  12.789  0.3010  0.4192  0.2775
19974W        W35783  12.327  17.070   0.427 -0.0316 -0.0817 -0.0078
19975W        W35784  18.243  16.065  11.883  0.2066 -0.1519 -0.0053
19976W        W35785   5.077   1.218   3.088  0.2760 -0.2084 -0.0526
19977W        W35786  11.319   9.875   1.885  0.3500 -0.1769  0.0258
19978W        W35787   4.058   6.428   3.635  0.0284  0.0770  0.3131
19979W        W35788   3.136   5.918  12.330  0.0490 -0.1466  0.2311
19980W        W35789  18.774   5.295  11.606 -0.1600  0.0223  0.0082
19981W        W35790   0.212   8.686  10.989 -0.1048 -0.1442 -0.1387
19982W        W35791  13.728  13.402  11.171  0.0513  0.0930  0.2153
19983W        W35792  16.780   7.423   1.545  0.2227  0.1301  0.2153
19984W        W35793  11.011   8.786  11.783 -0.1500  0.1677  0.2499
19985W        W35794  13.132  16.378   3.911  0.0610  0.0263 -0.1005
19986W        W35795   6.367   3.119   0.704  0.3008  0.3245  0.0568
19987W        W35796   1.527   2.673   2.720  0.0168  0.0020 -0.1040
19988W        W35797  15.567   8.809   3.740 -0.0157 -0.0307 -0.0611
19989W        W35798   0.812  18.328  13.280 -0.0060  0.3180  0.0001
19990W        W35799  12.248   0.977   1.704 -0.0777 -0.1785 -0.0661
19991W        W35800   6.198   2.958   0.144  0.0652  0.0490  0.4084
19992W        W35801   3.578   4.283   4.508 -0.1160 -0.2289 -0.1819
19993W        W35802  14.324   0.870  10.912  0.0241  0.3169  0.0682
19994W        W35803   2.573   9.456  10.465 -0.3332  0.3423  0.0050
19995W        W35804   4.073  15.094  11.392  0.1449  0.2069  0.2910
19996W        W35805   0.931  10.265   2.555 -0.0377  0.0711  0.1127
19997W        W35806  15.625  13.914   5.024  0.0130 -0.2110  0.0881
19998W        W35807   9.668   8.662   4.625 -0.2497  0.0286 -0.0424
19999W        W35808  19.064   5.765   9.993  0.0671 -0.3954 -0.0578
20000W        W35809  10.047  15.239   3.145 -0.1173  0.1924  0.1698
20001W        W35810   2.015   4.861  13.615 -0.0862 -0.0207 -0.1153
20002W        W35811   6.015  12.521  13.583  0.0701 -0.2142 -0.2515
20003W        W35812   3.493  18.792   3.382  0.3326  0.1437  0.2880
20004W        W35813  11.950  17.154   1.692 -0.0425 -0.1748 -0.4150
20005W        W35814  10.920  12.376  12.980  0.1023  0.2620  0.0844
20006W        W35815  18.630   1.567  15.209  0.0969  0.2583  0.2416
20007W        W35816  10.312   1.179   3.441  0.2546 -0.0767  0.0214
20008W        W35817   5.049   6.561  12.615  0.1936 -0.1430 -0.2673
20009W        W35818  14.069  17.920   1.914 -0.1084  0.0256 -0.1154
20010W        W35819  12.519  18.053  11.625 -0.0087  0.0417  0.1425
20011W        W35820   7.651  12.092   4.918  0.1823 -0.2595  0.1755
20012W        W35821  15.054  16.775  14.292  0.3400  0.1145  0.1327
20013W        W35822   2.806   5.080  15.187  0.1760  0.0965 -0.0366
20014W        W35823  10.576  13.063   0.973  0.1276 -0.0035  0.3559
20015W        W35824   1.001  11.317  15.245 -0.2495 -0.2973  0.0133
20016W        W35825  11.548   9.678  15.164  0.0661  0.2809  0.2137
20017W        W35826   0.640   6.697  12.512  0.0085  0.0968  0.3597
20018W        W35827   4.338  17.928  11.516  0.0086  0.2092  0.1103
20019W        W35828   5.080  11.313   1.947  0.2261 -0.1539  0.2167
20020W        W35829   7.762  18.907  10.626 -0.1789 -0.1341 -0.1587
20021W        W35830   6.582   2.887  12.645  0.1366  0.0357  0.0438
20022W        W35831   7.138  14.810  13.195 -0.1717 -0.0177 -0.3148
20023W        W35832  17.886  17.301   4.153 -0.2194 -0.2028  0.1556
20024W        W35833   2.816   9.420   3.023  0.0516 -0.0328  0.1255
20025W        W35834  18.767   0.769   2.626 -0.1672 -0.0512 -0.0004
20026W        W35835   5.893  11.885  14.757 -0.2464  0.2999  0.1915
20027W        W35836   3.215  11.863   1.401 -0.0055 -0.0128 -0.1806
20028W        W35837   9.628   8.014  11.322 -0.1719 -0.0361  0.1408
20029W        W35838   2.424   9.040  13.196 -0.1152 -0.2144 -0.3566
20030W        W35839   3.321  16.592   0.179  0.2653  0.0784 -0.1667
20031W        W35840  15.264   4.531  11.667  0.1372  0.0628 -0.3575
20032W        W35841   0.328   5.911   4.571 -0.2288  0.2417  0.1808
20033W        W35842   9.891   1.665  10.253  0.2051 -0.4312  0.1922
20034W        W35843  11.323   6.032  10.263  0.0337  0.6317 -0.1130
20035W        W35844  18.258   7.260  11.907  0.0317 -0.0343  0.0859
20036W        W35845   9.864  13.736   4.856 -0.1029 -0.0985  0.0788
20037W        W35846   5.359  11.379   4.256 -0.0896 -0.1119  0.2250
20038W        W35847  13.508   4.191  11.995 -0.1986 -0.3618  0.1649
20039W        W35848   0.273  15.087   2.220 -0.0906  0.1663  0.0093
20040W        W35849   0.062   7.091   0.164  0.0909 -0.0142  0.2976
20041W        W35850   0.834   8.158   5.499 -0.4039 -0.0343  0.0386
20042W        W35851   9.861  11.340  13.509  0.5358 -0.0592  0.3073
20043W        W35852   7.247   7.756  12.708  0.0275  0.2412 -0.2250
20044W        W35853  14.699  19.072   2.988  0.0352 -0.1193  0.1486
20045W        W35854   3.727  15.685   5.167 -0.1774  0.1127  0.1550
20046W        W35855   9.389  17.284  11.193 -0.1501 -0.0386  0.0379
20047W        W35856   2.497  18.334   3.769  0.2417 -0.2804  0.2083
20048W        W35857  15.902   0.385   4.302 -0.1457 -0.0734  0.2756
20049W        W35858   1.308  13.775   1.032 -0.1269 -0.0750 -0.0547
20050W        W35859   8.359   2.094   2.120 -0.1233 -0.0576  0.0688
20051W        W35860   9.228  10.488   2.659  0.0579  0.2100  0.2442
20052W        W35861   9.725  17.404  13.062  0.0629 -0.2457 -0.3960
20053W        W35862   2.140   3.947  12.454 -0.0018  0.1702 -0.0465
20054W        W35863  13.288  12.490   1.636 -0.0629 -0.0041 -0.1602
20055W        W35864  18.005  13.974  12.149  0.0405 -0.4584 -0.1469
20056W        W35865  10.587  14.188   3.712  0.1645 -0.1738 -0.2115
20057W        W35866   8.086   4.024  14.170 -0.0702  0.2016  0.1507
20058W        W35867  11.521  11.110  12.497  0.2628 -0.1495  0.1451
20059W        W35868   1.290   6.903   2.022  0.2110  0.1255 -0.4714
20060W        W35869  15.644   6.860  10.935  0.0737  0.1442 -0.3353
20061W        W35870   8.563  16.773   1.629  0.0393  0.1104 -0.0541
20062W        W35871  18.748  13.226   1.204  0.0578 -0.0135 -0.0238
20063W        W35872   6.813   3.842   0.812 -0.4175  0.1322 -0.0538
20064W        W35873  15.523   9.783   0.681 -0.1206 -0.1595  0.1086
20065W        W35874  11.003  10.632   0.037 -0.1045 -0.0049 -0.2810
20066W        W35875   4.908   3.447  12.036  0.0578 -0.2273 -0.1618
20067W        W35876   2.720  16.621   3.225 -0.1434  0.1427  0.3581
20068W        W35877   1.349   1.494   1.961 -0.0225  0.1459 -0.0557
20069W        W35878   5.791  11.670   5.046  0.0524 -0.1777  0.1697
20070W        W35879  13.070   8.004  15.015  0.0018 -0.3678 -0.0206
20071W        W35880   4.610  15.355  14.950  0.3832 -0.0313  0.0017
20072W        W35881  13.619  13.969  13.341  0.0215 -0.3185  0.0549
20073W        W35882  11.863  10.104   4.193 -0.2693 -0.1573 -0.4310
20074W        W35883   1.203  13.950  13.978 -0.1459  0.3463  0.2730
20075W        W35884  11.364   3.948   3.838 -0.1438 -0.1179  0.0121
20076W        W35885   6.792   5.426   3.328 -0.0456  0.1067  0.0412
20077W        W35886   9.103   1.931   2.915 -0.2393 -0.4259 -0.1630
20078W        W35887   1.138   0.707  13.279 -0.1053  0.0711  0.1137
20079W        W35888  15.895   5.630  14.945 -0.1066  0.1364 -0.0953
20080W        W35889  13.900   7.634   2.164  0.3307 -0.0004  0.1145
20081W        W35890  14.563  14.729  14.040  0.2280 -0.0843  0.0478
20082W        W35891  12.926  17.303   1.105 -0.2182  0.4746  0.2653
20083W        W35892   5.039   1.907  13.209 -0.3475  0.3965  0.1522
20084W        W35893   1.675   1.010  10.676  0.1707  0.0865  0.0731
20085W        W35894  15.377  15.304  14.279 -0.1986  0.2015  0.0327
20086W        W35895  13.277  13.981   2.899 -0.3295 -0.0861 -0.1874
20087W        W35896  11.135  15.903   2.732  0.3669  0.0452 -0.0006
20088W        W35897  10.232   2.851   1.996 -0.2364  0.1976 -0.0076
20089W        W35898  16.943   9.063   0.130 -0.0250  0.1135  0.0335
20090W        W35899  14.060   9.094  14.188  0.2043  0.5002  0.0079
20091W        W35900   2.078  11.327  14.855 -0.2443 -0.0253 -0.0518
20092W        W35901   8.402   7.467  12.068  0.2234  0.0144  0.2114
20093W        W35902  12.709  12.920  12.491  0.2318  0.1922  0.1073
20094W        W35903   6.592  14.507   0.627  0.1268  0.2498  0.1530
20095W        W35904  13.831  16.197   3.763  0.1019  0.1600  0.1006
20096W        W35905   7.927  18.320  13.355 -0.0099 -0.0019  0.0803
20097W        W35906  13.669  19.010   5.353  0.0554 -0.2375  0.0954
20098W        W35907   3.117   4.741   2.485 -0.1738  0.1302 -0.4077
20099W        W35908   6.983  12.802  14.258  0.0741 -0.0416  0.4772
20100W        W35909   7.009   1.745  13.123 -0.0223 -0.1783 -0.1763
20101W        W35910   4.685   5.975   5.111  0.0277  0.0240  0.0602
20102W        W35911  18.748   7.889  12.557 -0.2152  0.2492  0.0377
20103W        W35912  15.756  11.596   0.499 -0.1269  0.0571 -0.1719
20104W        W35913   3.539  17.503   3.557 -0.1979  0.0710 -0.0528
20105W        W35914   9.317  17.520   0.856  0.3684 -0.0461 -0.1577
20106W        W35915  17.919  15.875   2.462  0.3330 -0.2684  0.0606
20107W        W35916  14.358  12.814   2.142  0.1199 -0.1622  0.1486
20108W        W35917   5.784   7.662   4.732 -0.0151  0.0004  0.1259
20109W        W35918   6.945   6.073  11.408  0.2915  0.1126  0.0992
20110W        W35919  13.655  14.714  11.783 -0.4355  0.0117 -0.0366
20111W        W35920   8.758   0.833   0.522  0.1525 -0.1148  0.0296
20112W        W35921   2.261   7.843   3.357  0.0690  0.0882  0.1011
20113W        W35922  15.738   1.239  12.332  0.3260 -0.3901 -0.1422
20114W        W35923   2.165  16.070  11.931 -0.1716  0.1509 -0.1878
20115W        W35924  17.968   0.916  11.038  0.1668  0.3130  0.2185
20116W        W35925  14.341  10.927   2.698 -0.0701 -0.1449 -0.4108
20117W        W35926   8.829  17.692  15.205 -0.0507 -0.1701  0.1360
20118W        W35927   8.536  12.281   2.613  0.0874 -0.0995 -0.0967
20119W        W35928  17.029   6.154   5.492 -0.4024  0.1006  0.2675
20120W        W35929  13.718  18.735   1.579 -0.0458  0.0552  0.2039
20121W        W35930   3.322  12.634  12.154 -0.0289  0.3158 -0.1918
20122W        W35931  17.100   9.892   4.487 -0.1869  0.0864  0.0367
20123W        W35932   7.697  17.084   1.094  0.0375 -0.2620 -0.0631
20124W        W35933  11.624  17.770   0.352 -0.2430  0.0196  0.1733
20125W        W35934   0.442   7.617  12.645 -0.2258 -0.1259  0.1447
20126W        W35935  11.250   2.324  14.215  0.1840  0.0348  0.0819
20127W        W35936  11.679  17.528  15.168 -0.1333 -0.4918 -0.1055
20128W        W35937  16.124  10.820   0.264 -0.0350 -0.0557  0.0680
20129W        W35938  13.778  14.068   4.772  0.1397  0.0718  0.4417
20130W        W35939  11.902   7.115  13.843  0.0804 -0.0105  0.0132
20131W        W35940  15.839   5.833   3.854 -0.0627  0.0983  0.0895
20132W        W35941  13.684   7.458  14.837  0.0722  0.0112  0.2430
20133W        W35942   8.451   0.705  11.225  0.0385 -0.3977  0.0213
20134W        W35943   0.796   3.672  10.019  0.3966 -0.3016  0.1997
20135W        W35944  17.329  18.628   3.972  0.2957 -0.2223 -0.0750
20136W        W35945   7.686   3.613   1.277  0.0053 -0.1054  0.0597
20137W        W35946   0.793   8.055   2.831  0.1330 -0.1507 -0.1596
20138W        W35947   8.517   1.672  12.733 -0.1383 -0.2154 -0.3271
20139W        W35948  10.609  17.798   0.078  0.2612 -0.2903  0.3421
20140W        W35949   9.634  18.792   4.313 -0.0999  0.3864 -0.0601
20141W        W35950  13.711  10.387   4.223 -0.0365 -0.0999  0.4487
20142W        W35951   7.245  15.187   3.471 -0.0642  0.3376  0.0651
20143W        W35952   7.526   1.414  10.388  0.3063 -0.0862  0.0663
20144W        W35953  13.835  14.646  14.247  0.0016 -0.0055 -0.0153
20145W        W35954  10.264   7.018  10.425 -0.0667  0.1674  0.1849
20146W        W35955   1.136   6.100   4.542 -0.1053  0.1845 -0.1196
20147W        W35956   5.286  15.573  11.418  0.3591 -0.2689  0.2466
20148W        W35957   2.117  14.771   2.801 -0.1939  0.3773  0.2292
20149W        W35958  12.869  14.745   1.873  0.2769 -0.4162  0.0566
20150W        W35959   7.932  15.311  14.788  0.1144  0.2803  0.2005
20151W        W35960   9.284   0.191  15.234 -0.3918  0.0403  0.0787
20152W        W35961   3.792  13.409   0.385  0.0958  0.0924  0.0335
20153W        W35962  13.499   9.676   1.423 -0.0397  0.1257  0.0742
20154W        W35963  15.734   0.694   3.757 -0.4260  0.0392  0.4699
20155W        W35964   1.733  17.734   5.695  0.1927 -0.2079  0.3269
20156W        W35965   5.596   3.089   3.504  0.3078 -0.1360 -0.1504
20157W        W35966  12.369   9.055  10.724  0.0317  0.0584  0.2146
20158W        W35967  17.100   6.395  12.717 -0.1781 -0.2268  0.3418
20159W        W35968   4.380   6.343   1.463 -0.2255 -0.1601 -0.1928
20160W        W35969  15.265   9.598  12.605 -0.1128  0.3372 -0.2782
20161W        W35970   5.957   1.470  12.608  0.1033  0.3012  0.3866
20162W        W35971   9.307   1.073  10.512 -0.1620  0.1739  0.0309
20163W        W35972   5.622   4.203   3.563 -0.0163  0.0565  0.2021
20164W        W35973   1.225   2.388   0.477  0.4439  0.1842  0.0999
20165W        W35974  17.229   8.201   1.958  0.0777 -0.2791  0.3369
20166W        W35975  16.384  17.778  13.087  0.0271  0.4041 -0.1917
20167W        W35976  14.638   3.695  10.730 -0.0421  0.2141 -0.1258
20168W        W35977  18.197   3.100   0.972  0.1412 -0.2546 -0.1532
20169W        W35978  14.161   8.409   5.454  0.3586 -0.1912 -0.1201
20170W        W35979   6.823   6.993  12.543  0.3460 -0.2620 -0.2134
20171W        W35980  10.460   4.455  11.227 -0.0401  0.3132 -0.2031
20172W        W35981   4.193  16.063   2.831  0.0602  0.3023  0.1290
20173W        W35982  11.824   5.568  12.564 -0.2427 -0.1156 -0.0531
20174W        W35983   2.387  12.317  14.911  0.0583 -0.3204 -0.1391
20175W        W35984   3.410  14.155   5.249  0.2305 -0.0572 -0.1349
20176W        W35985  14.311   5.988   1.808 -0.1351 -0.0358 -0.1124
20177W        W35986  17.331  17.221  12.248 -0.2047  0.2307  0.1633
20178W        W35987  14.291   9.181   0.937  0.2552  0.4091  0.0221
20179W        W35988   1.394  11.011   2.446 -0.2416 -0.0653 -0.2107
20180W        W35989   8.888  19.077  12.662 -0.3297  0.1181 -0.1030
20181W        W35990   5.156  18.487  11.765 -0.0146 -0.0422 -0.0315
20182W        W35991  16.409   4.389  12.409 -0.0011  0.0943 -0.0872
20183W        W35992  18.495   9.511   4.249 -0.0252 -0.3164  0.0699
20184W        W35993  17.503   3.009  10.294 -0.1334  0.2690 -0.0935
20185W        W35994   3.742  16.226   2.679 -0.2318 -0.0240  0.4095
20186W        W35995   2.655  15.492  14.829  0.0909  0.0325  0.1579
20187W        W35996   0.411  18.637  13.219  0.3444 -0.5003 -0.0233
20188W        W35997   8.873   0.527  13.845 -0.3184 -0.0227  0.1604
20189W        W35998  17.630   1.014   2.043 -0.0593 -0.0149 -0.1638
20190W        W35999   0.227  17.486  14.367  0.3658 -0.1923  0.2538
20191W        W36000   3.044   1.365  14.625 -0.3260  0.3041 -0.2350
20192W        W36001   7.801   2.861  12.004 -0.1215 -0.2065  0.0587
20193W        W36002  14.619   9.935  14.555  0.3660 -0.3716  0.2036
20194W        W36003  10.271   9.879   2.236 -0.1308 -0.0652 -0.3515
20195W        W36004   7.475  16.212   4.162 -0.2944 -0.1855  0.0935
20196W        W36005  18.546  17.258   5.585 -0.2412 -0.1683 -0.0531
20197W        W36006  12.915   1.846  12.503 -0.2095 -0.5253 -0.2899
20198W        W36007   8.552  13.400   1.630  0.3239  0.0772 -0.1358
20199W        W36008   4.084   7.473   5.249  0.2224  0.0430 -0.1442
20200W        W36009   5.698  12.353  10.790  0.2695 -0.0336  0.3848
20201W        W36010  18.991   3.143   2.162 -0.3675 -0.0934  0.1669
20202W        W36011   4.600   4.225  14.019 -0.0419 -0.4384 -0.0651
20203W        W36012   3.461  14.426   3.688  0.1098 -0.1506 -0.0076
20204W        W36013  10.504   0.350  13.447 -0.2659  0.1681  0.3465
20205W        W36014  12.166   0.957   3.840  0.1407 -0.1851 -0.1778
20206W        W36015   0.107  18.274   3.301  0.0860  0.0151  0.2846
20207W        W36016  16.131   5.217  12.448 -0.3349 -0.3175 -0.1595
20208W        W36017   1.029  11.080  13.027 -0.1334 -0.5351  0.0677
20209W        W36018   3.853  15.872  15.064  0.2562  0.1430 -0.3962
20210W        W36019  10.731  15.031  11.512  0.1365  0.0272  0.1058
20211W        W36020   8.357  10.815   3.643 -0.2449  0.0871 -0.0091
20212W        W36021  12.033  17.916  12.325  0.0586 -0.2216  0.0671
20213W        W36022  17.422   9.653  13.120 -0.2392  0.0461 -0.0396
20214W        W36023   4.252   1.583   3.014  0.0620  0.1601  0.0495
20215W        W36024   1.145   7.557  15.175  0.0024 -0.1575  0.1647
20216W        W36025  14.837  13.237   0.521  0.0783 -0.1109  0.4413
20217W        W36026   0.649   2.461   0.318 -0.0793 -0.1393  0.0849
20218W        W36027  12.346   1.072   4.379 -0.3689 -0.0551  0.4703
20219W        W36028   9.049  15.553   2.803 -0.1044  0.0546  0.1838
20220W        W36029   2.059   5.349  10.266 -0.2519  0.0597  0.3570
20221W        W36030   1.332  15.999  12.713  0.0873 -0.1424 -0.1378
20222W        W36031   7.655  12.946  11.173 -0.0238 -0.0649  0.2247
20223W        W36032  12.088  12.827  14.618  0.0033  0.1473 -0.1960
20224W        W36033   4.700  11.765  14.164 -0.1914 -0.0537  0.2427
20225W        W36034   3.877  15.143  10.929 -0.3656 -0.1357  0.2868
20226W        W36035   6.935  15.129  14.109 -0.0711 -0.0840 -0.0932
20227W        W36036   5.899   6.805  14.757 -0.2343  0.2017 -0.2429
20228W        W36037   0.673   1.391   9.449  0.4556  0.1303  0.0313
20229W        W36038   6.472  11.604  12.166 -0.1013  0.0181 -0.0638
20230W        W36039  14.861   9.686   5.151 -0.1070  0.0661 -0.5473
20231W        W36040  12.432   7.334  12.441 -0.0571  0.1361 -0.3025
20232W        W36041   0.773   2.792   5.243  0.2866 -0.1208  0.1484
20233W        W36042   2.344  17.243   1.955  0.1013  0.0760  0.1340
20234W        W36043  18.471  16.123   2.586  0.2128 -0.0105 -0.0924
20235W        W36044   7.546   3.080  10.922  0.0373  0.2520 -0.2596
20236W        W36045   6.324  15.476  14.784 -0.0363  0.1244 -0.2808
20237W        W36046   7.715  16.467  11.663 -0.1659 -0.3030 -0.2324
20238W        W36047   7.964  16.927  12.880 -0.2627 -0.0955  0.0486
20239W        W36048  13.640   9.757   0.901 -0.0596  0.0484 -0.0422
20240W        W36049  14.458  17.193  15.168 -0.1179 -0.1845  0.0305
20241W        W36050   9.629  13.911  10.945  0.0110  0.0060  0.3043
20242W        W36051   2.495   4.563  11.036 -0.0469  0.0575 -0.0047
20243W        W36052  14.592   7.640  10.303  0.0006 -0.1277 -0.1926
20244W        W36053   9.426   1.886  10.934 -0.0571 -0.0931  0.0323
20245W        W36054  16.533  12.831  11.620  0.1579 -0.3116  0.4171
20246W        W36055   3.072   6.440   4.696 -0.2306 -0.0689  0.2962
20247W        W36056  14.797   2.475  11.458  0.0201 -0.0987  0.0395
20248W        W36057  12.996  14.571   1.223  0.1687  0.0330  0.0269
20249W        W36058   8.740   3.534  13.316 -0.0011 -0.1705  0.0444
20250W        W36059  13.349   9.382   0.318  0.0437 -0.3358 -0.0414
20251W        W36060   4.688   8.476  13.679  0.1518 -0.7241  0.0782
20252W        W36061   1.053  11.092   1.606 -0.2438  0.1723 -0.1015
20253W        W36062   1.631   1.979  11.759  0.0002  0.0017  0.0436
20254W        W36063   7.420   0.532   4.865  0.1271  0.0529 -0.1278
20255W        W36064   7.014  16.048  11.284  0.1110  0.1652 -0.1031
20256W        W36065  18.489   5.305   1.617  0.0880 -0.2375 -0.0804
20257W        W36066  10.472   4.285   0.963  0.1246  0.1201  0.0931
20258W        W36067  11.782  18.481   2.737  0.0015  0.2327  0.1559
20259W        W36068   4.126  18.246   2.254  0.0027  0.1669  0.0441
20260W        W36069   1.081  18.592  12.345 -0.1993  0.0514  0.3155
20261W        W36070  16.427  11.129  11.685 -0.0869 -0.0711 -0.5010
20262W        W36071   0.866   6.941   2.772  0.1696 -0.2249  0.0365
20263W        W36072  18.810   6.789   4.156  0.0085 -0.0771  0.1395
20264W        W36073   3.316   4.413   1.981 -0.1435 -0.2986  0.3128
20265W        W36074  13.503   8.592  10.714 -0.0235 -0.1125 -0.0950
20266W        W36075   6.455  14.325  13.878  0.1673 -0.0264  0.2328
20267W        W36076  18.066  18.591   5.071  0.0249 -0.2819 -0.1855
20268W        W36077  13.689   0.701   3.151 -0.3221 -0.1122 -0.3201
20269W        W36078   2.455  19.098  11.266 -0.1333 -0.1870 -0.1662
20270W        W36079  16.266   0.715   4.078  0.1096 -0.1302  0.0851
20271W        W36080   3.363   1.004   4.455 -0.2497 -0.0262 -0.1672
20272W        W36081   3.665  15.888   9.920  0.4708 -0.0386  0.4506
20273W        W36082  11.715   8.465  11.342  0.2799  0.3318  0.1174
20274W        W36083   0.356  15.451  12.285  0.2892  0.0702 -0.0755
20275W        W36084  11.204   8.746  15.206  0.2498 -0.1717 -0.0968
20276W        W36085  18.192  16.149  13.259  0.0954  0.0259 -0.1649
20277W        W36086   4.316   2.791  13.531  0.2923  0.0323 -0.2060
20278W        W36087   7.785  18.411  10.803  0.1800  0.2094 -0.1768
20279W        W36088   1.167   5.107   2.258 -0.0445 -0.3344 -0.1734
20280W        W36089   8.663  18.093   5.564  0.2109 -0.0270  0.3128
20281W        W36090  13.220   5.760   3.869  0.1382 -0.0050 -0.0770
20282W        W36091  11.686   4.024  14.016  0.0149  0.0040 -0.3086
20283W        W36092   1.119   9.432  14.844 -0.3723  0.2274  0.0879
20284W        W36093   9.731   9.438  10.828 -0.0725  0.1221 -0.0390
20285W        W36094  11.450  17.284  13.492 -0.1811  0.1743  0.0537
20286W        W36095   3.388  17.583  13.243 -0.3212  0.0829  0.0585
20287W        W36096   4.254  14.489   0.835 -0.0369 -0.1590 -0.1582
20288W        W36097  13.130  13.421  11.583  0.0729  0.0639 -0.3485
20289W        W36098   9.066  15.625   5.094  0.1040  0.0576  0.0051
20290W        W36099   0.461  11.798  12.258 -0.0316  0.2216  0.0041
20291W        W36100  17.948   2.620   0.990  0.1891 -0.1291  0.2599
20292W        W36101   0.196   8.507   1.907 -0.4381  0.3634 -0.0754
20293W        W36102   8.458  17.536   5.503  0.0334  0.3881  0.0185
20294W        W36103  13.205   4.803  13.357 -0.2495  0.0924 -0.1887
20295W        W36104  16.997   3.086  10.592  0.2222  0.1711 -0.3400
20296W        W36105  13.742   3.020   1.035 -0.0325  0.1553 -0.1446
20297W        W36106   9.319  18.193   2.347 -0.1716  0.0172  0.0039
20298W        W36107  14.194  14.496   2.407  0.1835  0.2170 -0.0937
20299W        W36108   5.055  15.562  14.820 -0.0759  0.1269 -0.1451
20300W        W36109   7.224  13.846   2.398 -0.1367  0.2092  0.0418
20301W        W36110  12.937  14.513  14.601 -0.1928 -0.0583 -0.1930
20302W        W36111  11.335  17.418  14.293 -0.3665  0.2502  0.1063
20303W        W36112   2.942   6.541   3.691 -0.0838 -0.1223 -0.5387
20304W        W36113  13.431  17.419   3.573 -0.1688  0.0192  0.1977
20305W        W36114   5.471   3.143   2.776 -0.0008 -0.1495  0.2291
20306W        W36115   7.645  15.716   1.526  0.1994 -0.0130  0.1216
20307W        W36116   9.425   1.449  13.034 -0.0667 -0.1033 -0.0563
20308W        W36117   9.397   3.754  14.472 -0.0326 -0.1236  0.0840
20309W        W36118  12.364   4.188   1.692  0.2141 -0.4562 -0.1085
20310W        W36119  13.000   7.172   2.031 -0.2044 -0.0011 -0.0687
20311W        W36120  10.398   6.136  13.942 -0.4513  0.1611 -0.2850
20312W        W36121   0.394  10.428   5.106 -0.0112 -0.0994 -0.2405
20313W        W36122   5.402   0.941   1.224  0.0886  0.0243  0.1181
20314W        W36123  11.626  16.502  14.436  0.0546  0.0088  0.1641
20315W        W36124  16.844  13.461  12.358 -0.0374  0.2751 -0.0766
20316W        W36125   3.741   7.891  11.393 -0.0245  0.2587 -0.3530
20317W        W36126  19.100  17.904   4.325 -0.0733 -0.2442 -0.5529
20318W        W36127  13.886  16.043   0.728 -0.0169  0.0641  0.0329
20319W        W36128   6.678  17.423  14.312  0.0696 -0.2153 -0.4902
20320W        W36129  14.084  18.592   1.936 -0.1232  0.3706 -0.1955
20321W        W36130  12.513   5.546   5.041 -0.1290 -0.4749  0.1809
20322W        W36131   1.684  13.774  13.097 -0.1986  0.2125 -0.0909
20323W        W36132  17.255  12.741   4.049  0.2736 -0.0949 -0.1087
20324W        W36133   4.099   8.016   4.779  0.1539  0.0920  0.2941
20325W        W36134  16.393   1.170   3.949 -0.1422 -0.3865  0.1543
20326W        W36135  16.763  15.023   2.102  0.1057 -0.2049  0.0181
20327W        W36136  18.696  12.812   5.551  0.2576  0.1473 -0.0183
20328W        W36137   3.801  18.749  11.195 -0.0688  0.1406 -0.0174
20329W        W36138   2.602  17.569  11.076 -0.1371  0.2042  0.2052
20330W        W36139   7.281  13.210   3.380  0.1429 -0.0025 -0.1531
20331W        W36140  17.173   2.017   4.198 -0.2732  0.1820  0.1445
20332W        W36141   9.785   5.499   4.391  0.1700 -0.0756 -0.2448
20333W        W36142   0.070   1.174  12.761  0.2240  0.1348 -0.2307
20334W        W36143   0.135  18.478   1.419 -0.0695  0.2460 -0.2832
20335W        W36144   6.617   8.412   2.054 -0.1403 -0.0417  0.1183
20336W        W36145  11.731   0.136  11.972  0.1616  0.0720 -0.0434
20337W        W36146  10.418   1.083   4.362 -0.5288  0.4518 -0.1172
20338W        W36147   1.167  16.888  11.146 -0.2211  0.3838 -0.0180
20339W        W36148   8.380  11.808   9.954  0.1190 -0.2198 -0.0826
20340W        W36149   5.656  17.622  13.315 -0.1122  0.1634  0.1858
20341W        W36150   2.086   4.991  12.884  0.1491  0.1554  0.0725
20342W        W36151   6.304  14.599  10.473 -0.0135 -0.1325  0.0160
20343W        W36152  18.603  13.182   1.679 -0.2536  0.1448  0.2058
20344W        W36153  10.535  18.468  14.478 -0.2677  0.1352  0.1387
20345W        W36154   9.489  13.043  13.834 -0.0798 -0.2242  0.1089
20346W        W36155   7.757   8.645  12.009  0.3054  0.1656  0.1107
20347W        W36156   7.156  15.729  10.976 -0.1856  0.4524  0.0569
20348W        W36157  13.389  16.184  14.152 -0.1326  0.0732 -0.0119
20349W        W36158   9.832  12.468   3.257 -0.2083 -0.1686  0.4001
20350W        W36159  14.757  11.330  14.334 -0.1649 -0.0120  0.1595
20351W        W36160   0.823  11.896  11.873 -0.0083 -0.1811  0.0040
20352W        W36161  11.377  14.574  12.639  0.0239 -0.1956  0.0689
20353W        W36162  10.917   1.796  11.290 -0.0752 -0.6190  0.3207
20354W        W36163  13.165   7.572  13.936 -0.0116  0.1081 -0.1832
20355W        W36164  11.224   6.694   0.465 -0.1857 -0.0641  0.3535
20356W        W36165  18.545  12.751  15.064  0.0242 -0.1308  0.3002
20357W        W36166  10.342   9.682  11.539  0.3559 -0.3004 -0.0208
20358W        W36167   3.357   6.159  14.368  0.3587 -0.3360 -0.2564
20359W        W36168   7.232   4.306  10.476  0.1332 -0.1990 -0.0064
20360W        W36169  13.892  18.226   1.518 -0.0114 -0.1609 -0.0485
20361W        W36170   4.283   4.092   4.857 -0.0025  0.4088 -0.5517
20362W        W36171  10.251   6.166   4.081 -0.1075  0.0614 -0.2719
20363W        W36172   2.661   5.316  11.503 -0.0151 -0.0580 -0.3070
20364W        W36173  14.445  10.073  10.700  0.0352  0.3083  0.2067
20365W        W36174   5.599   7.345  14.730 -0.2307  0.1152  0.2825
20366W        W36175   7.396   2.562  10.025  0.1410 -0.3041  0.3549
20367W        W36176  11.989  19.072   3.027 -0.1872 -0.1337  0.1774
20368W        W36177   8.613  16.633   5.038  0.1770  0.1207 -0.0700
20369W        W36178   2.544  19.115  14.386 -0.4680  0.1193  0.0213
20370W        W36179   7.248   8.486   1.971 -0.0246  0.0642  0.3379
20371W        W36180   3.711  12.655   2.382 -0.2080 -0.1537  0.0700
20372W        W36181  18.363  10.044   5.962  0.1205 -0.0970  0.0338
20373W        W36182  17.116   9.399   3.748  0.0826  0.0414  0.1153
20374W        W36183  16.828   9.880   1.925  0.2481 -0.3348  0.3188
20375W        W36184  16.203   4.708  12.702  0.3423 -0.0226  0.3844
20376W        W36185   5.460   1.289   0.812 -0.0058  0.3898 -0.1626
20377W        W36186  13.452   7.624   4.011 -0.1290  0.2887  0.1250
20378W        W36187  17.338   3.105   2.999  0.0663  0.3315  0.1360
20379W        W36188  13.948  17.632  13.340  0.0838 -0.1755  0.1290
20380W        W36189   9.945  13.967   1.788  0.1824 -0.0022 -0.1208
20381W        W36190   3.217   5.014   0.316 -0.3426  0.0511 -0.0026
20382W        W36191   4.495  15.650   2.744  0.2743  0.0086 -0.0244
20383W        W36192  10.912   9.664   1.605 -0.2630  0.0168 -0.1408
20384W        W36193  17.350  12.699  12.968 -0.2210 -0.1262  0.0643
20385W        W36194  13.794   5.061   5.557 -0.1412 -0.0628  0.1890
20386W        W36195   0.667   3.311  13.569 -0.2255  0.2183 -0.1769
20387W        W36196  15.232  17.654  11.447 -0.1315  0.0010  0.1596
20388W        W36197   6.368  13.707  14.986 -0.1558  0.2012 -0.1990
20389W        W36198  12.787   5.012   0.752  0.0219  0.1315  0.0385
20390W        W36199   0.283  11.668   2.388 -0.1868 -0.0512  0.1244
20391W        W36200   6.520   6.537  13.069  0.1563  0.3916  0.1041
20392W        W36201   8.021   0.234   1.109  0.0970 -0.3136 -0.0780
20393W        W36202   0.201   3.270  13.391  0.2125 -0.1442  0.1269
20394W        W36203   4.430  11.078   0.141  0.0130  0.2014  0.0049
20395W        W36204  11.247  13.364   3.802 -0.0389 -0.0036 -0.0082
20396W        W36205   6.527   9.496  14.048 -0.3513  0.2976 -0.2533
20397W        W36206   3.151   3.256  12.025  0.3670 -0.2081 -0.1643
20398W        W36207   1.536   6.999   0.440 -0.1928 -0.0138  0.2711
20399W        W36208   5.458   6.677   5.036 -0.3537 -0.4365  0.0927
20400W        W36209  18.988  11.132   2.099  0.4818  0.0237 -0.2026
20401W        W36210  13.350   8.707   2.459 -0.0118 -0.0363 -0.1596
20402W        W36211   5.069   3.156   3.163  0.4120 -0.3349 -0.2679
20403W        W36212  13.135  11.072  10.781 -0.0190  0.0378  0.3173
20404W        W36213   3.284  18.099   1.277 -0.2089  0.0833 -0.1384
20405W        W36214   1.987   4.174   5.659  0.0280  0.1009  0.0435
20406W        W36215  13.144   3.365  11.096 -0.3103 -0.0049 -0.0400
20407W        W36216  15.671   5.257  13.172 -0.2325  0.2338  0.0941
20408W        W36217   9.089   9.087  13.359 -0.1780  0.1497  0.3764
20409W        W36218   1.978  18.545   1.951  0.1131 -0.0406  0.1313
20410W        W36219  11.884  15.113   1.653 -0.2968 -0.0033  0.0505
20411W        W36220  13.866   5.743   2.109 -0.2176  0.0223 -0.1255
20412W        W36221   4.868   8.536  14.272  0.0998 -0.2561 -0.1919
20413W        W36222  13.176  13.257   4.110  0.0512 -0.0257 -0.0028
20414W        W36223  14.476   4.088   2.483 -0.0154  0.1755 -0.2139
20415W        W36224   9.436   0.173   5.009 -0.0461  0.2036  0.0471
20416W        W36225  14.070   1.196  14.413 -0.0029  0.1046 -0.1034
20417W        W36226  13.705   9.371   2.528  0.0759  0.3162  0.0521
20418W        W36227   3.795  14.075   3.329  0.1299 -0.1590 -0.2377
20419W        W36228  13.300  16.156   0.987  0.0021  0.0292  0.0475
20420W        W36229   8.438  13.439  13.440 -0.1843 -0.5546 -0.1044
20421W        W36230  13.000  19.062   1.091 -0.1535 -0.0117 -0.2484
20422W        W36231   2.409  11.731   0.304  0.3490 -0.0792  0.0199
20423W        W36232  13.250   2.928   1.155  0.0487 -0.0747  0.0250
20424W        W36233  12.180   5.856  12.797  0.4452  0.2583 -0.1616
20425W        W36234   6.706  14.005  12.395 -0.2636  0.0174 -0.0887
20426W        W36235  16.815   4.480   9.509  0.0337  0.0152  0.3408
20427W        W36236   0.362  18.423  11.032  0.1007 -0.0866 -0.1786
20428W        W36237   6.610  12.888  12.974 -0.1514  0.1339  0.0195
20429W        W36238   4.699  11.438   0.863 -0.2245  0.2548  0.1482
20430W        W36239  17.701   8.437  13.003 -0.0260  0.0971 -0.0890
20431W        W36240   8.757   4.344   2.034  0.0931  0.0233 -0.0819
20432W        W36241   3.140   6.194   0.404 -0.0992 -0.3933 -0.3021
20433W        W36242  16.342  16.565   4.291  0.1062  0.0125 -0.3113
20434W        W36243   5.660  17.609   2.878  0.1937  0.0195 -0.0440
20435W        W36244  16.234  11.366   4.289 -0.5048 -0.0425  0.0317
20436W        W36245   5.844   6.963   2.173 -0.3278 -0.4939 -0.1101
20437W        W36246   6.588   1.456   0.869  0.3364 -0.0599  0.0551
20438W        W36247   7.830   2.769   2.104  0.2922 -0.2676  0.0972
20439W        W36248  18.430  12.174  10.744 -0.0958 -0.1995  0.0063
20440W        W36249   3.098  12.494   0.349  0.0033 -0.1509 -0.1127
20441W        W36250  18.919   7.458  11.136  0.0842  0.1195  0.2520
20442W        W36251   6.109  17.594  11.016 -0.2540  0.1664 -0.0242
20443W        W36252   2.529   9.160   3.864  0.0597 -0.0944  0.1059
20444W        W36253   0.932   8.438  14.023  0.0801 -0.0354 -0.0059
20445W        W36254  13.364  15.966   3.839  0.0888  0.2020  0.0139
20446W        W36255  10.241   7.856  10.021  0.0098  0.1600  0.1017
20447W        W36256  17.957   0.910   4.997 -0.0590  0.0997  0.3003
20448W        W36257   5.882   7.054   3.138 -0.0782  0.0910 -0.1882
20449W        W36258   9.095   7.962  12.348  0.1976 -0.4477 -0.1627
20450W        W36259  12.778  16.570   6.169 -0.1242  0.3047  0.4724
20451W        W36260   7.964   0.289  13.990 -0.1846  0.1517  0.0823
20452W        W36261  12.558   9.935   3.524 -0.0886 -0.2493 -0.3597
20453W        W36262  14.922   3.175  11.931  0.0393  0.1357 -0.5171
20454W        W36263  12.995   0.503  12.149  0.1606  0.0519 -0.2928
20455W        W36264  10.401   9.324  11.248  0.0194 -0.0990  0.1300
20456W        W36265  14.947  15.582   1.715  0.3961  0.3377  0.0347
20457W        W36266   6.195  18.249  14.365  0.1565  0.0567 -0.1515
20458W        W36267  18.869   8.698  11.020 -0.3560 -0.0333 -0.2472
20459W        W36268  13.531   2.175  10.620  0.0595 -0.1116 -0.0985
20460W        W36269   8.700   9.038  14.931  0.0109  0.2473  0.1076
20461W        W36270   8.025   5.608  11.293  0.1557  0.1805  0.0362
20462W        W36271   9.819   1.017  13.817 -0.3322 -0.1576  0.0010
20463W        W36272  15.761   1.283   2.985  0.1068  0.0542  0.1622
20464W        W36273   6.650  12.096  12.162 -0.1502 -0.0815 -0.1809
20465W        W36274   9.237   3.048   2.087 -0.0065  0.0627 -0.1433
20466W        W36275  10.297   8.391  13.282  0.0531 -0.0022  0.3933
20467W        W36276  13.490  10.845  14.476 -0.0123 -0.1746  0.1294
20468W        W36277  16.913  16.832   3.433 -0.1131  0.0521  0.3316
20469W        W36278  16.823   6.635   4.294 -0.1758  0.1007 -0.4236
20470W        W36279   8.596   9.953  14.844  0.2530  0.1126 -0.2021
20471W        W36280  11.703  12.593   2.600  0.0676  0.1649 -0.0488
20472W        W36281  18.926  12.866  11.023 -0.1015 -0.0131  0.1074
20473W        W36282  13.823   6.719  10.585 -0.1394  0.1425 -0.2586
20474W        W36283  18.309   7.106   5.360  0.0269  0.0227  0.0719
20475W        W36284  14.183  11.659   3.460 -0.1186  0.0336 -0.3557
20476W        W36285  13.567  12.774   0.569  0.3170 -0.0112  0.0538
20477W        W36286  17.444   4.510  15.200 -0.1826  0.0075  0.0811
20478W        W36287  11.637   1.815   3.055  0.1773 -0.3856  0.3410
20479W        W36288  17.097  10.895   0.265 -0.0652  0.2974 -0.0587
20480W        W36289  12.825   8.600   3.260  0.0565  0.3493 -0.0194
20481W        W36290   9.394  10.934  12.227  0.2430 -0.2642  0.0596
20482W        W36291  14.487   2.420  10.931 -0.2165  0.0604  0.1390
20483W        W36292  17.207  16.822   4.703 -0.2501 -0.1854 -0.6029
20484W        W36293  16.544   4.713  10.667  0.3934 -0.0380  0.1188
20485W        W36294   6.943   9.656   2.985 -0.0673 -0.0738 -0.3393
20486W        W36295  12.489   9.213  14.963 -0.1773  0.0283 -0.1556
20487W        W36296  12.775   6.383   0.856 -0.0856 -0.0217  0.1366
20488W        W36297   4.325  11.888   0.230 -0.0445 -0.0623 -0.2172
20489W        W36298  14.336   8.648  11.109 -0.5621 -0.3621  0.2956
20490W        W36299  17.650  18.162   4.300 -0.1144 -0.1489  0.0869
20491W        W36300  10.667   4.681   0.031  0.0939 -0.2564  0.0669
20492W        W36301  17.012  13.955   0.992 -0.1258 -0.2388 -0.0473
20493W        W36302  16.481   5.269   2.140 -0.0142 -0.0700 -0.0069
20494W        W36303   4.664   3.683  13.938 -0.0780  0.1096  0.1626
20495W        W36304  14.425   3.189   9.507 -0.0492  0.0022 -0.3171
20496W        W36305  18.258  13.048   3.874  0.1484 -0.0352  0.0717
20497W        W36306  18.263   5.013   4.109 -0.1041  0.1678  0.0104
20498W        W36307  11.439   2.819  13.432 -0.3058 -0.0511 -0.1903
20499W        W36308   5.039  16.930  13.229  0.0017  0.1685 -0.1289
20500W        W36309  17.527  18.341  13.798 -0.1052 -0.2711  0.0930
20501W        W36310   8.074   7.697   0.868 -0.0127 -0.0011  0.0114
20502W        W36311   9.538  16.963   0.071 -0.4253 -0.0875  0.2833
20503W        W36312  12.354  18.330   0.548 -0.0427  0.3428 -0.1917
20504W        W36313   8.352  14.060  14.461  0.5266  0.2054  0.1343
20505W        W36314   7.743  11.698  10.684 -0.1551  0.2032 -0.0594
20506W        W36315  13.174  16.807   2.195 -0.3109 -0.1863  0.0321
20507W        W36316   1.162   3.025  12.347 -0.2561  0.0280 -0.2053
20508W        W36317   8.226   3.479  13.343  0.3230 -0.0850 -0.1287
20509W        W36318   9.599  16.388   3.368  0.0127 -0.1736  0.1160
20510W        W36319  12.223  12.241  11.289  0.0899 -0.1075 -0.0592
20511W        W36320   2.801  16.233   2.871  0.3045 -0.2459  0.1495
20512W        W36321  18.531   0.039  10.593 -0.0492  0.0061  0.0092
20513W        W36322  12.176  11.600  10.781 -0.0078 -0.2330 -0.4236
20514W        W36323   8.099  14.547   4.575  0.2281  0.2247 -0.0843
20515W        W36324   1.458   3.127   2.803 -0.1385 -0.2544  0.1101
20516W        W36325  15.391   2.434   4.215  0.1275  0.0309  0.1161
20517W        W36326  11.272   9.094  10.812  0.2616  0.1044 -0.2218
20518W        W36327   3.935  10.136   3.018 -0.1823 -0.1331 -0.0845
20519W        W36328   7.822   6.797  13.543 -0.0109 -0.0627 -0.0904
20520W        W36329  14.403   1.098  14.052 -0.0862  0.2288 -0.0795
20521W        W36330   1.561  14.136  15.131 -0.0151 -0.0331  0.1936
20522W        W36331  15.648   6.656   4.272 -0.4977 -0.4136 -0.0518
20523W        W36332  12.909   9.134  12.339  0.0629  0.3419  0.1847
20524W        W36333  12.107   6.329  12.573 -0.0592 -0.0451  0.0287
20525W        W36334  15.398  10.309  15.131 -0.0770  0.2561  0.1596
20526W        W36335   6.125   2.715   1.034 -0.1478 -0.2545 -0.0173
20527W        W36336   9.933  17.056  10.110  0.0344 -0.3628 -0.0255
20528W        W36337   6.763   0.000  12.571  0.1183  0.0783  0.2071
20529W        W36338  13.561   9.115   4.052  0.1747 -0.1160  0.1069
20530W        W36339   6.456  13.496  10.317 -0.1664 -0.1567  0.1152
20531W        W36340  15.221   6.626   3.695  0.1621 -0.1390  0.1277
20532W        W36341   5.431   0.759  10.171 -0.1233  0.1222 -0.2967
20533W        W36342  10.453  15.177   1.162 -0.0802 -0.1238 -0.0368
20534W        W36343   2.889  18.010  13.636 -0.0207  0.0741  0.2527
20535W        W36344  16.542   9.007   3.946  0.1114  0.0919 -0.2802
20536W        W36345   8.279  16.153  14.847  0.0313 -0.0861 -0.2960
20537W        W36346  15.429  15.312   4.902 -0.1091 -0.0734  0.2011
20538W        W36347   6.850   1.756   0.084  0.2274  0.2605  0.1297
20539W        W36348  10.992   8.786   1.345  0.1412  0.1432 -0.0721
20540W        W36349   8.734  14.663  14.019  0.0930  0.2188  0.1072
20541W        W36350  15.105  10.490   2.119  0.1786  0.3103  0.1968
20542W        W36351  12.954  14.444  12.668 -0.5497 -0.2835  0.2937
20543W        W36352  10.815  10.585  13.146 -0.0732 -0.0257 -0.0376
20544W        W36353   2.941  10.037  13.664  0.0119 -0.0239 -0.1978
20545W        W36354  18.137   4.566  13.304  0.2181  0.0754  0.0798
20546W        W36355  17.469  15.280   1.734 -0.2256  0.2795 -0.0253
20547W        W36356   0.260   7.313  10.961  0.2829 -0.1095  0.0297
20548W        W36357   9.182   2.749   2.504 -0.0356  0.2219  0.1929
20549W        W36358   0.754   6.462   4.148 -0.0131 -0.2389  0.0335
20550W        W36359  14.482   2.648   0.239 -0.0194  0.1028  0.0148
20551W        W36360   2.772  15.084   3.305 -0.0780 -0.1357 -0.1381
20552W        W36361   8.902   5.344  11.452  0.4467 -0.0897 -0.2698
20553W        W36362   7.049   6.990   4.880 -0.0522 -0.3405 -0.0117
20554W        W36363   2.863  16.849  15.216 -0.2281  0.0275 -0.1370
20555W        W36364   1.470  17.341   1.006  0.0147 -0.0014  0.2234
20556W        W36365   2.198  16.709   4.441 -0.0117  0.1717 -0.1356
20557W        W36366   8.525   2.640  15.189  0.0273 -0.3842  0.2318
20558W        W36367   7.083  10.267  13.528 -0.1666 -0.1195  0.2830
20559W        W36368   3.554  18.581  13.005 -0.0133  0.1318  0.2422
20560W        W36369   5.829  10.156   2.382  0.2134  0.2135 -0.1305
20561W        W36370   6.955   3.859   3.421  0.1065 -0.1640 -0.1662
20562W        W36371   0.299  10.615   3.029  0.0863  0.4134 -0.3076
20563W        W36372   5.195  14.006   2.517  0.4365  0.1060 -0.1482
20564W        W36373  17.314  11.239  11.710 -0.0503 -0.0390  0.1846
20565W        W36374  18.573   3.741   0.667 -0.1445 -0.3223  0.2499
20566W        W36375   8.183  11.113  11.810  0.1878  0.0024 -0.0805
20567W        W36376   6.399  13.435  12.066  0.0226 -0.0423 -0.2835
20568W        W36377   3.059   4.356   3.283  0.0297  0.1609 -0.2958
20569W        W36378   9.374   0.645   2.293  0.0449 -0.1929  0.2281
20570W        W36379   9.135   7.506  13.303  0.1386 -0.1915 -0.3021
20571W        W36380  18.054   9.010   2.984 -0.0577  0.1749  0.3380
20572W        W36381   0.284  13.124  11.905  0.1770 -0.2486 -0.0313
20573W        W36382  11.647   0.536   0.952  0.2868  0.0561 -0.0856
20574W        W36383  17.151   0.360   3.550  0.2773 -0.0630 -0.0109
20575W        W36384  13.161   2.256   4.753  0.0294  0.1659 -0.1586
20576W        W36385   2.779  10.732   0.109 -0.1488 -0.0572  0.2728
20577W        W36386  11.907  15.026  11.992  0.2867  0.2978 -0.0697
20578W        W36387   4.623   3.183   2.013  0.3236  0.0065 -0.1353
20579W        W36388  11.667   4.439  14.722 -0.2823 -0.4301 -0.0337
20580W        W36389  11.862  11.453  13.991  0.2444  0.0939  0.1474
20581W        W36390   5.542  18.456   2.040  0.1341 -0.3471  0.2397
20582W        W36391  15.918   1.646   0.453 -0.1580  0.3374  0.1705
20583W        W36392   7.640   0.862  13.388 -0.1495 -0.1233 -0.0622
20584W        W36393  18.542  12.289  14.370 -0.2308  0.0542 -0.1847
20585W        W36394   5.408   0.054   0.667 -0.2323 -0.1535 -0.2247
20586W        W36395   6.510   3.678   4.688 -0.0051 -0.0654 -0.0106
20587W        W36396  14.067  14.924   2.617  0.1390  0.2689  0.1793
20588W        W36397   7.434  16.641   2.118 -0.1942  0.1138  0.1284
20589W        W36398  12.466  14.273  12.387 -0.2085  0.1568  0.0850
20590W        W36399  13.807  12.133   0.006 -0.1924 -0.0731  0.0008
20591W        W36400  16.956  12.578   1.954 -0.1461  0.2286  0.2008
20592W        W36401   4.114   0.082  13.059 -0.0730  0.2267 -0.0037
20593W        W36402  15.194   4.614   0.318  0.0216  0.0827  0.0648
20594W        W36403   8.546   2.344   4.377 -0.0814  0.1414 -0.2173
20595W        W36404  18.188  14.246  11.741 -0.2995 -0.1397 -0.0680
20596W        W36405   3.771  14.550   0.640  0.2576  0.1398 -0.2974
20597W        W36406   9.096  19.095  14.391 -0.0469 -0.0210 -0.0168
20598W        W36407  15.613   1.499   0.913  0.2242 -0.1174 -0.0422
20599W        W36408   7.725   4.585  12.892  0.0233 -0.0508 -0.2172
20600W        W36409  11.101   5.736   1.435  0.0617  0.0072 -0.0258
20601W        W36410   5.335  15.526   2.091 -0.0751  0.1381 -0.2098
20602W        W36411  16.847  12.472   4.351 -0.3230  0.0828 -0.0542
20603W        W36412   6.420  13.822  13.833  0.0366  0.0590 -0.3711
20604W        W36413  18.976   8.018  12.139 -0.2883  0.2180  0.1344
20605W        W36414   9.568  10.712   3.744  0.0630 -0.1316  0.1173
20606W        W36415   1.867   6.691  12.809  0.0829 -0.2680  0.0301
20607W        W36416  16.434  16.072   4.129  0.1792  0.3656 -0.2164
20608W        W36417   1.660   5.188  13.825 -0.2618 -0.0124 -0.0119
20609W        W36418   1.740  18.073   0.307 -0.1822  0.0947 -0.2600
20610W        W36419   3.756   6.143  14.058  0.0197 -0.2751  0.1695
20611W        W36420  15.752   8.303   3.810  0.2310  0.0719  0.1654
20612W        W36421   4.568  14.708  13.792 -0.0641 -0.1644  0.1723
20613W        W36422  12.263   5.854  10.515  0.1381  0.2652 -0.0782
20614W        W36423  13.697  14.337  13.812  0.3297  0.1100  0.0004
20615W        W36424   3.643   3.315   3.795  0.2695 -0.1840 -0.3236
20616W        W36425  10.970  12.478  14.167 -0.2620  0.3085 -0.1534
20617W        W36426   5.401   9.532   9.990 -0.2164  0.1236 -0.2228
20618W        W36427  18.199   5.777   1.924 -0.0761  0.1770 -0.1505
20619W        W36428   7.957   0.824  13.828 -0.1020  0.0260  0.2741
20620W        W36429  15.003  14.470  11.399 -0.2581  0.0073  0.1774
20621W        W36430   8.219   9.077  14.546  0.1825  0.0852  0.3017
20622W        W36431  16.119   8.925  13.869 -0.2921  0.2617 -0.0102
20623W        W36432  13.786  17.374  12.172  0.0924  0.0719  0.2516
20624W        W36433  11.977   1.429  11.486  0.0494  0.2537 -0.1457
20625W        W36434   4.692   8.512   1.987 -0.2650 -0.0057 -0.1523
20626W        W36435   3.918  10.280  14.593 -0.0512  0.0942  0.1379
20627W        W36436  13.929   7.558  10.696  0.1381 -0.1120 -0.1280
20628W        W36437   9.062   3.194  13.260 -0.1887  0.0723  0.1183
20629W        W36438  10.368  16.489  11.403  0.0032  0.2975 -0.3081
20630W        W36439  11.007  11.382   4.028 -0.1280 -0.0764 -0.2285
20631W        W36440   4.898   4.446  10.686  0.2351 -0.0124  0.4294
20632W        W36441   3.761   4.846   3.769  0.1127 -0.2993  0.0575
20633W        W36442  15.571   5.280  12.424  0.2215  0.1155 -0.0037
20634W        W36443  18.260   9.216  12.341  0.0469 -0.2699  0.0845
20635W        W36444   8.298   3.814  14.607  0.1675  0.1512 -0.0476
20636W        W36445  16.583   1.863   2.966 -0.1916  0.4427 -0.1758
20637W        W36446   6.269   0.807  14.480 -0.1832 -0.0690  0.2284
20638W        W36447  12.796  16.293   1.504  0.0159 -0.1151  0.1142
20639W        W36448  11.394   3.195   2.582 -0.2309  0.0136 -0.5394
20640W        W36449   4.168   6.603   1.098 -0.0990 -0.4729  0.2324
20641W        W36450  11.564  14.311   2.156  0.0889 -0.0241 -0.1714
20642W        W36451   2.586  19.040   2.741  0.1137  0.0147 -0.2972
20643W        W36452  14.237  18.818  11.959  0.0349  0.0867  0.0179
20644W        W36453  12.863   8.438   1.480 -0.0247 -0.0415  0.1227
20645W        W36454   9.421  17.727   4.042 -0.0593 -0.3422 -0.1149
20646W        W36455   8.183  14.542   0.459  0.0961  0.1881 -0.0931
20647W        W36456  10.765   9.873   2.083  0.0944 -0.2820 -0.0561
20648W        W36457   7.006  14.422  11.625 -0.0353  0.1023  0.0431
20649W        W36458   5.963   8.621   3.339  0.2176 -0.0177  0.1411
20650W        W36459  17.996   7.121  10.211 -0.0721 -0.0837 -0.1672
20651W        W36460   7.684   8.385   3.162 -0.0703  0.4844 -0.0605
20652W        W36461   9.476   9.785  13.004 -0.0401  0.0481 -0.0668
20653W        W36462  12.346  14.017   4.467 -0.1102  0.0570  0.1329
20654W        W36463  18.159   0.063  12.916 -0.1793  0.2192  0.3595
20655W        W36464   7.798  17.675   1.391  0.3519 -0.0714  0.4592
20656W        W36465  12.484  11.517   9.416 -0.0382  0.0657 -0.1055
20657W        W36466   7.587   7.753  15.234  0.1798  0.0021 -0.0922
20658W        W36467   5.176  13.039  10.457 -0.2152 -0.0999  0.3116
20659W        W36468   3.253   0.450   3.617 -0.1806  0.1282  0.1403
20660W        W36469   0.025   9.657  13.864 -0.1749 -0.0757  0.1229
20661W        W36470  12.511  12.837   2.885  0.0840 -0.2148  0.2004
20662W        W36471  14.240   1.351   2.567 -0.3186 -0.3507 -0.0124
20663W        W36472  18.841   3.231  11.099  0.3202 -0.1469 -0.2974
20664W        W36473   4.414   6.064   3.755  0.0388  0.1286 -0.2443
20665W        W36474  16.287   7.759  10.544  0.0050 -0.0590 -0.3114
20666W        W36475   8.770  10.800   5.034  0.2013  0.1154  0.1058
20667W        W36476   9.594   2.625  10.524 -0.1248 -0.2202 -0.1270
20668W        W36477   6.641  11.356  13.517  0.2138 -0.4373  0.0878
20669W        W36478   3.912   3.190   0.609 -0.0624 -0.0566  0.0559
20670W        W36479  18.272   8.101   2.514  0.2736  0.2858  0.0572
20671W        W36480   3.082  15.472  15.112 -0.4185 -0.1508 -0.1775
20672W        W36481   5.057  16.536   2.012  0.0432 -0.0422 -0.3513
20673W        W36482  11.135  17.152  11.617  0.2248  0.4489  0.0075
20674W        W36483   2.299   4.361   2.098  0.0190  0.2539  0.1183
20675W        W36484  15.871   5.465   3.379 -0.4670  0.2359 -0.1995
20676W        W36485   2.596   1.788   4.664 -0.2530 -0.2491 -0.1256
20677W        W36486   7.142  12.229  14.378  0.0308 -0.1627  0.3403
20678W        W36487  12.911  10.781   4.134  0.0686  0.2452  0.0543
20679W        W36488   7.022   3.243   3.956 -0.0036  0.3187  0.4915
20680W        W36489   2.422   5.532   4.268 -0.0791 -0.0196  0.0287
20681W        W36490   1.272   8.463  13.100 -0.1747  0.4924  0.0957
20682W        W36491   1.691   2.010   4.526  0.0581  0.0918 -0.0009
20683W        W36492  14.923   4.090   1.517  0.1050 -0.0644 -0.0373
20684W        W36493   7.177   3.606  14.192 -0.2384 -0.1190  0.0044
20685W        W36494   0.486  17.749  10.573 -0.3520  0.2289 -0.1341
20686W        W36495   6.166  17.983   0.446  0.0843 -0.0664  0.2078
20687W        W36496   3.494  11.310   0.216 -0.1444 -0.0518  0.2026
20688W        W36497  14.336  17.008   4.986  0.0506  0.0267 -0.1162
20689W        W36498   1.700   8.658   3.314  0.0288 -0.2605  0.0684
20690W        W36499   2.450  13.499   4.022  0.2438  0.2457  0.0244
20691W        W36500  11.106   7.942   5.207  0.1015  0.0563 -0.2531
20692W        W36501   7.495  16.248   5.021 -0.3392  0.5022  0.4881
20693W        W36502  13.269   1.825  11.671  0.1001 -0.0814  0.4684
20694W        W36503   6.210  16.363  11.064 -0.1283 -0.2890 -0.1265
20695W        W36504   5.978  15.241  12.961  0.2048 -0.1520  0.1563
20696W        W36505   9.918  17.475   9.822  0.1032 -0.0493 -0.0239
20697W        W36506  18.402  17.843  12.978 -0.0761 -0.0032 -0.2770
20698W        W36507  17.026   5.275  11.799 -0.2439 -0.0245  0.1687
20699W        W36508  10.112  10.603  10.589 -0.1481  0.2377 -0.0093
20700W        W36509  10.877  17.981  13.646 -0.4316 -0.0665  0.0225
20701W        W36510   6.507   9.822   0.544 -0.0666  0.0855 -0.1094
20702W        W36511   9.766  13.980  14.346 -0.0711 -0.4305 -0.0921
20703W        W36512  16.011  18.665  11.838 -0.0551  0.2870 -0.2678
20704W        W36513   1.018  12.676   1.790  0.0293  0.0703 -0.1795
20705W        W36514  10.516  10.820   3.076 -0.2122 -0.0744 -0.1914
20706W        W36515  17.803  12.874   1.085  0.1552 -0.2593  0.1753
20707W        W36516   3.389  11.373   5.344 -0.3063  0.0341 -0.2608
20708W        W36517  17.530   8.396   3.303  0.2026 -0.3577 -0.0525
20709W        W36518  13.481   7.654  11.015 -0.1765  0.0763 -0.2374
20710W        W36519   5.529  15.148  10.884 -0.3649  0.4475  0.0393
20711W        W36520   1.810   6.690  11.989  0.2538  0.2516  0.2653
20712W        W36521   3.106  18.120   1.798  0.0968  0.0945  0.1266
20713W        W36522   2.444   4.884  13.248  0.1554 -0.3160 -0.2543
20714W        W36523  13.123   5.054   2.901  0.2719  0.3560  0.3555
20715W        W36524  15.746  16.792  11.032 -0.0941  0.1694 -0.0880
20716W        W36525   4.962  14.018   0.302  0.4341  0.0386 -0.0580
20717W        W36526   5.015   9.088   4.453  0.2223 -0.2673  0.1011
20718W        W36527   1.839  16.936  11.615  0.1717 -0.1310  0.0049
20719W        W36528   7.074   5.635  10.079  0.3451 -0.2425 -0.1427
20720W        W36529   2.518   4.780  13.744 -0.2912  0.0067 -0.0544
20721W        W36530   8.571   4.179  11.160 -0.0996  0.0080  0.1418
20722W        W36531  13.218   2.210   1.575  0.0806 -0.2240  0.0015
20723W        W36532   6.176  15.417   4.889 -0.0627  0.2736  0.1471
20724W        W36533   0.283  15.500  11.548  0.2700  0.2132  0.1416
20725W        W36534  10.102  12.407  14.320 -0.0236  0.4372 -0.2915
20726W        W36535  18.224  14.349   4.633  0.0543 -0.2093  0.0273
20727W        W36536  12.213   9.673  14.718  0.1616  0.2580 -0.0327
20728W        W36537   2.761  17.600   0.530  0.3440 -0.1471  0.0243
20729W        W36538  12.145   2.076   2.747 -0.0039 -0.0718  0.0630
20730W        W36539   7.094   5.724  15.081  0.2266 -0.1657 -0.1580
20731W        W36540   1.961   2.637  13.769  0.0130 -0.0807 -0.1669
20732W        W36541   0.141  14.899  12.191  0.2917  0.0610  0.1757
20733W        W36542  11.853   2.642   2.601 -0.0254  0.0552  0.0001
20734W        W36543   4.244  11.363   3.913 -0.0980 -0.2464  0.0457
20735W        W36544   1.121  13.806  11.139 -0.1936 -0.0435  0.1296
20736W        W36545  18.173   2.075   2.597 -0.1070 -0.0192 -0.1072
20737W        W36546  17.223  16.759   3.799  0.0449  0.1512 -0.2851
20738W        W36547   9.134  17.570   4.456  0.2035  0.1159  0.4047
20739W        W36548   1.395  11.989  12.009 -0.0113  0.3120  0.0249
20740W        W36549   9.986  19.042  10.714  0.0703  0.2170  0.1741
20741W        W36550  16.798  12.285  11.131 -0.2236  0.0206 -0.0453
20742W        W36551  15.523   4.051  12.905  0.1818 -0.1978  0.2127
20743W        W36552  11.114  19.003   0.965 -0.2486 -0.0508  0.0463
20744W        W36553  12.485  13.854   0.207 -0.1439  0.2178 -0.0566
20745W        W36554   1.756  13.699  14.768  0.0205 -0.0948  0.1385
20746W        W36555   9.107   5.964  14.177 -0.2503 -0.0919  0.1046
20747W        W36556   7.897   8.864  13.604  0.2153  0.1940 -0.1032
20748W        W36557  11.268   3.155  12.969  0.1351  0.2198 -0.0484
20749W        W36558  13.479  14.332  11.412  0.2162  0.0857  0.0538
20750W        W36559   8.630  12.553   4.006 -0.0629 -0.2910  0.2075
20751W        W36560   5.478   5.733  13.152 -0.2433 -0.0061 -0.0424
20752W        W36561   3.774   7.123  14.478  0.0545  0.0498  0.0525
20753W        W36562  19.054  15.935   0.616  0.0250  0.3550 -0.0613
20754W        W36563   2.454   4.110  13.207 -0.3737  0.2509 -0.2411
20755W        W36564  15.651   4.817   0.162  0.0747  0.1723 -0.1380
20756W        W36565   1.611  16.301   0.653  0.0857  0.0761  0.2728
20757W        W36566   5.713  17.433  10.124 -0.1636  0.0639  0.0089
20758W        W36567   7.855   5.918   1.895 -0.0510  0.2239 -0.2632
20759W        W36568  11.366  15.025   2.714 -0.0284 -0.3545  0.2467
20760W        W36569  12.907   1.349   0.386 -0.0627 -0.2070 -0.0653
20761W        W36570   1.569   7.912  11.412 -0.0879 -0.0840  0.2660
20762W        W36571  17.436   4.617  12.924  0.3644 -0.0035  0.1637
20763W        W36572   9.949  16.249   4.171 -0.0318  0.5076  0.0074
20764W        W36573  15.246  16.367   5.128  0.0110 -0.1953 -0.1467
20765W        W36574   1.835   1.367  12.380 -0.2848  0.3692  0.1764
20766W        W36575   3.410   8.147   3.252 -0.3069 -0.1878 -0.1531
20767W        W36576  15.648  15.593   0.973 -0.2583 -0.1826  0.0167
20768W        W36577   1.230   2.553   1.840  0.2427  0.0625 -0.3078
20769W        W36578  18.915   1.001  13.685 -0.1231 -0.3524 -0.0550
20770W        W36579   4.731   0.042   1.493  0.0845  0.4785 -0.2071
20771W        W36580   3.289   1.341  15.133 -0.0491 -0.3537  0.0052
20772W        W36581   6.271   5.202   2.583  0.3743 -0.3378  0.3068
20773W        W36582  12.114   2.890   3.515 -0.2720 -0.2956 -0.1037
20774W        W36583   8.949  17.003   5.061  0.2257  0.0558  0.0470
20775W        W36584  11.069   2.621  13.883  0.3400 -0.2608  0.2901
20776W        W36585   3.992  18.728   0.224  0.2191  0.1237  0.5063
20777W        W36586   0.238  18.820   2.308  0.1776  0.3081 -0.2093
20778W        W36587  17.455  13.164  11.801 -0.0789 -0.1571  0.0526
20779W        W36588   8.590   9.768  14.332 -0.1181 -0.0886 -0.4845
20780W        W36589   8.192   1.014   2.999  0.0655  0.0588  0.3722
20781W        W36590  16.415   4.262  14.334  0.0753  0.1591 -0.1593
20782W        W36591   6.475   6.122   1.685 -0.0947 -0.3509  0.4594
20783W        W36592  17.637   9.099   4.335 -0.0357  0.1115  0.0958
20784W        W36593   5.259  12.431  11.050 -0.2693  0.1869 -0.2332
20785W        W36594  18.289  16.035   3.041 -0.0057  0.3650  0.2230
20786W        W36595   1.707   9.618   5.095  0.0577 -0.0805  0.0161
20787W        W36596   5.501  13.563  13.173  0.2053  0.0581 -0.2251
20788W        W36597  11.982  13.465  10.858 -0.1489  0.0791  0.1987
20789W        W36598   8.799   9.630   5.289 -0.0694  0.1852  0.0427
20790W        W36599   0.275   6.552  14.035  0.2408 -0.1943  0.1181
20791W        W36600   9.287   3.484  11.473  0.0963 -0.4428  0.3195
20792W        W36601   6.056  10.924   4.482 -0.2430  0.0938  0.4592
20793W        W36602  13.932  18.126  11.478 -0.0561  0.1865  0.0136
20794W        W36603   2.996  12.207   2.866 -0.1088 -0.0993 -0.0890
20795W        W36604   9.377   2.823  10.998 -0.2298 -0.2333  0.3516
20796W        W36605   9.402   9.926   3.383  0.2108 -0.1721 -0.0120
20797W        W36606  18.988   5.167  12.542 -0.2546 -0.0443  0.1289
20798W        W36607   5.606  11.228   2.199  0.2203  0.0197 -0.2422
20799W        W36608   1.043   0.217   4.538 -0.1892 -0.0922 -0.1493
20800W        W36609   3.940  12.727   3.019 -0.0565 -0.0196  0.0382
20801W        W36610   6.555   0.582   1.035  0.0443 -0.1693  0.0677
20802W        W36611  13.043   8.444  11.539  0.0348 -0.0419  0.0792
20803W        W36612   3.171   3.192   0.652  0.3132  0.7187  0.1608
20804W        W36613  13.473   2.395  11.841  0.2633 -0.1465 -0.0019
20805W        W36614   1.008  15.137   1.802 -0.2146  0.0690  0.1976
20806W        W36615   9.666   2.468   0.627 -0.5000 -0.2350 -0.3223
20807W        W36616  18.394   3.271   2.186  0.0501 -0.0373 -0.0887
20808W        W36617  11.667   8.240   4.638  0.4622 -0.0050  0.1623
20809W        W36618  13.624   8.892   1.005 -0.0962 -0.0677 -0.0086
20810W        W36619  17.039   8.660  15.060 -0.0031 -0.0278  0.6222
20811W        W36620  17.248   3.645   0.452  0.0182 -0.0495 -0.0781
20812W        W36621  11.054   7.882   3.933  0.0394  0.1013  0.0184
20813W        W36622   1.418  10.242  13.954 -0.0135 -0.3830  0.0790
20814W        W36623  17.837   6.203   5.188 -0.3844 -0.0906  0.1664
20815W        W36624   1.483   4.362   3.744  0.1197  0.3089  0.0937
20816W        W36625   2.966   9.568   1.775 -0.1716 -0.1439  0.0371
20817W        W36626  15.937  11.540   1.978  0.1002  0.2358  0.0578
20818W        W36627  14.790  16.644  12.632 -0.0242  0.2915  0.2615
20819W        W36628   8.646   1.674  15.211 -0.0875 -0.0351  0.1963
20820W        W36629  19.031  17.337   3.365 -0.1140 -0.0593  0.0581
20821W        W36630   2.976   0.956  14.407  0.0264  0.1091  0.0306
20822W        W36631  17.595  10.480  13.314 -0.0581  0.0339 -0.2038
20823W        W36632  15.926  11.312  14.390  0.1181 -0.3416 -0.2929
20824W        W36633   2.918  17.635  14.808 -0.1142 -0.2247  0.0378
20825W        W36634   4.149  17.148  13.737 -0.4084 -0.3037  0.0380
20826W        W36635   1.688   6.228   0.618 -0.0042  0.1663 -0.1205
20827W        W36636   2.724  14.522   2.198  0.0528  0.1795 -0.1288
20828W        W36637  16.654   5.121   0.201 -0.1432 -0.3047  0.1081
20829W        W36638   9.784   5.608   2.375  0.1678 -0.1080 -0.1362
20830W        W36639   3.626   2.225   2.908  0.1003 -0.0921 -0.0998
20831W        W36640  11.067  18.964  11.128  0.0699  0.2835 -0.0595
20832W        W36641   1.871  13.423   0.329  0.0653 -0.2870  0.1777
20833W        W36642  18.802   4.898  15.250 -0.3744  0.1109  0.1915
20834W        W36643  18.930  18.365   4.414 -0.1163 -0.1926 -0.3004
20835W        W36644  17.478  16.338   1.192  0.1487 -0.2333  0.0415
20836W        W36645  17.914   1.961  13.462 -0.3542  0.2107 -0.3614
20837W        W36646   3.383  16.008  13.793 -0.0675 -0.2026 -0.2390
20838W        W36647  10.221  15.944   2.245  0.2046 -0.2296  0.0093
20839W        W36648   2.094   4.667   3.308  0.0992 -0.2152  0.2826
20840W        W36649  11.567  18.767   3.153  0.0298  0.0697 -0.0418
20841W        W36650   9.422  14.897   0.495  0.1105  0.0405  0.1860
20842W        W36651  13.215   6.625   0.811 -0.2270 -0.0639 -0.1992
20843W        W36652   0.789  11.540  12.473  0.3399  0.0189  0.0244
20844W        W36653  10.742  14.049  13.939 -0.0971 -0.1632  0.2200
20845W        W36654  13.220  10.380  14.397  0.1497 -0.2475 -0.2556
20846W        W36655  15.664  17.713  11.722 -0.2039  0.2299  0.0159
20847W        W36656   7.049   7.899   4.059 -0.0233 -0.1354  0.0852
20848W        W36657   9.353  15.222   2.526  0.2300  0.0916  0.2574
20849W        W36658   0.773   8.894   3.347  0.4161  0.1359 -0.0137
20850W        W36659  13.338  12.884  13.694 -0.0207  0.0268  0.0536
20851W        W36660   5.291  10.348   1.296 -0.0474  0.3168  0.0192
20852W        W36661  15.061   4.718   4.097  0.2694  0.1768 -0.2319
20853W        W36662   5.610   5.268  13.877  0.0382 -0.2148 -0.3093
20854W        W36663   3.618   0.121   4.390 -0.0660  0.1651 -0.0997
20855W        W36664  11.243  13.896  14.680 -0.1679 -0.0914 -0.1999
20856W        W36665   8.706   4.080  14.898 -0.0554 -0.1152 -0.2996
20857W        W36666   7.083   8.126  14.497 -0.3557 -0.0092 -0.3296
20858W        W36667  12.567  10.696   2.976 -0.1572 -0.0022 -0.1070
20859W        W36668   5.937  17.192   2.157 -0.1591 -0.0154 -0.1376
20860W        W36669  13.958   2.260  13.232 -0.0908  0.1067 -0.2986
20861W        W36670  10.852  13.183  15.104  0.3368  0.1362  0.0794
20862W        W36671   9.095  16.851  10.106  0.3206 -0.1985 -0.2287
20863W        W36672   9.565   4.221   0.005 -0.2646 -0.1382  0.1852
20864W        W36673  12.845   5.425   0.434  0.1796  0.2418  0.0618
20865W        W36674  18.706  16.121   4.171  0.0554 -0.0090 -0.1944
20866W        W36675   7.013  18.037   4.355 -0.4054  0.0627 -0.0133
20867W        W36676   9.237   0.803  14.077 -0.2899 -0.0028  0.0154
20868W        W36677  15.211   7.903  12.907  0.0986  0.0513 -0.3503
20869W        W36678   3.882  14.021  14.987  0.3097  0.0237 -0.1433
20870W        W36679   8.899  11.888   1.292  0.2422 -0.0474  0.0335
20871W        W36680  17.830   4.246  15.024  0.1729 -0.0955  0.0817
20872W        W36681  13.188  16.488   1.755  0.0733 -0.0357  0.1488
20873W        W36682   3.081   5.465  13.430  0.1105  0.3002 -0.2202
20874W        W36683   1.865   5.520  12.631  0.2982  0.1147  0.0723
20875W        W36684  15.032  18.203   4.598  0.0951  0.1109  0.0578
20876W        W36685   4.777  14.455  14.768 -0.0182  0.1126  0.0587
20877W        W36686   9.902   7.376   2.267 -0.0320 -0.2617 -0.2051
20878W        W36687   7.523  18.558  13.690  0.1607  0.0427 -0.2272
20879W        W36688   0.412  14.777   4.465 -0.1348 -0.2190  0.1206
20880W        W36689   4.706  13.957   1.773 -0.1250 -0.0801 -0.2927
20881W        W36690   2.266   5.633   3.251 -0.1092  0.0265  0.0041
20882W        W36691  17.448  14.378  14.064  0.0592 -0.2078 -0.1225
20883W        W36692  15.567   3.100   5.018 -0.3184 -0.0120 -0.1946
20884W        W36693  10.971   0.804   3.452 -0.2865  0.0628  0.4560
20885W        W36694  16.079  16.444  10.897 -0.4948 -0.0630  0.2031
20886W        W36695  11.486   8.020  11.185 -0.1258  0.2959  0.1257
20887W        W36696  14.181   5.708  13.715 -0.2489 -0.0671 -0.2166
20888W        W36697  11.289  15.437  14.188 -0.4282  0.0384 -0.2625
20889W        W36698  16.803  13.616  12.827 -0.0627 -0.1614 -0.1263
20890W        W36699  11.591   1.562  11.223  0.0439  0.1469  0.0286
20891W        W36700  18.361  14.725  15.236  0.3014  0.1274  0.0525
20892W        W36701  17.481  14.046   1.900 -0.3843  0.1369 -0.1350
20893W        W36702  18.089  15.735  11.500  0.2042 -0.3696 -0.0880
20894W        W36703   8.967   2.394   2.951  0.0899 -0.1242 -0.4941
20895W        W36704  18.858  15.958  11.671 -0.3638 -0.2105  0.3760
20896W        W36705   5.072   7.483  14.710  0.0666 -0.0048  0.2729
20897W        W36706  17.676   8.018   3.607 -0.0306 -0.1170  0.0611
20898W        W36707  12.022   0.586   2.447 -0.0243 -0.1849  0.0561
20899W        W36708   7.218  10.742  14.953 -0.2203  0.2663 -0.2195
20900W        W36709   9.204  15.445  14.834  0.0335  0.1463 -0.2296
20901W        W36710   9.927  11.314  12.909 -0.1315 -0.0546  0.4487
20902W        W36711   1.122   2.507   9.877 -0.0100 -0.1588 -0.2200
20903W        W36712  17.866  10.343   0.082  0.1178  0.3780 -0.1569
20904W        W36713  14.746  11.603  10.594  0.1405 -0.0131  0.1107
20905W        W36714   7.152   0.188   9.057 -0.0814  0.0852 -0.1169
20906W        W36715   8.926   1.881  14.795 -0.4920  0.0715 -0.0511
20907W        W36716   8.778   2.385   0.400  0.0164 -0.0049  0.2224
20908W        W36717  14.589  10.833   4.975 -0.0151 -0.2718 -0.0948
20909W        W36718  10.540   8.371  10.825  0.2798 -0.1318 -0.3668
20910W        W36719   6.065   1.439   4.105 -0.1215  0.2701 -0.3772
20911W        W36720  10.943  13.328   0.600  0.1352  0.1910  0.4190
20912W        W36721  13.728   9.993   4.852  0.1340 -0.2046 -0.1223
20913W        W36722  10.383   6.811  15.265 -0.0450 -0.4225  0.1241
20914W        W36723  13.543  16.759  14.956 -0.2572 -0.1325  0.4385
20915W        W36724  15.894   3.884  13.320 -0.0844  0.2033  0.0398
20916W        W36725  18.092  11.370   1.871 -0.1907  0.0505  0.0088
20917W        W36726  10.787   2.610   1.288 -0.0271 -0.3774 -0.1456
20918W        W36727   5.328  16.163  10.993 -0.0086 -0.1109 -0.0407
20919W        W36728  15.455   5.745  10.598 -0.2078 -0.2746 -0.0167
20920W        W36729   3.685  18.540   0.952  0.4544  0.1609 -0.0331
20921W        W36730   0.443  15.508   3.103  0.0145  0.0837  0.2297
20922W        W36731  13.169  14.702  12.063 -0.2027 -0.1753 -0.1872
20923W        W36732   8.159   1.674   1.304 -0.0505  0.3113  0.1453
20924W        W36733   6.778  16.225   1.335  0.2916 -0.0505  0.0063
20925W        W36734  15.772  15.088   1.868  0.1615 -0.0905 -0.2437
20926W        W36735   2.741  16.073   9.870 -0.0071 -0.0959 -0.3886
20927W        W36736   1.771   5.709  11.664 -0.0330 -0.4627  0.2234
20928W        W36737   8.137   1.556  14.521 -0.3774  0.2131 -0.1825
20929W        W36738  11.399  15.637  13.599 -0.1338 -0.0922  0.0832
20930W        W36739  14.744   1.999   3.232 -0.1992  0.0319  0.2374
20931W        W36740   6.706  12.278   2.814  0.1162  0.3244 -0.1543
20932W        W36741  12.072  12.905  10.788  0.1060 -0.3104 -0.0473
20933W        W36742  13.508  12.970   3.765  0.1690 -0.1809 -0.2957
20934W        W36743   6.941  15.132  14.907 -0.1432  0.1082 -0.1066
20935W        W36744  11.992   5.778  14.112  0.1609  0.1755  0.1595
20936W        W36745   2.394   0.097  12.611 -0.0481  0.0450 -0.1129
20937W        W36746   2.979   5.579   2.348  0.1825 -0.2704 -0.0337
20938W        W36747   2.214   9.656   5.249  0.1050 -0.0414  0.2528
20939W        W36748  17.506   4.614   3.816  0.0363 -0.3685 -0.0935
20940W        W36749   8.487   3.086  11.034 -0.2158  0.0704 -0.4121
20941W        W36750  10.040   1.743  14.451  0.1793 -0.3367  0.0029
20942W        W36751   4.613  16.128  14.333 -0.0117  0.3608  0.0359
20943W        W36752   7.841   2.592  10.992  0.0131 -0.0775 -0.3965
20944W        W36753  16.829  18.869  10.490  0.1390  0.2220  0.3032
20945W        W36754  17.832   2.371   4.223 -0.1982 -0.1694 -0.0370
20946W        W36755   0.986   4.496   4.894  0.0469 -0.1866  0.2554
20947W        W36756  11.019  12.958   3.153  0.1428  0.1060 -0.3252
20948W        W36757   8.994   3.657   3.757  0.2875  0.1379 -0.3006
20949W        W36758   3.562   8.419  11.122  0.2419  0.0906 -0.2641
20950W        W36759  13.374  12.647  11.939  0.3105  0.1104 -0.0188
20951W        W36760   2.353   3.658  10.327 -0.0409  0.0572 -0.3308
20952W        W36761  12.020   8.808   1.874  0.0972 -0.0647 -0.0539
20953W        W36762   9.889   7.611  13.168  0.2242  0.1489  0.1440
20954W        W36763  15.710  10.044   2.007  0.1059  0.0348  0.1673
20955W        W36764   4.061  15.386   1.089 -0.0464  0.2325 -0.1488
20956W        W36765  13.230  18.665  11.192  0.0531  0.1329 -0.1907
20957W        W36766   4.687  12.654  14.747 -0.2466  0.0632 -0.0046
20958W        W36767  11.943   3.951   0.789 -0.2369 -0.1130  0.1403
20959W        W36768   1.522   1.619  12.104  0.0835  0.0643  0.3759
20960W        W36769   2.108  15.449  10.872  0.0486 -0.1304  0.1768
20961W        W36770   9.799  16.603  13.772 -0.0156 -0.3608 -0.0434
20962W        W36771   1.064   9.933   2.100  0.2756 -0.3086 -0.1327
20963W        W36772   5.233   3.604   4.096 -0.3383  0.1292 -0.1003
20964W        W36773   4.773   9.251  14.851  0.0252  0.1299 -0.3605
20965W        W36774   0.290   8.426  12.881  0.0721 -0.2071  0.1164
20966W        W36775   0.275   7.528   9.967  0.1440  0.0901  0.2412
20967W        W36776  14.105   2.251   2.418 -0.1455 -0.2020  0.0613
20968W        W36777   0.215  11.933   2.905 -0.0730 -0.0053 -0.1498
20969W        W36778   6.873  10.404  10.754 -0.0195  0.1764  0.1637
20970W        W36779   6.045  14.833  15.011  0.0948  0.3420 -0.0429
20971W        W36780  15.133  10.349  11.043  0.0262 -0.3340 -0.0396
20972W        W36781  17.349   9.059  14.907 -0.0468  0.2749 -0.0527
20973W        W36782  13.758  16.703   2.916 -0.0409  0.0416  0.2582
20974W        W36783   8.452  14.457   4.001 -0.2925 -0.1231  0.1042
20975W        W36784  12.333  18.613   5.049  0.0510 -0.1406 -0.0340
20976W        W36785  16.571   5.088   4.046  0.5006 -0.0918  0.0999
20977W        W36786  18.645  10.330   4.900 -0.0904  0.0488 -0.2688
20978W        W36787   2.191  17.533  12.658 -0.2592  0.1454  0.0321
20979W        W36788  12.291   0.960   2.264 -0.1790  0.1457 -0.1223
20980W        W36789  10.540  10.716   4.005 -0.1482 -0.3227  0.2026
20981W        W36790  16.651   3.450   3.286  0.1525  0.1691 -0.1687
20982W        W36791  17.736   6.280   0.183 -0.5367 -0.1342  0.4444
20983W        W36792   1.662   8.652  14.660  0.2621  0.0902  0.2957
20984W        W36793   3.843  13.184  13.360  0.3665  0.3806 -0.1680
20985W        W36794   9.271   7.709   3.644 -0.1008 -0.0834  0.0571
20986W        W36795   8.587   2.016  14.462 -0.2007 -0.0375 -0.3302
20987W        W36796   0.535   9.932   5.270  0.0584  0.0596  0.1519
20988W        W36797  18.914   6.459   1.071  0.2073  0.0768  0.3375
20989W        W36798  13.897  12.532   0.904  0.0615  0.0507 -0.3020
20990W        W36799   2.870  11.857   0.405  0.0517  0.2755 -0.1663
20991W        W36800  11.901  18.059  13.639 -0.6289  0.1539  0.0120
20992W        W36801  18.638  17.610   3.603  0.2683  0.1433 -0.1249
20993W        W36802  12.218   5.712   4.192 -0.3043 -0.2740 -0.0930
20994W        W36803   9.463  14.217   4.160 -0.0075  0.0428 -0.0784
20995W        W36804  16.193   6.360   0.578 -0.1660  0.0602  0.3251
20996W        W36805   0.556   2.641  15.141 -0.1274  0.1126  0.2499
20997W        W36806   6.278  16.591  12.198 -0.1890 -0.1803 -0.2362
20998W        W36807   5.847   3.098   0.811  0.1252 -0.1301  0.0392
20999W        W36808   4.451  15.318   3.113  0.0876 -0.0066 -0.1398
21000W        W36809   3.548   0.461   2.064  0.0457  0.0547  0.0404
21001W        W36810  15.034   6.853   9.511 -0.3039 -0.1096  0.1956
21002W        W36811   2.931   7.949   1.615 -0.1823  0.0647 -0.2100
21003W        W36812  13.446   2.929  12.161  0.0087  0.1312  0.2446
21004W        W36813  17.680   2.216  12.039 -0.1246  0.0027  0.1212
21005W        W36814   2.274  13.409  14.346  0.4425  0.1670  0.0894
21006W        W36815   9.439  18.385   3.338  0.0005 -0.0204 -0.3164
21007W        W36816   7.932   8.239  12.829  0.0409  0.2924  0.0404
21008W        W36817   1.885   0.469  11.638  0.0654 -0.0496 -0.2566
21009W        W36818   4.706  10.981  13.580 -0.0765  0.1205 -0.1278
21010W        W36819   0.494   3.036   0.940 -0.1720 -0.2524 -0.0894
21011W        W36820  18.870   2.350  14.491  0.2695  0.1757 -0.0435
21012W        W36821   8.975   7.474  12.280  0.0467  0.0442  0.2144
21013W        W36822   6.832   7.990   0.614  0.2795 -0.2878  0.2144
21014W        W36823  19.113   7.988   2.760  0.1361 -0.0879 -0.4186
21015W        W36824   6.604   1.886  13.692  0.3788  0.4356  0.1092
21016W        W36825   7.686  11.767  14.631 -0.0897 -0.1085 -0.0826
21017W        W36826  15.404  14.934  11.699  0.1864  0.0853 -0.0822
21018W        W36827  12.522   7.496   1.462  0.2619  0.0160 -0.2125
21019W        W36828  17.685  15.161   3.262  0.0977 -0.1128 -0.0382
21020W        W36829  17.835  10.317  10.680 -0.2346 -0.2165  0.0597
21021W        W36830  13.016  12.642   3.707  0.0815  0.0656 -0.1123
21022W        W36831   0.316  13.802  13.216 -0.3045  0.3131  0.0726
21023W        W36832   0.044  11.251  11.305  0.0741 -0.0645  0.2895
21024W        W36833  13.999   0.034  13.644  0.0646 -0.0159 -0.2422
21025W        W36834  15.031  11.498  14.004  0.1118 -0.2220 -0.0475
21026W        W36835   2.996  14.608   3.484 -0.0451 -0.0221  0.3079
21027W        W36836  18.757   1.194  14.909 -0.0176  0.2624 -0.1393
21028W        W36837  17.313   6.088   0.478 -0.0979 -0.1973 -0.0568
21029W        W36838   7.743   9.065   0.804  0.0284 -0.1621 -0.2261
21030W        W36839  14.793   6.307   4.627 -0.2839 -0.0129  0.2204
21031W        W36840   8.874  10.132   1.594 -0.1889  0.1648  0.1862
21032W        W36841   5.758   3.010   1.299 -0.2164  0.1738 -0.1812
21033W        W36842   5.826   8.668   4.245  0.0349  0.0140  0.1593
21034W        W36843  11.193   7.203   0.485 -0.0914  0.2160 -0.0119
21035W        W36844   0.770  16.311  11.256 -0.2122  0.0772 -0.0411
21036W        W36845   3.458  19.005   1.446 -0.0523 -0.0328 -0.0803
21037W        W36846   3.023  15.215  13.902 -0.1936  0.2456  0.0210
21038W        W36847  17.964   8.710   1.994 -0.2954  0.2269 -0.0404
21039W        W36848   7.460  12.744  10.316  0.3663 -0.1652 -0.4194
21040W        W36849   5.254   5.592  13.563 -0.2308 -0.1676  0.0003
21041W        W36850   3.528   0.826  12.575 -0.3388 -0.5198 -0.1698
21042W        W36851   4.167  12.920  13.777 -0.5222 -0.2389 -0.0833
21043W        W36852  14.119   7.587   2.696 -0.0145 -0.1933  0.0596
21044W        W36853   3.088   2.728  11.211  0.5263 -0.0636 -0.0420
21045W        W36854  18.617   8.010  14.357 -0.0383 -0.1206 -0.0433
21046W        W36855  15.245   7.157  15.114 -0.1154 -0.2601  0.1739
21047W        W36856  14.044   8.897  11.441 -0.1562 -0.0676 -0.1573
21048W        W36857  18.633  14.774   4.712 -0.1719 -0.2586  0.1728
21049W        W36858  12.966   7.305  12.445 -0.0994  0.0013  0.2954
21050W        W36859  10.361   3.468  13.925 -0.3173  0.0463 -0.2423
21051W        W36860   3.399  17.149   2.832  0.3413  0.4148  0.0236
21052W        W36861  11.689  13.229  15.255 -0.1428  0.1868  0.1845
21053W        W36862  19.083  15.567   5.022 -0.0424  0.3744  0.0930
21054W        W36863   3.688  18.183   3.154  0.3565  0.0452  0.2206
21055W        W36864   3.768   9.406  11.967  0.1137 -0.3126  0.0067
21056W        W36865   3.261  18.747  11.290  0.1084 -0.2874 -0.3843
21057W        W36866  12.118   7.294  10.267 -0.0586  0.3073  0.4797
21058W        W36867  18.576   7.307   0.980  0.0360  0.1400 -0.1123
21059W        W36868   5.733  16.834  13.486  0.2723 -0.2303 -0.0340
21060W        W36869   1.506   9.931  11.789  0.1709 -0.1905 -0.0945
21061W        W36870  15.256  11.202   5.474  0.0038  0.3218  0.2607
21062W        W36871   4.086   7.020   2.956  0.3426  0.0279  0.0102
21063W        W36872   2.987  15.046   1.967  0.0786  0.0104  0.0987
21064W        W36873  10.431  13.446   3.299  0.2134  0.2114 -0.0660
21065W        W36874   2.964   1.583   3.767 -0.0751  0.3035  0.0419
21066W        W36875   6.472  14.343  11.392  0.0335  0.1023 -0.0708
21067W        W36876  10.541  12.447   4.952 -0.0717  0.0667  0.2834
21068W        W36877   1.271  19.048   2.831  0.0026  0.1904 -0.1018
21069W        W36878   5.304  17.600   3.782  0.1842  0.2292  0.1568
21070W        W36879   6.823   0.922   3.830 -0.0399 -0.0311  0.1579
21071W        W36880   1.770  17.598   0.133  0.1645  0.1034  0.1581
21072W        W36881   5.576   4.106   0.238 -0.2822  0.0676 -0.2644
21073W        W36882  11.690   7.661  12.095  0.0178  0.0345  0.3568
21074W        W36883  18.719   6.486   3.591  0.0663  0.0821 -0.0394
21075W        W36884  16.338   5.879   4.935 -0.2705  0.3956 -0.1028
21076W        W36885   8.935   9.922   0.625 -0.3770  0.0027 -0.3000
21077W        W36886   2.372  17.999  12.779  0.0567  0.0014 -0.1527
21078W        W36887   3.365   9.065   5.292 -0.3677  0.0371 -0.1409
21079W        W36888  14.730  13.032  14.124  0.1738 -0.0948  0.0140
21080W        W36889  18.138   6.511   4.893 -0.2930 -0.3287  0.0876
21081W        W36890   3.082   1.112   5.264 -0.1134 -0.1822 -0.0717
21082W        W36891  18.880   4.640  13.630  0.2238  0.2009 -0.0421
21083W        W36892  10.314   6.606   0.727  0.0308  0.2170  0.0760
21084W        W36893  13.177  14.990  12.522  0.1426 -0.2691  0.3330
21085W        W36894   2.189   9.183  13.797  0.1126 -0.0473 -0.1244
21086W        W36895   4.227  15.267   9.529  0.0782 -0.3854  0.0448
21087W        W36896   9.233   9.150  14.878 -0.0887  0.0438 -0.1028
21088W        W36897   9.841   3.791   4.255 -0.1294  0.1214  0.2043
21089W        W36898   7.208   9.100   4.916  0.0012  0.3349  0.3871
21090W        W36899  13.679  18.411   0.046 -0.3297 -0.0262 -0.1910
21091W        W36900  13.951   9.851   1.353  0.0828 -0.1789 -0.4268
21092W        W36901   3.634  15.375  13.224  0.1788 -0.1950 -0.4251
21093W        W36902  14.753  11.158  13.817 -0.1320  0.1913 -0.1501
21094W        W36903  17.567  12.861   4.367  0.2497 -0.2018 -0.2384
21095W        W36904   1.057  15.133   2.711 -0.1787  0.1188  0.1007
21096W        W36905   8.434   6.295   3.088  0.3652  0.0348 -0.1841
21097W        W36906  12.754   3.941  14.330 -0.2182 -0.0599  0.1595
21098W        W36907   2.819  17.411  13.390 -0.0892 -0.0374  0.1381
21099W        W36908   5.282  11.178   2.636 -0.3614 -0.0959 -0.0780
21100W        W36909  15.044   2.719   4.015 -0.1213  0.2528 -0.0703
21101W        W36910   8.729   6.843  13.601 -0.0671 -0.3315  0.1599
21102W        W36911  11.866   0.413  13.662  0.0809  0.2590  0.3225
21103W        W36912  17.495  15.267  13.034  0.1880 -0.3057  0.0452
21104W        W36913   6.286  13.565   3.883  0.1368  0.1378  0.0622
21105W        W36914  15.086  15.908   3.951  0.3643  0.3886 -0.2267
21106W        W36915  13.140  11.907   2.592  0.1742  0.1276  0.1972
21107W        W36916   5.461   7.574   0.914  0.0878 -0.3529 -0.0889
21108W        W36917  12.036   0.350   3.977  0.3774 -0.2069 -0.0207
21109W        W36918  18.121   2.618   5.282 -0.0273  0.2955  0.4363
21110W        W36919  15.302   2.046   3.921 -0.4233  0.0270 -0.1488
21111W        W36920   5.928   8.675   2.814  0.1011 -0.1032 -0.0235
21112W        W36921  10.935   5.104   0.116 -0.2501  0.2821 -0.1756
21113W        W36922  18.776  13.265   2.835  0.0945  0.3134 -0.4245
21114W        W36923   3.865  13.571  14.152 -0.1428  0.1049  0.4057
21115W        W36924   5.596  13.618  11.168  0.1941 -0.2477  0.0508
21116W        W36925   4.741  10.598  11.990 -0.1832 -0.2582  0.2421
21117W        W36926   0.408  16.087   2.191  0.1861  0.3212  0.2756
21118W        W36927  16.941  15.352   4.640  0.0113 -0.0652  0.3357
21119W        W36928   1.333  10.153  14.522 -0.0519  0.0713  0.1015
21120W        W36929  16.552  18.934   4.561 -0.2801 -0.0679  0.1637
21121W        W36930   7.494  15.773  12.134 -0.1176  0.0085 -0.1263
21122W        W36931   8.306   9.327   2.441 -0.1920 -0.2691  0.0146
21123W        W36932   4.983  11.679   4.060 -0.0706 -0.1398  0.0771
21124W        W36933   9.005   4.324  11.019 -0.2932  0.2138 -0.0581
21125W        W36934   8.250  18.366   5.442  0.1497  0.1033 -0.2836
21126W        W36935  17.377   1.261  12.849 -0.2762  0.0719 -0.2130
21127W        W36936   3.622  18.788  10.469 -0.5031 -0.0594  0.0268
21128W        W36937  19.032   4.393   5.488 -0.0252 -0.0448  0.1199
21129W        W36938   1.515  18.303   1.793  0.1770  0.0423 -0.0386
21130W        W36939  18.519   5.175   0.808  0.4396  0.0611 -0.1452
21131W        W36940  16.626   9.446  13.010  0.0530  0.0192 -0.2397
21132W        W36941  18.142   8.122   0.528  0.2961 -0.0584 -0.0289
21133W        W36942  14.799   6.246   0.092 -0.2211  0.2171 -0.0693
21134W        W36943  11.191  10.840  13.035 -0.1835  0.0875  0.0953
21135W        W36944  15.874  17.918  10.175  0.0724 -0.0662 -0.3655
21136W        W36945   9.472   6.330  14.178  0.0159 -0.2256 -0.2593
21137W        W36946  12.074   4.429  14.068  0.1159  0.0603  0.3035
21138W        W36947   9.388   5.516   3.708  0.0923 -0.2755 -0.2721
21139W        W36948   0.302   3.367   2.200  0.3438 -0.1175  0.3355
21140W        W36949  15.484  10.062  10.778 -0.0391 -0.1322  0.0085
21141W        W36950  10.895  11.797   1.096 -0.0507  0.1151 -0.1079
21142W        W36951   5.111   7.150  12.900  0.3140 -0.2236 -0.1695
21143W        W36952  13.868   1.292   3.051 -0.2891  0.1669 -0.2388
21144W        W36953   8.547  17.844   0.309  0.0555 -0.2535 -0.0633
21145W        W36954   2.452  13.685  13.968 -0.0349  0.1340  0.2199
21146W        W36955   2.943  14.254   4.994  0.1495  0.0190 -0.3946
21147W        W36956  13.673  10.078  12.515 -0.2039  0.1319  0.0796
21148W        W36957  13.173  14.353   2.126  0.1315  0.0679  0.0799
21149W        W36958   5.697  11.334   1.657 -0.3496  0.2719 -0.2907
21150W        W36959  17.190   4.666   9.976 -0.0928 -0.2247 -0.1846
21151W        W36960   3.728   7.896   2.755 -0.1019 -0.0127  0.1361
21152W        W36961  11.722   7.740   4.576 -0.0147  0.0031 -0.1109
21153W        W36962   8.817  12.301  13.877 -0.2319 -0.3119  0.1535
21154W        W36963  11.416  17.986   6.167 -0.0330  0.2118  0.2254
21155W        W36964  15.926   3.395   2.212  0.1228 -0.1603 -0.0262
21156W        W36965   0.394  18.038  11.573 -0.4412  0.0748  0.1868
21157W        W36966  15.414   5.593  13.553  0.1818 -0.2236  0.0051
21158W        W36967   0.924   7.946  14.375 -0.1367 -0.2457  0.0001
21159W        W36968   9.442   7.024   0.633 -0.0759 -0.0016  0.1664
21160W        W36969  10.237   5.192  10.974 -0.1225 -0.1725  0.2661
21161W        W36970   9.189   4.931  11.532  0.1228  0.0428  0.0315
21162W        W36971   2.088   2.047   1.948  0.0495 -0.0167 -0.0504
21163W        W36972   9.822   3.550  13.784 -0.0926 -0.3520 -0.4091
21164W        W36973  11.652   1.100   5.466 -0.1881  0.0119  0.0702
21165W        W36974   8.561   1.996   3.081  0.1752  0.1828 -0.2146
21166W        W36975   0.793  15.600   1.741  0.1251  0.0406  0.0453
21167W        W36976  17.417   5.434  12.765  0.0867  0.2024  0.0670
21168W        W36977   7.889   2.238  14.625 -0.2793  0.0581 -0.0980
21169W        W36978   3.428  14.606  13.796  0.1459 -0.0082 -0.2221
21170W        W36979   4.299  15.307   4.058 -0.2761 -0.3926  0.1685
21171W        W36980  10.630   1.599   1.665  0.0240  0.0106  0.0959
21172W        W36981   0.218   9.475   4.487 -0.0720 -0.0102 -0.1923
21173W        W36982  10.028   8.050   5.696  0.0605  0.2004  0.0634
21174W        W36983   0.030  10.107   1.218 -0.0911 -0.0504  0.0869
21175W        W36984  13.466   3.669  11.299 -0.2550  0.1818  0.0571
21176W        W36985  13.417   1.161  13.491 -0.1340 -0.1568  0.4378
21177W        W36986   0.485  12.481   3.972  0.1547 -0.1705 -0.1560
21178W        W36987  13.508  17.116  14.097 -0.3818  0.1714 -0.0070
21179W        W36988  17.693   9.389  10.907 -0.3110  0.2209 -0.1594
21180W        W36989   1.688  14.204  14.048 -0.2348  0.1907  0.0329
21181W        W36990   4.221  11.753   5.331 -0.1250  0.0680 -0.2032
21182W        W36991  19.077   3.506   1.408  0.0377 -0.2488 -0.0849
21183W        W36992   0.575   4.841  11.289  0.2188 -0.1283  0.0767
21184W        W36993  10.659   3.017   3.329  0.0162 -0.3973 -0.2795
21185W        W36994  14.766   4.890  14.092 -0.1597  0.2137 -0.1838
21186W        W36995  18.426  16.374   1.011  0.2064  0.0319  0.3152
21187W        W36996  17.333   3.448  13.978  0.0015  0.2652  0.3094
21188W        W36997   2.980  11.165  11.776 -0.1159 -0.2824  0.1052
21189W        W36998  14.484   9.762   1.157  0.2329 -0.0462 -0.0482
21190W        W36999   5.497  12.357   1.478 -0.0149 -0.1783 -0.5398
21191W        W37000   6.934  15.017   0.133  0.1748 -0.3247  0.1351
21192W        W37001  15.736   7.252  11.333 -0.0201 -0.1297  0.0966
21193W        W37002   7.704   2.820   5.396 -0.4453  0.0432  0.2129
21194W        W37003   9.542  18.421   4.689  0.2159  0.0410 -0.2292
21195W        W37004  11.124   1.283  11.182 -0.2570 -0.1255  0.2128
21196W        W37005  14.916   9.283  11.808  0.1371 -0.2141  0.1390
21197W        W37006   6.439  12.075   2.368 -0.2410 -0.0175 -0.2177
21198W        W37007  14.344  10.867  12.537  0.2379 -0.2599 -0.0397
21199W        W37008  13.632   0.651   2.576 -0.1208 -0.2315  0.1851
21200W        W37009  11.371  16.677   1.809  0.1264  0.0224  0.1241
21201W        W37010  12.483  12.477  13.060 -0.1680 -0.0649  0.0048
21202W        W37011  16.189  14.719  13.331 -0.1405 -0.4162 -0.1557
21203W        W37012   5.520   0.287   3.837  0.2403 -0.1709  0.6520
21204W        W37013   6.480   4.448   4.091  0.0914 -0.3949  0.1337
21205W        W37014   2.185   9.189  11.312  0.0493  0.0714  0.1422
21206W        W37015  16.271   2.655  11.234  0.3285  0.4667 -0.1516
21207W        W37016   2.049   6.496   3.553  0.3346 -0.0830 -0.1314
21208W        W37017   6.021  17.888   4.126 -0.1189  0.2112  0.1082
21209W        W37018  19.035   8.026   3.251 -0.1911 -0.1215 -0.2783
21210W        W37019  18.670  13.572   2.011 -0.1219  0.1459  0.0693
21211W        W37020  15.886  17.490   1.837 -0.0018 -0.2046  0.2013
21212W        W37021   0.669  15.174  13.701  0.1634  0.1888 -0.1229
21213W        W37022   1.724  12.053  13.343  0.1054 -0.0359  0.1257
21214W        W37023  10.155  10.211   1.724 -0.2473  0.0485 -0.0160
21215W        W37024  18.097   4.073   1.146  0.2902  0.2081 -0.1254
21216W        W37025  17.788   1.325   4.858 -0.1505  0.1935 -0.0087
21217W        W37026   9.700   2.336   2.966  0.1264 -0.2067  0.2252
21218W        W37027  13.962  10.528  13.708  0.0636  0.4457  0.0910
21219W        W37028   1.335   6.180  10.765  0.0523 -0.1777 -0.2078
21220W        W37029  10.382  19.135   1.556  0.1927  0.1938 -0.0745
21221W        W37030   5.840  11.602   3.491 -0.1404  0.1837 -0.0977
21222W        W37031  13.954   7.702  11.768  0.3201 -0.2158  0.1138
21223W        W37032  12.989  15.413  12.844  0.1663  0.1073 -0.1686
21224W        W37033  13.583  14.311  14.644  0.2841  0.3737 -0.1808
21225W        W37034   5.680   2.018   2.881 -0.1121 -0.1822  0.0767
21226W        W37035   7.456  14.967   2.076 -0.2194 -0.2581 -0.0072
21227W        W37036   0.729   3.090  12.607  0.1618 -0.0555 -0.3378
21228W        W37037   2.660  11.534   1.911 -0.3429 -0.0255  0.3757
21229W        W37038  15.614   8.354   2.937  0.1415 -0.0368 -0.1533
21230W        W37039  11.248  11.964  11.851  0.0531  0.3025  0.2105
21231W        W37040   5.119   0.355  10.183  0.0114 -0.0317 -0.0487
21232W        W37041   6.794  13.275   3.101 -0.3077  0.2053 -0.0571
21233W        W37042   5.140   7.889  13.668  0.0416  0.2342  0.1262
21234W        W37043   9.820  12.211   1.553 -0.1298  0.2049 -0.2116
21235W        W37044  10.651  18.823   2.965 -0.0405 -0.0054  0.0850
21236W        W37045  18.054  10.166   0.497  0.3380  0.3016  0.1951
21237W        W37046   1.690   9.806  13.224  0.2784 -0.0764  0.0572
21238W        W37047  10.053  13.933   3.448 -0.0611 -0.0288 -0.1979
21239W        W37048   7.094  16.837  13.944 -0.0069  0.0525 -0.1166
21240W        W37049   2.807   2.604  10.678  0.0935  0.1250 -0.1554
21241W        W37050  13.243   0.429   2.878 -0.0447 -0.0376  0.0391
21242W        W37051  18.267   6.779  14.430 -0.0955 -0.0056 -0.0816
21243W        W37052  13.913   0.232   4.971 -0.2289 -0.1041 -0.0039
21244W        W37053  17.947   0.023  14.938 -0.0098 -0.1517  0.0237
21245W        W37054   5.573  10.450  13.197  0.1382 -0.0541 -0.0500
21246W        W37055   6.403   9.512   1.911  0.4822  0.0419 -0.0395
21247W        W37056  15.207  16.371   3.649 -0.3289 -0.0780 -0.0601
21248W        W37057   2.154   9.195  15.194 -0.0426  0.1574  0.2110
21249W        W37058   8.467  17.637   3.126 -0.0782 -0.0520 -0.2366
21250W        W37059   8.234   4.829  12.858 -0.2398  0.0689 -0.0106
21251W        W37060   6.178   2.654  13.990 -0.3091  0.2837 -0.1067
21252W        W37061  18.950   3.168  12.588 -0.1935 -0.1185 -0.1048
21253W        W37062   1.161   7.306  14.684 -0.2439 -0.1996 -0.2823
21254W        W37063  13.108  16.494   4.476  0.1849  0.1509  0.2978
21255W        W37064  14.468  14.670   5.222  0.1022  0.1496  0.1172
21256W        W37065  11.451  10.899   5.530  0.2041 -0.1488 -0.0783
21257W        W37066  18.874  18.002  13.236  0.0606  0.0841 -0.0826
21258W        W37067   2.622   3.099  14.255  0.0512  0.3229  0.1476
21259W        W37068   5.112  11.863  11.110 -0.2324  0.0046  0.0603
21260W        W37069  11.778  15.584   4.694 -0.2124 -0.2937  0.0614
21261W        W37070   6.152  10.492   1.687 -0.4844 -0.0025  0.0118
21262W        W37071  11.312   4.315  14.372 -0.1241  0.1281 -0.0860
21263W        W37072   5.945  14.921   3.503 -0.1495  0.0998  0.3073
21264W        W37073  17.514   5.889  10.652 -0.1179  0.2748  0.2537
21265W        W37074   9.914  15.125   9.801  0.1048 -0.2078 -0.1754
21266W        W37075  10.821  13.387  10.127  0.2145  0.0875 -0.2838
21267W        W37076  18.740  13.615   3.167  0.3908  0.5308  0.1590
21268W        W37077   4.714   8.968   3.904 -0.0470 -0.4084 -0.0906
21269W        W37078   6.835  13.084  12.144 -0.1089 -0.2639  0.1768
21270W        W37079  17.001  17.182   1.570 -0.2754 -0.1965 -0.1151
21271W        W37080   0.656   6.856  13.959 -0.0152 -0.1446  0.4222
21272W        W37081   6.922  18.672  10.149  0.0735 -0.0264 -0.0835
21273W        W37082  11.337  17.604  12.227  0.0740  0.3368  0.2431
21274W        W37083   8.655  14.112  14.861 -0.1600 -0.1781  0.1137
21275W        W37084   8.998   1.831  14.230 -0.0672  0.0673  0.0973
21276W        W37085   4.052  10.614  15.244  0.2121 -0.0557  0.1209
21277W        W37086   7.126  16.449  14.258  0.4361  0.1545 -0.1209
21278W        W37087   1.311   8.799   1.985  0.0700 -0.1254 -0.0926
21279W        W37088  11.457  16.828   3.439  0.0850  0.1460  0.0583
21280W        W37089   1.668   6.246   4.678  0.1660  0.3002 -0.2458
21281W        W37090  17.137   4.599   4.634 -0.2997  0.0884  0.2158
21282W        W37091  17.333   9.479   1.950  0.0592  0.1217 -0.0921
21283W        W37092   0.142   4.906   1.946 -0.3593 -0.2211  0.0260
21284W        W37093  15.371   6.269   0.819  0.1826  0.1935 -0.3194
21285W        W37094   7.428  10.791   0.495 -0.0474 -0.1243  0.2892
21286W        W37095  11.836   6.348  12.114 -0.1332 -0.2649 -0.0211
21287W        W37096   5.753  13.613  12.066 -0.0401  0.1245 -0.0219
21288W        W37097   6.899   9.322   2.618  0.3134  0.5750  0.2063
21289W        W37098   0.772  16.350   3.651  0.2042  0.0110  0.1335
21290W        W37099   7.015  12.110   1.709  0.0889  0.3405  0.5084
21291W        W37100   7.464   7.320   4.776 -0.0571 -0.0833 -0.2938
21292W        W37101  18.210  17.796   2.830 -0.0217 -0.2206 -0.0312
21293W        W37102   8.667  12.033  11.634 -0.0390  0.0208 -0.0129
21294W        W37103  17.787   2.804   9.964  0.0111 -0.0610  0.2089
21295W        W37104  11.857  12.690   4.355 -0.2791  0.0959  0.1000
21296W        W37105   5.216   2.547  12.926  0.2789 -0.1852 -0.2361
21297W        W37106   9.778  11.728   1.823 -0.0093  0.1801 -0.3448
21298W        W37107   3.313   0.406  14.487 -0.0358 -0.0186 -0.1356
21299W        W37108  17.116   1.204   1.914  0.1340  0.0162  0.0550
21300W        W37109  15.837  16.173   4.469  0.2796 -0.5334  0.2772
21301W        W37110   6.168   6.732   1.867 -0.0591 -0.2339  0.1611
21302W        W37111   2.458  11.666  14.554 -0.1892  0.1824  0.1479
21303W        W37112   0.158   0.683   4.818  0.5593  0.3242  0.1484
21304W        W37113  13.106  11.119   1.880  0.0260 -0.0710 -0.1075
21305W        W37114   5.723   1.173   3.863  0.1750 -0.1097  0.0216
21306W        W37115   8.151   6.135  13.552 -0.0184 -0.0925  0.0100
21307W        W37116   2.759  18.592   4.151 -0.2085 -0.1146 -0.1031
21308W        W37117  14.356  11.403  14.025 -0.0548  0.3560 -0.2109
21309W        W37118  17.487  18.277   6.116  0.1368  0.1034  0.0652
21310W        W37119  14.571  11.821  14.204 -0.1359  0.0448  0.1855
21311W        W37120  13.310  18.448   1.590  0.3020 -0.6676 -0.0778
21312W        W37121   2.154   2.613   5.006  0.4590 -0.1808 -0.2460
21313W        W37122  12.956  14.223   4.971 -0.0179  0.2943  0.0781
21314W        W37123   2.357   7.574   0.932  0.1449  0.1415 -0.0075
21315W        W37124   4.283   3.872   9.670  0.3328 -0.4251 -0.0348
21316W        W37125  13.147   3.883   1.528  0.1417  0.0791  0.0107
21317W        W37126  18.929   6.830  14.965  0.2318 -0.4985  0.0878
21318W        W37127  14.995   7.838   3.697 -0.1588 -0.0532  0.1351
21319W        W37128   6.543  11.003   4.565  0.0095 -0.2083 -0.0227
21320W        W37129  16.044  18.740   4.953  0.0404  0.0742 -0.4684
21321W        W37130  18.855  11.211   1.115 -0.2100  0.1875  0.0075
21322W        W37131   4.934   0.846   0.847 -0.0369  0.0565  0.2489
21323W        W37132  11.771  16.049  12.665  0.0458 -0.1059  0.0065
21324W        W37133   2.894  15.703   0.342  0.0869  0.0801  0.3721
21325W        W37134  18.441   0.029  14.848 -0.1991 -0.1438  0.0009
21326W        W37135   4.250   2.059   0.728  0.1541 -0.4797 -0.5824
21327W        W37136  17.276  16.580   4.245 -0.2587 -0.0903 -0.0564
21328W        W37137   8.848  12.732   1.468 -0.1633 -0.0365 -0.3184
21329W        W37138  10.809   6.966   1.277 -0.0073  0.1541  0.1640
21330W        W37139  17.241  12.241  12.882 -0.0200  0.0992  0.1390
21331W        W37140   3.672  12.808  14.981  0.1477 -0.2711 -0.3254
21332W        W37141   6.187  13.871  12.085  0.1830 -0.1604  0.3682
21333W        W37142   4.729   4.722  11.050  0.2823 -0.1508 -0.0012
21334W        W37143  15.531   1.794   4.964  0.1221  0.0556  0.0507
21335W        W37144   6.874   8.782   1.001  0.3497 -0.1766  0.1284
21336W        W37145   7.216  19.117   2.486 -0.0415  0.1384  0.2373
21337W        W37146   3.577  10.131  13.977  0.2010 -0.1316 -0.3986
21338W        W37147  10.681   0.462   3.854 -0.0936 -0.3621 -0.0734
21339W        W37148   0.831   1.359  13.812 -0.0037  0.4143 -0.0608
21340W        W37149   5.849   8.604  15.175  0.0797  0.0170  0.3008
21341W        W37150  18.305  17.374  13.331  0.2142 -0.2608 -0.2264
21342W        W37151  18.906   0.283  12.352  0.1952 -0.1515  0.0806
21343W        W37152   4.718   2.665  14.224 -0.1491  0.3079  0.2420
21344W        W37153  17.856   3.795   3.742 -0.0943  0.0387 -0.2030
21345W        W37154   1.814  14.143   1.787 -0.1000  0.0395  0.0402
21346W        W37155  16.617   8.963   3.109  0.1275  0.0836 -0.0032
21347W        W37156   9.498  14.122   4.805 -0.2892 -0.2412 -0.0561
21348W        W37157   5.810   2.218   0.653  0.2290  0.0063 -0.1874
21349W        W37158  17.885  17.241   9.734 -0.2386 -0.1290 -0.0121
21350W        W37159   8.221   1.479  11.720 -0.2034  0.2377  0.0093
21351W        W37160  19.104   4.901  11.987 -0.0807 -0.2941  0.0726
21352W        W37161   6.104   0.383   4.137  0.2979  0.0457 -0.0314
21353W        W37162   4.033  13.866   2.954 -0.1316 -0.0304  0.0051
21354W        W37163   0.405  18.180  15.098  0.3374  0.1028  0.0119
21355W        W37164   3.548   6.477   0.214  0.2155 -0.0058 -0.1303
21356W        W37165  18.461   3.785   2.193  0.4463  0.1773  0.0150
21357W        W37166  13.565   4.683   2.114 -0.1083 -0.1688 -0.4948
21358W        W37167  11.189  10.309  11.836 -0.1090  0.1211 -0.2527
21359W        W37168  17.982  10.127  11.155 -0.0269 -0.0359  0.0166
21360W        W37169   6.266  17.223  10.243 -0.1410 -0.0243  0.3906
21361W        W37170  17.226   5.076   1.115  0.1847  0.0704 -0.2028
21362W        W37171   8.215   3.463   3.235  0.1737 -0.0878 -0.0570
21363W        W37172  12.119  15.551   5.089  0.0592 -0.0056  0.1524
21364W        W37173  17.626  13.055  12.718 -0.0273 -0.1000  0.2008
21365W        W37174   8.202  15.457  11.949 -0.1908  0.0334 -0.0674
21366W        W37175   4.943  17.631  12.148  0.1443  0.0869  0.1257
21367W        W37176   0.656   6.008  11.878 -0.1874 -0.5296 -0.0967
21368W        W37177  13.548   6.459   4.076 -0.1749  0.1155  0.2536
21369W        W37178  14.706  11.728   4.784  0.2038 -0.0322 -0.2836
21370W        W37179  13.322   7.267  11.342 -0.0462  0.3310  0.0286
21371W        W37180   7.546   5.560   2.262  0.4021 -0.0486  0.1495
21372W        W37181   1.825  15.111   0.558 -0.0537  0.2306 -0.0050
21373W        W37182   4.947  14.472   2.958  0.3960 -0.1111 -0.1924
21374W        W37183  17.029   6.096   2.870 -0.1930 -0.0186  0.2144
21375W        W37184  10.106   0.201   0.061 -0.0237 -0.0540 -0.1977
21376W        W37185  13.552   8.818   0.495  0.2102 -0.0741  0.2474
21377W        W37186  17.011   0.211   2.939  0.1166  0.2562  0.4772
21378W        W37187  17.618   8.946  13.709 -0.0228  0.0484 -0.1714
21379W        W37188   4.429   0.963  12.562 -0.0131 -0.4295 -0.2602
21380W        W37189  10.621   8.972  11.976  0.4314  0.0727 -0.2582
21381W        W37190   5.787  16.711   0.245 -0.2801  0.2370  0.1399
21382W        W37191   8.018  13.507   2.841 -0.2357  0.1352  0.1243
21383W        W37192   3.214   2.905  10.683  0.1465 -0.3287  0.0806
21384W        W37193  13.515  18.040   3.363  0.0663  0.1080 -0.1770
21385W        W37194   7.727   2.571   4.952 -0.3469 -0.2742 -0.1346
21386W        W37195  14.174  10.329  13.261 -0.0686  0.1595 -0.0365
21387W        W37196   7.993   9.911   2.605  0.0882 -0.0003  0.2353
21388W        W37197   1.083   8.910   4.908  0.0960  0.1165 -0.1837
21389W        W37198   2.969   8.156   4.512  0.1028  0.0447 -0.0531
21390W        W37199  13.579  14.958  12.856  0.0096 -0.2419  0.0296
21391W        W37200   3.402   1.936   2.497 -0.0091  0.0727  0.0775
21392W        W37201  10.258  18.296   0.035 -0.0781  0.0778 -0.0229
21393W        W37202  16.732   2.371  12.988 -0.1972  0.1909 -0.2181
21394W        W37203  16.761  15.521   3.300  0.1596 -0.0379  0.1906
21395W        W37204   3.354  17.928   3.439 -0.1488  0.1479 -0.0348
21396W        W37205  16.795  18.137   2.732  0.0806 -0.1423 -0.1481
21397W        W37206   0.230  14.988  13.923  0.1204 -0.0836  0.0890
21398W        W37207   1.452  13.501  13.743  0.1004 -0.2163 -0.0630
21399W        W37208   3.204   5.944  11.453 -0.3835 -0.0635 -0.1704
21400W        W37209   6.742  11.919   5.152  0.1295 -0.1530 -0.0774
21401W        W37210   4.278  15.159   0.521  0.0616 -0.0620  0.1857
21402W        W37211   1.524   4.650  11.257 -0.5870  0.4595 -0.0408
21403W        W37212  19.062  12.217  12.855 -0.0624 -0.2025  0.1092
21404W        W37213  11.771  12.245  11.752 -0.0956  0.5356  0.2540
21405W        W37214  14.930  15.932   5.170 -0.1267 -0.2780 -0.0275
21406W        W37215   9.013  17.354   3.946  0.0746 -0.0059  0.0911
21407W        W37216   7.735   2.207  12.573 -0.0442 -0.0299 -0.0087
21408W        W37217   7.611  10.668   2.458 -0.0905  0.1376  0.0567
21409W        W37218   5.425  14.339   0.915 -0.1668  0.0117 -0.0304
21410W        W37219  11.181  15.878   0.439  0.0269 -0.4359  0.0485
21411W        W37220   3.456  17.654   1.141  0.0282  0.2775  0.0073
21412W        W37221   2.173  17.255  14.570  0.0236  0.1258  0.2417
21413W        W37222   3.473  13.593   2.746 -0.0417 -0.2245  0.0738
21414W        W37223  15.363  17.384   4.912 -0.0483  0.2002  0.0891
21415W        W37224   6.098   4.165   3.504  0.1173  0.0297  0.2286
21416W        W37225   0.109   1.663  14.312  0.1197 -0.1579  0.0012
21417W        W37226   0.968  12.611  10.119  0.0718  0.1975 -0.0487
21418W        W37227  13.848   4.590  11.442  0.1284 -0.2474 -0.1694
21419W        W37228   4.834  17.095  11.441  0.0891  0.0641 -0.3633
21420W        W37229   5.287   3.180  11.831  0.0377 -0.3632  0.1827
21421W        W37230  11.574  15.409  15.172 -0.2627 -0.1177 -0.0776
21422W        W37231   2.836   0.395   9.960  0.1330 -0.0118 -0.1633
21423W        W37232   3.016  18.223  14.147 -0.1160  0.5190 -0.2508
21424W        W37233   7.517  10.045   3.598  0.2394 -0.1042  0.3952
21425W        W37234   2.234   5.574  11.875  0.0735 -0.1618 -0.0862
21426W        W37235   3.221  17.498  10.803 -0.0284 -0.1690 -0.2579
21427W        W37236   3.056   3.168  13.375 -0.0282 -0.2620 -0.0221
21428W        W37237  10.775  10.871   9.796  0.0990 -0.1654  0.0570
21429W        W37238   6.172   8.277   3.668  0.0429 -0.0127  0.1464
21430W        W37239  18.992   3.517   0.396 -0.3262  0.0069 -0.1639
21431W        W37240   4.566   2.019  10.534  0.0377  0.2616 -0.1557
21432W        W37241  15.144   1.482  15.246 -0.1407 -0.0688  0.1974
21433W        W37242   9.261  13.152   4.178 -0.0148  0.0057 -0.2842
21434W        W37243   9.288  10.226   4.664 -0.1035 -0.1793 -0.2160
21435W        W37244  13.100   0.043  13.329 -0.1459  0.2974  0.3079
21436W        W37245  11.576  11.599   9.663 -0.2329  0.0207  0.0774
21437W        W37246  16.400   9.864  13.242  0.2480  0.0110  0.0808
21438W        W37247   0.622   9.245   4.317 -0.1139 -0.1066 -0.1357
21439W        W37248   8.641   4.321   3.584 -0.0202  0.2381 -0.2230
21440W        W37249   6.311   1.425   3.636 -0.0345  0.4086  0.0940
21441W        W37250  16.055  10.535   5.033 -0.1426  0.2032 -0.3559
21442W        W37251  16.152  16.339   1.978  0.0763  0.0922  0.0899
21443W        W37252  11.846  17.960   5.833  0.2310 -0.4061  0.1969
21444W        W37253  13.475   5.853   3.364 -0.0300  0.1518 -0.2837
21445W        W37254  15.209   6.019   0.291  0.3052  0.0814 -0.1839
21446W        W37255  11.899   4.060  14.971  0.1756 -0.1043  0.0060
21447W        W37256   3.398   0.519  12.984  0.1102  0.0302 -0.1808
21448W        W37257  10.891   4.002   3.521  0.1080 -0.0008  0.0552
21449W        W37258  15.194   3.632  12.911 -0.0397  0.0762 -0.4095
21450W        W37259   5.184   6.414  15.073  0.0572  0.2472  0.1427
21451W        W37260  12.064  13.365  12.841  0.1212 -0.1203 -0.1329
21452W        W37261   9.465   1.646  14.216  0.0953 -0.1964 -0.4661
21453W        W37262  16.095   9.495  14.207 -0.1205 -0.0174 -0.2282
21454W        W37263  10.134   3.305  11.625  0.2404  0.2723  0.2401
21455W        W37264  15.228   8.254   0.538  0.0691 -0.0517  0.1445
21456W        W37265  12.941  15.977  11.619 -0.1277 -0.3339  0.2492
21457W        W37266  18.729   5.216   4.234  0.1115 -0.4178 -0.1937
21458W        W37267   4.340   3.559  11.753  0.0520 -0.3378 -0.0707
21459W        W37268  11.949   7.442  14.226  0.0992  0.1213 -0.1067
21460W        W37269   7.826  11.808   3.549  0.0369  0.1720  0.1373
21461W        W37270   3.051  17.416   5.484  0.2441 -0.0446  0.2646
21462W        W37271  15.886  10.472  10.924 -0.1954 -0.2107  0.1210
21463W        W37272  10.632  13.533   2.375 -0.0277  0.2405  0.0026
21464W        W37273  17.966  11.050   3.296 -0.0559  0.1727  0.2184
21465W        W37274  10.756  14.108   1.113  0.0819  0.1656 -0.1232
21466W        W37275  14.417   3.261  11.707 -0.0849 -0.0990  0.1608
21467W        W37276   1.611  13.376   3.184  0.0977 -0.3119 -0.1682
21468W        W37277   0.691   6.499  14.430  0.0677 -0.0647  0.1358
21469W        W37278  16.650   6.780   3.366  0.0539 -0.0563 -0.2342
21470W        W37279   2.112   5.633   5.003 -0.3302 -0.1573  0.1855
21471W        W37280   8.439  13.873   9.679  0.1257 -0.1518  0.1724
21472W        W37281  15.210  19.125  13.497 -0.0229  0.0121 -0.1051
21473W        W37282   1.655   4.384   4.205  0.0627 -0.2392 -0.1617
21474W        W37283  15.215  12.369   2.043 -0.3514  0.1501 -0.3650
21475W        W37284  10.771   9.454   4.509 -0.0254 -0.0810 -0.1237
21476W        W37285  10.958  10.361   9.728  0.0759  0.2271 -0.1070
21477W        W37286  11.362   2.173   1.810  0.1550  0.0822 -0.0068
21478W        W37287  18.431  16.467   1.523  0.0414 -0.0936 -0.1999
21479W        W37288  13.139   1.686  14.905  0.0774 -0.1391 -0.1177
21480W        W37289   9.209   1.725  13.781  0.1238 -0.1838 -0.0208
21481W        W37290   5.861   1.975  14.521 -0.2681  0.0453  0.0382
21482W        W37291   2.894   8.667  13.356 -0.3132 -0.2013 -0.1164
21483W        W37292   5.963   8.970  11.798 -0.1027 -0.1407 -0.2979
21484W        W37293   7.160  10.812  10.676  0.1602  0.0098 -0.0780
21485W        W37294   3.259   2.711   0.081 -0.2617 -0.1473 -0.0905
21486W        W37295  16.143   0.558  12.935  0.4133  0.0968  0.0870
21487W        W37296   4.289  10.559   2.909 -0.1454 -0.1519 -0.1793
21488W        W37297   3.345  17.668  11.705 -0.0833  0.0849 -0.2760
21489W        W37298  11.866  10.317   4.696 -0.1759 -0.0902  0.0360
21490W        W37299   3.326  11.837   2.556  0.3334 -0.0213 -0.2599
21491W        W37300  13.272   1.331  11.700 -0.0884  0.1580 -0.3954
21492W        W37301  18.253   7.734  10.837  0.1007 -0.1067 -0.2164
21493W        W37302  12.341  16.494   1.280 -0.0929 -0.1770 -0.1329
21494W        W37303  12.034   7.299   4.348 -0.0598 -0.2297  0.2800
21495W        W37304   5.625  13.555  12.604  0.2024  0.2887  0.1126
21496W        W37305   5.898   1.656   2.590  0.0037  0.0901  0.1352
21497W        W37306   3.645   7.804   1.001  0.0420  0.2171  0.2565
21498W        W37307   4.433   2.376   4.111 -0.0128  0.1298 -0.0649
21499W        W37308  16.523   7.320  12.437 -0.7263 -0.1099  0.2754
21500W        W37309   7.498   5.370   1.787 -0.0905  0.2903 -0.0766
21501W        W37310   5.356  18.972   1.984 -0.0488 -0.0765 -0.0874
21502W        W37311   6.205  19.103  14.881  0.0950  0.0876 -0.2789
21503W        W37312  12.880  11.299  11.102  0.0875  0.2530 -0.0030
21504W        W37313   4.905  13.057   2.576  0.2384 -0.0198  0.0643
21505W        W37314   0.470  15.147  11.856  0.2184  0.1403  0.2892
21506W        W37315  16.827   0.050   3.402 -0.0637  0.0196 -0.0388
21507W        W37316   8.944   3.456  15.255  0.1195  0.1199  0.0962
21508W        W37317  11.366   5.290   3.647 -0.0347 -0.2354  0.0310
21509W        W37318  16.478  13.596   3.733  0.3319  0.1379  0.2545
21510W        W37319   2.799   2.926   2.824  0.0851 -0.0360 -0.1651
21511W        W37320  11.864   4.109  11.866 -0.3561 -0.1785 -0.1264
21512W        W37321  14.307  13.142   1.640  0.0298  0.1055 -0.1685
21513W        W37322  18.484  10.385   4.303  0.0339 -0.0651  0.3633
21514W        W37323  12.492  11.233   4.819 -0.1258  0.1586  0.2109
21515W        W37324   5.527  15.503  10.419 -0.2146  0.0874 -0.1394
21516W        W37325   7.806   0.674   1.656  0.1519  0.0682  0.0641
21517W        W37326  14.757  18.126  14.833 -0.2985  0.0399  0.0987
21518W        W37327  17.658  11.407  14.421  0.2299  0.2158  0.1498
21519W        W37328   4.681   8.535  11.288 -0.0618 -0.1486 -0.1053
21520W        W37329   8.441  14.626   2.869 -0.1007  0.0108  0.1131
21521W        W37330   7.340   7.252  12.887 -0.0374  0.0089 -0.0075
21522W        W37331  15.692   9.682  10.446  0.1050 -0.0476  0.0092
21523W        W37332   7.080   7.680   0.870 -0.3727 -0.4906 -0.2869
21524W        W37333  14.171  13.612   3.886  0.1919 -0.0039 -0.0285
21525W        W37334   3.525  17.509   4.467 -0.0366  0.3419  0.0930
21526W        W37335   1.771   1.104   0.374 -0.0449  0.2385 -0.4313
21527W        W37336  10.537  10.177  10.630  0.5823 -0.2113 -0.1710
21528W        W37337   6.457  16.818   2.431  0.1902  0.0996  0.0820
21529W        W37338   8.645  16.500   3.843  0.0645  0.0786  0.0973
21530W        W37339   6.879  16.801  10.757 -0.1119  0.0723 -0.0379
21531W        W37340   7.208  10.301   4.781  0.3013  0.1518 -0.2482
21532W        W37341  12.605   4.110   2.859  0.2107 -0.0973 -0.1978
21533W        W37342   9.919  18.231   0.624  0.3979  0.2223 -0.0422
21534W        W37343   0.103   3.790   3.963  0.1288  0.3488  0.2685
21535W        W37344   7.627  18.808  14.179 -0.1014  0.1253 -0.0371
21536W        W37345  10.084  12.865   0.779 -0.0643  0.1898  0.3292
21537W        W37346   9.551  17.098  12.534  0.2707 -0.0651 -0.2101
21538W        W37347   1.662   8.031   9.981 -0.2053 -0.2939  0.0277
21539W        W37348   9.050   9.656   1.967 -0.3154 -0.2535 -0.1462
21540W        W37349  10.831   8.440  13.279  0.1063  0.3426  0.4634
21541W        W37350  10.173  14.921  11.348 -0.1837 -0.2219 -0.0645
21542W        W37351   0.427  12.399   6.112 -0.1131 -0.1780 -0.1788
21543W        W37352  18.091   6.019   1.489  0.2202  0.2547 -0.2544
21544W        W37353  15.529   3.442  12.525  0.3177 -0.2477  0.3233
21545W        W37354  17.745  12.384   3.551 -0.4272 -0.0058 -0.2731
21546W        W37355  13.498   8.737   1.873  0.0430 -0.0014  0.0279
21547W        W37356   8.359   5.941  14.581  0.4668 -0.2275  0.1896
21548W        W37357  17.207   2.130   1.815  0.0654  0.1556 -0.0164
21549W        W37358  16.162   6.428  11.717  0.1271  0.1743 -0.5780
21550W        W37359  16.682  18.544   2.226  0.2110  0.0613  0.0733
21551W        W37360  13.275   5.312  10.786  0.1397 -0.3763  0.2322
21552W        W37361  10.497   4.049   1.386 -0.0273 -0.0302  0.0898
21553W        W37362  11.177   0.361   1.083 -0.2832  0.2984  0.1388
21554W        W37363  10.833   2.743   0.204 -0.0026  0.1345 -0.1490
21555W        W37364  18.474  16.546  13.416 -0.0083 -0.0012 -0.0708
21556W        W37365   4.638   4.940  14.863 -0.0883 -0.2568  0.0821
21557W        W37366   1.774   0.149  11.264  0.0033  0.0917  0.1462
21558W        W37367   3.703  17.424  13.863  0.1255  0.1362  0.3117
21559W        W37368  11.824  14.164   4.269  0.1487  0.0843  0.3775
21560W        W37369   4.356  10.667  11.206 -0.0667 -0.1324 -0.0530
21561W        W37370   6.069  14.293   3.088 -0.1178  0.1947 -0.1221
21562W        W37371  16.190   7.602  13.326  0.1570  0.1606  0.0028
21563W        W37372  17.601   7.100   3.632  0.2020  0.0661 -0.2548
21564W        W37373   4.461   7.446  13.067  0.0442  0.0390 -0.0154
21565W        W37374  14.905  10.253  10.582  0.1456  0.1194 -0.2226
21566W        W37375   2.939   4.755  11.467 -0.0732  0.0938  0.1141
21567W        W37376  10.299   4.267  14.115  0.0935 -0.2354 -0.1559
21568W        W37377  12.558   0.532   4.592 -0.0159 -0.3963  0.0049
21569W        W37378  12.689  16.154  14.095 -0.1460  0.0020 -0.1839
21570W        W37379  15.211  13.850  14.415  0.1337  0.1749  0.0151
21571W        W37380  11.753   8.374  10.550 -0.1155  0.0349 -0.0210
21572W        W37381   1.889   1.720   3.067 -0.4603  0.3024 -0.0731
21573W        W37382  10.851   5.916  14.031  0.0144 -0.0190  0.2347
21574W        W37383   4.399  13.490   3.375 -0.2386  0.3984  0.1556
21575W        W37384  11.770  17.659  13.368  0.1097 -0.0886 -0.3509
21576W        W37385   6.792  16.017   2.517 -0.0285  0.0288 -0.3102
21577W        W37386   0.576  16.674  10.583 -0.0091 -0.0101  0.0646
21578W        W37387  12.123  14.538   4.617  0.3611 -0.1419 -0.1589
21579W        W37388   5.589  10.299   3.850 -0.1833 -0.2055  0.2206
21580W        W37389  13.438  16.870  12.880 -0.5139  0.0383  0.1948
21581W        W37390   4.447   7.700  14.076 -0.1604  0.3401  0.2451
21582W        W37391   7.214  15.276  12.125 -0.4685 -0.2357 -0.0561
21583W        W37392   6.834  14.180  12.978  0.1855 -0.2070 -0.0671
21584W        W37393   0.646  12.633   5.302 -0.0929 -0.0766  0.0511
21585W        W37394   5.567   0.354   2.663 -0.1489 -0.1345 -0.1176
21586W        W37395   5.650  16.182   1.039  0.3269  0.3605 -0.0147
21587W        W37396  13.390   7.795  13.511  0.0362 -0.0989 -0.0215
21588W        W37397  10.047   2.700  12.856  0.1087  0.4013  0.2136
21589W        W37398   3.422  18.135  14.421 -0.0758  0.2708  0.1719
21590W        W37399   8.764  15.858   2.012 -0.0828  0.0035  0.0642
21591W        W37400  12.082  15.165  14.128  0.0355 -0.0909  0.1413
21592W        W37401  11.424   3.488  12.185  0.3119  0.1599 -0.3776
21593W        W37402   7.139  15.408   4.761 -0.0536  0.1906  0.1448
21594W        W37403   5.987   4.368  12.758  0.4031 -0.0665 -0.0041
21595W        W37404  12.102  10.935  13.639 -0.0948 -0.1822  0.1734
21596W        W37405   2.308   8.995   2.319  0.2067 -0.1939  0.0357
21597W        W37406   1.681   3.152  12.387  0.4879 -0.0091 -0.2402
21598W        W37407   5.138  12.998  11.809  0.2444  0.0475 -0.0301
21599W        W37408  17.751   1.572  12.991  0.4627 -0.0471 -0.1843
21600W        W37409   9.888  12.960   1.222 -0.1834  0.1046  0.2423
21601W        W37410   9.885  17.130   4.932 -0.2104  0.2668  0.2167
21602W        W37411  15.583  13.164  12.089  0.0299 -0.4111  0.1727
21603W        W37412  16.241   5.874   3.355  0.0948 -0.0810  0.2021
21604W        W37413   3.332   2.533   2.179 -0.0748  0.0851 -0.0296
21605W        W37414  18.740   1.693   1.031  0.2873 -0.2563  0.1079
21606W        W37415  10.810  18.096   0.850  0.2179  0.2600 -0.1501
21607W        W37416  12.626   8.132  15.051 -0.0771 -0.2108  0.0200
21608W        W37417  15.507   1.736  14.985  0.0669  0.1669 -0.1323
21609W        W37418  15.689  13.560  12.937  0.2378 -0.0928  0.0048
21610W        W37419  16.034  11.343   0.956 -0.1533 -0.0990 -0.1015
21611W        W37420   4.006   9.081   4.607  0.0985 -0.1039  0.2310
21612W        W37421   0.694   6.318   1.706  0.0682 -0.0129  0.2451
21613W        W37422  17.926  13.751  13.445  0.0625 -0.0779  0.1184
21614W        W37423  10.397   1.687  12.771 -0.2840  0.1249 -0.0807
21615W        W37424  15.986  17.843  13.909  0.1944 -0.2032 -0.2518
21616W        W37425  17.403   1.689  10.730  0.1039 -0.2167  0.0534
21617W        W37426  10.965  17.205  13.366 -0.1641  0.0715 -0.2426
21618W        W37427   1.939   9.150   4.496 -0.2975  0.3326 -0.0026
21619W        W37428   6.106   4.467  10.952  0.2044  0.0990  0.2766
21620W        W37429   6.859  11.025  11.816  0.2708  0.1301  0.1353
21621W        W37430  14.250   4.119   0.195  0.1032  0.0020 -0.0021
21622W        W37431  11.836   1.089  11.887  0.0473  0.5044  0.1504
21623W        W37432   5.877  16.759   4.628  0.0637  0.1048  0.0343
21624W        W37433   8.299   8.218   3.383  0.1151 -0.1747  0.0477
21625W        W37434  16.293   6.400  10.606  0.3294  0.1668  0.2699
21626W        W37435   8.742   1.139   2.896 -0.0076  0.5019  0.2905
21627W        W37436   6.861  18.258   3.414 -0.0980 -0.1619  0.0112
21628W        W37437   2.253   3.514  10.828  0.0518 -0.2595  0.0949
21629W        W37438  14.699  11.301  12.421 -0.3040  0.1221  0.2391
21630W        W37439   1.928   7.146  13.637  0.2451  0.0605 -0.3716
21631W        W37440   6.155  18.318  10.446 -0.1796  0.0190 -0.0697
21632W        W37441  13.448  10.752   4.751 -0.5055  0.1682 -0.2366
21633W        W37442  11.881   9.774  14.173 -0.4193  0.5278  0.0248
21634W        W37443  18.440  14.736   3.209  0.1198 -0.0196 -0.0470
21635W        W37444  12.014  14.366  14.299  0.1524 -0.3512 -0.0120
21636W        W37445   4.515  16.129  13.736 -0.1741 -0.2062 -0.1316
21637W        W37446  13.318  10.283   4.884  0.1093  0.1334 -0.0681
21638W        W37447   2.311   5.209   0.747  0.0905 -0.0466  0.2865
21639W        W37448  17.636   3.441   3.426 -0.1714  0.0449  0.1884
21640W        W37449  16.986  15.265   3.668 -0.1834 -0.0008 -0.2561
21641W        W37450  16.367   4.811  12.206  0.2108  0.0694 -0.1848
21642W        W37451  19.025   2.718  11.992 -0.0233  0.0888  0.1872
21643W        W37452   9.808   7.812   3.752  0.0959  0.0855 -0.3791
21644W        W37453   0.190  15.358  11.063 -0.0125 -0.1351 -0.0576
21645W        W37454  16.147  14.256  11.361  0.0061  0.1865  0.0761
21646W        W37455   6.433   0.820  12.233 -0.0401  0.0612  0.0680
21647W        W37456  14.851  11.848  15.176  0.3093 -0.1284 -0.1202
21648W        W37457   1.094   0.533   1.946  0.1893  0.1534 -0.1554
21649W        W37458  11.693  16.091  13.155  0.0156  0.1605  0.1509
21650W        W37459  10.505  18.083   1.916  0.0798  0.0591 -0.1744
21651W        W37460  10.399   9.545   0.933 -0.2016 -0.0964 -0.1542
21652W        W37461   6.760  12.440   5.125  0.1455  0.0772  0.4873
21653W        W37462   5.860   7.140  13.304  0.0514  0.2418  0.3216
21654W        W37463   0.014  10.021   3.770 -0.1433 -0.1398 -0.1118
21655W        W37464  11.900   2.892   0.253 -0.1377  0.0173  0.0608
21656W        W37465   7.946  17.245  12.483  0.2327 -0.1471 -0.1256
21657W        W37466   2.793   6.800  11.358  0.2379 -0.1412 -0.2508
21658W        W37467   1.606   9.976   3.906 -0.0324 -0.1810  0.1521
21659W        W37468  18.402   6.599   3.264 -0.0217  0.0995 -0.0049
21660W        W37469   6.507  18.156  13.547 -0.5261  0.2456  0.2494
21661W        W37470  17.211   5.226   4.835  0.1971  0.1137  0.0421
21662W        W37471  16.291  10.147   4.256  0.1675  0.0668  0.2570
21663W        W37472   0.663   5.340   5.006  0.2262  0.0084  0.2426
21664W        W37473   0.144   1.622  12.855  0.1605 -0.2285 -0.0724
21665W        W37474   6.877  17.694   0.185  0.1724  0.1201  0.1241
21666W        W37475  15.254  14.449   2.839 -0.0626  0.2877  0.0804
21667W        W37476  16.312   4.511  11.600  0.0607 -0.2212 -0.1170
21668W        W37477   5.096  12.032   1.432 -0.2949  0.1495 -0.1002
21669W        W37478   1.040  17.543  11.669  0.5255  0.1275 -0.2846
21670W        W37479  18.348  14.499   1.878 -0.1243  0.1558 -0.0533
21671W        W37480   8.398  17.860  10.186  0.0805 -0.4322  0.1046
21672W        W37481   9.528  11.798  12.541 -0.0717  0.2243  0.3494
21673W        W37482  11.203   6.183   2.806  0.0416  0.2879  0.2477
21674W        W37483  17.639  11.694  12.389 -0.0745  0.1768  0.2278
21675W        W37484   2.282   4.810  10.168  0.1344  0.3161  0.1304
21676W        W37485  14.329   0.133  12.223  0.0597 -0.0935 -0.0246
21677W        W37486  18.587   1.331  13.442  0.2303 -0.5296  0.0040
21678W        W37487  11.808   8.143  15.191 -0.0077 -0.3054  0.1315
21679W        W37488   7.715   8.628   5.026  0.0354  0.4180  0.1224
21680W        W37489   8.687   2.827   2.830 -0.0160  0.1123 -0.4291
21681W        W37490  13.900   9.114   4.447  0.2472 -0.1176  0.1968
21682W        W37491   9.739   4.533   1.025  0.0365 -0.2597 -0.0331
21683W        W37492  14.110   3.155   2.377  0.0537  0.0016  0.1530
21684W        W37493   7.494  12.252   3.236 -0.2337 -0.1299 -0.2916
21685W        W37494   0.063   2.400  12.369 -0.1487  0.1591  0.1625
21686W        W37495  16.507  15.458   2.350  0.2183 -0.0156 -0.4312
21687W        W37496   7.278  17.973   2.476  0.1503  0.0848 -0.1739
21688W        W37497   0.116  12.583   4.790  0.0984 -0.0110 -0.1762
21689W        W37498  12.204  11.037  11.921  0.1294  0.2528  0.3129
21690W        W37499   9.688   6.127   2.444 -0.0085 -0.1135 -0.0977
21691W        W37500   0.089  16.800   0.830 -0.0285 -0.0991  0.0019
21692W        W37501   0.035  15.369  11.933 -0.0262 -0.0177 -0.1128
21693W        W37502  10.719  11.967   4.969 -0.0857  0.2215 -0.0513
21694W        W37503   1.791   5.844   3.296 -0.1336  0.1171 -0.1540
21695W        W37504   8.711   6.484   1.665  0.0768  0.2823 -0.0889
21696W        W37505  13.379  14.357   4.540 -0.2346  0.0074 -0.0313
21697W        W37506   0.736   8.781  11.006 -0.0284  0.0309  0.2505
21698W        W37507  17.568  15.575  13.506  0.3297 -0.0176 -0.0570
21699W        W37508  18.473  14.609   5.557  0.1021  0.0759  0.1950
21700W        W37509  17.697   9.406   1.625  0.0443 -0.2857  0.3366
21701W        W37510   0.989   4.702  11.830  0.0365  0.2393 -0.2939
21702W        W37511   7.481  11.802   2.449  0.0368  0.0795 -0.1824
21703W        W37512  11.910  16.008   2.249 -0.0321 -0.3564  0.1454
21704W        W37513  16.458   9.674   4.396  0.0322 -0.1598 -0.0461
21705W        W37514  17.112  10.569   1.378 -0.0766 -0.0973  0.3598
21706W        W37515  13.715   9.226   3.528 -0.1975  0.0899  0.2231
21707W        W37516  18.711   3.413   4.084  0.3205  0.0679  0.0701
21708W        W37517  13.085  15.999   5.064  0.2166  0.1724 -0.1915
21709W        W37518   7.589   5.803  12.447 -0.1703  0.1091 -0.0940
21710W        W37519  11.482   8.005   4.217  0.0637 -0.4259  0.3294
21711W        W37520   5.428   4.784  12.248 -0.0862 -0.1286 -0.2394
21712W        W37521   0.722  17.483   0.997  0.1657  0.0688  0.1478
21713W        W37522  13.443   0.658   3.618 -0.2410 -0.0762 -0.3208
21714W        W37523   2.508  15.404  11.626 -0.0829  0.0721 -0.3780
21715W        W37524   3.705   9.523   2.346 -0.0768  0.1879 -0.2228
21716W        W37525  13.794   2.224  14.203 -0.1887 -0.0236 -0.1637
21717W        W37526   8.451   3.989   1.644 -0.2474  0.4320  0.0689
21718W        W37527   3.688   7.323  14.887  0.3740 -0.2494 -0.0281
21719W        W37528   3.363  13.326  13.434  0.3247 -0.2534 -0.2355
21720W        W37529   9.624  15.157   4.999 -0.4104 -0.2425 -0.2163
21721W        W37530   7.299   4.871  12.667  0.0646 -0.3556  0.0142
21722W        W37531   0.884  16.674  12.681  0.1155 -0.0415  0.0529
21723W        W37532   8.953   1.431  14.948 -0.1248  0.1856  0.0099
21724W        W37533  15.467  15.702  13.717  0.5959 -0.1216 -0.4416
21725W        W37534  12.771  18.993   0.605  0.0632 -0.3624  0.0516
21726W        W37535   4.959  16.958   4.545 -0.0888  0.2527 -0.1328
21727W        W37536   5.956   1.821  15.018  0.2272  0.1360  0.0182
21728W        W37537   2.417  18.147  14.917  0.0157  0.1111  0.1047
21729W        W37538  11.882   2.390   4.425  0.0829  0.1829  0.2653
21730W        W37539  11.592  16.527   3.797  0.2632  0.1098 -0.1282
21731W        W37540   3.812   6.610   4.904  0.1732 -0.2646  0.0187
21732W        W37541   7.315  17.055  12.439 -0.0890 -0.0020  0.0243
21733W        W37542   3.915   3.432  14.560  0.0507  0.0882 -0.0658
21734W        W37543   0.825  17.581   0.413  0.0431  0.0960 -0.1053
21735W        W37544  13.372  14.586   1.747 -0.5254 -0.2765 -0.0357
21736W        W37545  11.644  13.017  14.662 -0.1557  0.2069 -0.3380
21737W        W37546   1.658  11.268   5.641  0.0032  0.1123  0.0846
21738W        W37547   0.500   5.512   0.076  0.3306 -0.2866 -0.0480
21739W        W37548   9.513   3.355  10.989  0.1565 -0.1888  0.2071
21740W        W37549   8.720  10.269   4.607  0.2699 -0.1284  0.0795
21741W        W37550  10.099  19.077   1.999  0.1042  0.0543  0.0619
21742W        W37551   7.987  18.483  13.892  0.1287  0.2291  0.2267
21743W        W37552  15.096   3.100   1.679  0.1045  0.1043  0.2863
21744W        W37553  15.867  14.546   1.922 -0.2634  0.0251  0.2602
21745W        W37554   0.612  15.685   1.168  0.0040  0.2732  0.1364
21746W        W37555  16.503  18.018   3.136  0.3059 -0.1229 -0.1174
21747W        W37556   7.179   1.512   4.833 -0.1219  0.2807 -0.2246
21748W        W37557  10.802   4.988  12.267  0.0112  0.0716 -0.1470
21749W        W37558   1.463  18.705  14.983  0.5318 -0.3834  0.0986
21750W        W37559   7.940  17.973   1.778  0.0801 -0.3221  0.0082
21751W        W37560   6.851   5.368  11.144 -0.0898 -0.3085 -0.3109
21752W        W37561  16.851   8.284   4.674 -0.2065  0.0077  0.3578
21753W        W37562  13.389  13.550   0.927  0.2124  0.1769 -0.0277
21754W        W37563   3.099  11.679  11.752  0.0316 -0.0170 -0.0848
21755W        W37564  14.226   4.159   9.436 -0.2018  0.2512 -0.0883
21756W        W37565  16.743  17.823  10.618  0.1992 -0.0249 -0.2120
21757W        W37566   0.315  13.393  13.745  0.0483  0.2354 -0.0122
21758W        W37567   7.729  10.303   4.666  0.3241 -0.0593 -0.1558
21759W        W37568   0.472  14.825   0.007 -0.1004  0.0308 -0.0851
21760W        W37569  17.577  10.204   0.641 -0.1628 -0.0257 -0.3396
21761W        W37570  14.058   8.274  12.923 -0.0391  0.0122  0.1025
21762W        W37571  16.670   2.319  13.541 -0.0493 -0.0443  0.1375
21763W        W37572   5.325  10.057   3.529  0.2427 -0.0176  0.0244
21764W        W37573  14.623   3.006   0.645  0.0480 -0.0785  0.1707
21765W        W37574   8.049   2.487  15.225  0.3023 -0.2375 -0.0626
21766W        W37575  11.209  13.305  11.631 -0.0338 -0.1221 -0.2098
21767W        W37576   0.283   5.323  12.232 -0.1191  0.1362 -0.0489
21768W        W37577   2.958  16.161  10.362  0.0340  0.3011 -0.0641
21769W        W37578   2.790   4.701  14.547  0.1705 -0.3983  0.0034
21770W        W37579  17.251   7.323   4.809 -0.0334  0.1059 -0.0963
21771W        W37580   8.680   2.869  13.026 -0.2660  0.0109  0.2394
21772W        W37581  11.701   8.747   4.911 -0.0057  0.2612 -0.0039
21773W        W37582  17.624  12.613  11.997 -0.1278  0.0882  0.4656
21774W        W37583   3.263   8.701   2.566  0.0962  0.1477  0.1499
21775W        W37584  14.688  17.540  11.643  0.3988  0.2726  0.1012
21776W        W37585  10.107  13.159   3.068 -0.0929 -0.1966  0.0774
21777W        W37586   0.275   7.459   3.753 -0.2139  0.1078  0.1255
21778W        W37587  17.714   9.923  14.338 -0.2037 -0.0006 -0.0409
21779W        W37588   5.585   9.103   1.867 -0.0173  0.2823 -0.1879
21780W        W37589  18.385   3.756   4.273 -0.1220  0.2631  0.3898
21781W        W37590   8.963   9.879  11.798  0.1428  0.2497 -0.0012
21782W        W37591   8.855   0.313  12.239 -0.0292  0.0433 -0.0038
21783W        W37592   0.639  11.792  13.229 -0.0295  0.0690 -0.4474
21784W        W37593   3.632   5.303  14.784  0.0836  0.2669  0.1586
21785W        W37594   8.455  10.399   5.155  0.0624  0.0775  0.3471
21786W        W37595  18.746  11.193  11.505  0.1122 -0.0337  0.2604
21787W        W37596   0.231   6.520   4.299 -0.0434 -0.1136  0.1923
21788W        W37597   7.051  11.201  11.000 -0.2843  0.5053  0.1985
21789W        W37598   0.394  15.960   3.542  0.1310  0.0558 -0.3077
21790W        W37599   1.396   4.014   1.913 -0.0331  0.0229 -0.4276
21791W        W37600   2.127  15.665   1.880  0.2106 -0.3262 -0.0920
21792W        W37601  10.804  19.010   2.447 -0.1620  0.0172 -0.0876
21793W        W37602  12.910   7.987   5.249  0.0485  0.1706 -0.2014
21794W        W37603  18.408  11.140  13.041  0.2691  0.1968 -0.2736
21795W        W37604   2.845   5.241  14.689  0.1344  0.1644 -0.1811
21796W        W37605   0.073   0.055   9.262  0.2129 -0.1647 -0.1767
21797W        W37606   0.792  13.095  12.800 -0.0210 -0.2535 -0.1410
21798W        W37607   8.837  15.952   5.528 -0.1667  0.2204 -0.2543
21799W        W37608   5.313   2.229   1.445  0.0848  0.2281  0.3851
21800W        W37609  14.318   2.687  12.220 -0.2126  0.0181  0.1676
21801W        W37610  13.336   0.948   4.940 -0.0543  0.0798  0.0942
21802W        W37611   5.892   6.221  13.798  0.2393 -0.1757 -0.2573
21803W        W37612   2.782   2.254  11.154 -0.0485  0.0157  0.1935
21804W        W37613   8.435  13.591  14.785 -0.1427 -0.2396  0.0822
21805W        W37614   5.159  12.458  12.503 -0.0938  0.0016 -0.3457
21806W        W37615   0.928  11.784   2.114  0.0956 -0.0014  0.3473
21807W        W37616   8.610  17.188  11.820 -0.2679 -0.0995 -0.0060
21808W        W37617   2.370   0.691  11.823  0.0141  0.1325 -0.0614
21809W        W37618   3.693  12.746  14.073  0.3916 -0.1637  0.2354
21810W        W37619   4.954   3.957  13.133 -0.4009 -0.0111  0.3091
21811W        W37620   8.174  16.487   3.666 -0.1685  0.1725 -0.0556
21812W        W37621  10.703  15.048   9.529  0.2009 -0.2967 -0.0584
21813W        W37622  17.279  13.018   0.025  0.1805 -0.1559  0.0665
21814W        W37623   4.463  12.345  11.256  0.1372 -0.3376 -0.0536
21815W        W37624  10.575  18.292  11.135 -0.1199 -0.1020  0.0050
21816W        W37625   1.029   1.742  15.014 -0.2862 -0.2688 -0.0764
21817W        W37626   0.941  12.516   6.270  0.2203 -0.0872  0.1876
21818W        W37627  15.623   7.181   0.520  0.1329 -0.0071  0.1136
21819W        W37628  19.055   2.249  10.905  0.0126  0.2270 -0.0777
21820W        W37629   5.138  15.561   4.164  0.1538  0.1337  0.1502
21821W        W37630   4.208   5.540  12.598 -0.0567  0.2736  0.0384
21822W        W37631   4.897  13.043   5.268  0.1695  0.0080 -0.1628
21823W        W37632  18.419   6.664  11.901 -0.2584 -0.1276 -0.2225
21824W        W37633   6.894  17.958  12.431  0.1241 -0.1456 -0.0928
21825W        W37634   7.603   3.093   4.978 -0.0800 -0.2482  0.0566
21826W        W37635   6.337   5.389  11.054 -0.0854 -0.0401 -0.3006
21827W        W37636   6.794  18.482  14.461  0.2343  0.1515  0.1651
21828W        W37637   7.560  13.209  14.602  0.5215  0.0430 -0.1503
21829W        W37638   1.114   2.512  10.831  0.1643  0.0116  0.0701
21830W        W37639   2.391  16.497   0.254  0.3020  0.0119 -0.1434
21831W        W37640   3.533  17.554  14.393 -0.0003 -0.3091 -0.2105
21832W        W37641   5.446   7.954  11.366 -0.2729  0.2174 -0.3311
21833W        W37642  14.683   5.597  13.879 -0.2047  0.0299  0.2952
21834W        W37643   8.374  17.129  14.635 -0.2354  0.0049  0.3029
21835W        W37644  12.407   0.677   3.481 -0.0415 -0.0762 -0.0058
21836W        W37645   5.484   4.283  12.147 -0.0687  0.0156  0.2289
21837W        W37646  11.486  16.613   1.262 -0.3325 -0.3123  0.2054
21838W        W37647   7.534  15.961   2.026  0.0680  0.0042  0.0297
21839W        W37648  13.108   8.080   0.688  0.2830 -0.2060  0.1289
21840W        W37649   1.261  15.613   2.056  0.0163  0.1652  0.2431
21841W        W37650  18.365   8.706  11.221 -0.1858  0.3780  0.1979
21842W        W37651  12.570   0.826   1.211  0.0188  0.1966  0.0696
21843W        W37652  17.689  16.029   3.409  0.2713  0.0224 -0.3061
21844W        W37653   2.730  18.366  12.786 -0.0159 -0.3175  0.2547
21845W        W37654   2.875  11.427   5.397 -0.0341 -0.0176  0.2503
21846W        W37655   1.221   0.356   3.300 -0.0245  0.0801 -0.1054
21847W        W37656  10.767   9.233   4.012  0.0826 -0.0150  0.2898
21848W        W37657  18.654  13.459  11.762 -0.1312 -0.3278 -0.0372
21849W        W37658   7.334  17.227   5.473  0.2723 -0.1206  0.3914
21850W        W37659  14.609   5.775   4.628 -0.0726 -0.0852  0.2429
21851W        W37660  16.550   8.010   3.203  0.1774 -0.0982 -0.0589
21852W        W37661   2.058   7.182   2.715 -0.1399 -0.0546  0.1892
21853W        W37662   5.491   1.616   3.942  0.1273  0.1737 -0.1094
21854W        W37663  13.463  12.101  14.539  0.4848  0.2882 -0.0664
21855W        W37664  13.281  17.989  14.007 -0.0247 -0.2604 -0.0782
21856W        W37665   6.782   9.221   0.519 -0.0826  0.2860  0.0806
21857W        W37666  17.706   6.180  11.102 -0.0964 -0.0650  0.0760
21858W        W37667   8.847  11.664   3.427  0.1013  0.1340  0.1142
21859W        W37668   7.055   2.218   0.569 -0.0927  0.1149  0.2796
21860W        W37669  12.767  18.642   9.828 -0.0717 -0.0256  0.0607
21861W        W37670  17.885   2.859   1.467  0.1881  0.0630 -0.0298
21862W        W37671   6.704  17.731  10.059  0.1365 -0.1347 -0.1235
21863W        W37672   5.967   4.527  14.768 -0.1299  0.0705 -0.0760
21864W        W37673   0.064  17.658  13.488 -0.2745 -0.0449 -0.0440
21865W        W37674   3.579   3.273  12.447 -0.0523 -0.0744  0.2634
21866W        W37675   6.860   1.768  11.617  0.1116 -0.0597 -0.0236
21867W        W37676   9.663   8.434  11.774 -0.0175  0.1392  0.1902
21868W        W37677   2.002   7.957  12.550  0.0063  0.1480  0.1436
21869W        W37678   1.385   2.770  14.888 -0.1710  0.0767 -0.0303
21870W        W37679   9.618  15.367   3.019 -0.1588 -0.2116  0.1634
21871W        W37680  10.407   2.622   3.583  0.0329 -0.1929 -0.3048
21872W        W37681  16.690   5.481   4.845  0.0027  0.0464 -0.2084
21873W        W37682   9.027   5.487  15.093  0.1053 -0.2124 -0.2173
21874W        W37683   2.544   8.015   5.215  0.2463 -0.0909 -0.2098
21875W        W37684  14.279  17.647   2.258 -0.1798 -0.2142 -0.1291
21876W        W37685  13.069   2.072  14.016  0.0458  0.0536 -0.1385
21877W        W37686  17.548   5.070  13.244 -0.0923 -0.3597  0.1676
21878W        W37687  12.527  17.337   3.006  0.1088 -0.0149 -0.4965
21879W        W37688   7.212   9.241   0.792 -0.2806 -0.0796  0.1056
21880W        W37689  17.564  14.488   3.566 -0.2338  0.2791 -0.0606
21881W        W37690  15.433   1.995   9.379  0.0921 -0.1024  0.1229
21882W        W37691   9.318   7.964   2.694 -0.0284  0.1313  0.0103
21883W        W37692   9.497   6.885   3.045  0.1118 -0.4029 -0.0304
21884W        W37693  11.467   4.775  11.024 -0.0055 -0.1504 -0.1425
21885W        W37694   7.423   5.888   0.232 -0.1914  0.3803 -0.1842
21886W        W37695   6.289   8.601  11.879 -0.1766  0.0530  0.4689
21887W        W37696   1.689  15.457   1.274  0.5374 -0.2964 -0.4005
21888W        W37697  17.472  10.606  10.931 -0.0844 -0.0897 -0.4228
21889W        W37698  18.568  19.046  11.097 -0.3136 -0.3280 -0.1335
21890W        W37699  16.010  12.147  10.829  0.3411 -0.1768 -0.1091
21891W        W37700  15.032   2.673   5.751  0.1148 -0.0028 -0.0793
21892W        W37701   8.479   0.323  15.071 -0.0768  0.1077 -0.4083
21893W        W37702   3.064  14.087  11.134  0.3441 -0.3484  0.4048
21894W        W37703   8.525   0.174  13.946  0.1336 -0.0438 -0.0155
21895W        W37704  12.633  13.227  11.513  0.2020  0.2866  0.2752
21896W        W37705   2.610   5.923  10.815  0.1507 -0.0115  0.1171
21897W        W37706  15.684  16.462   0.539 -0.3760 -0.5305  0.1435
21898W        W37707   6.759  15.932   3.490 -0.0706 -0.0320 -0.2320
21899W        W37708  13.449   6.514  12.228  0.3484 -0.1668  0.1615
21900W        W37709  13.746   0.084  11.335  0.1914  0.0288 -0.1362
21901W        W37710   8.718   0.985  13.563  0.1394 -0.1438  0.3212
21902W        W37711   2.518   6.357   4.418 -0.1929 -0.4646  0.2250
21903W        W37712  10.746  11.059  12.097 -0.5368  0.3280  0.1091
21904W        W37713   5.192  15.606  10.911 -0.0902  0.1065  0.0430
21905W        W37714  16.336   3.126  10.414 -0.3916  0.3999 -0.2185
21906W        W37715   7.103  16.076  13.897  0.1654  0.0461 -0.0122
21907W        W37716   1.639   4.744  12.794  0.5006  0.1313  0.2401
21908W        W37717  17.480   8.851   0.075  0.0768 -0.2091 -0.0441
21909W        W37718   2.903  18.323  11.303  0.2776 -0.2111 -0.1607
21910W        W37719  14.277   2.329   4.022 -0.1406  0.0426 -0.0956
21911W        W37720   4.648   6.571   0.991 -0.1661  0.0079 -0.3157
21912W        W37721   3.784   0.023   5.188  0.0825 -0.2036 -0.0721
21913W        W37722  11.514   3.782   0.569 -0.2633 -0.1169  0.1967
21914W        W37723   2.680  17.788   3.837 -0.0225  0.0214  0.1042
21915W        W37724   4.711  13.580   9.840  0.0107  0.1279 -0.0767
21916W        W37725   5.545  16.450   4.869 -0.2215  0.3145  0.2196
21917W        W37726  13.974   0.252   3.294 -0.0739  0.0764 -0.0692
21918W        W37727  10.374  12.866   3.410 -0.2955  0.2758 -0.0267
21919W        W37728  16.305   2.269   0.751 -0.4086  0.1175 -0.0280
21920W        W37729  18.401  11.641  13.246  0.0771 -0.1220  0.0020
21921W        W37730  16.402   9.456   3.837 -0.1321  0.0387  0.1506
21922W        W37731   3.706  11.712  14.090  0.0316 -0.0014 -0.0774
21923W        W37732  17.355   1.775  10.210  0.2075 -0.2909 -0.2155
21924W        W37733  14.035  14.229  11.267 -0.0169  0.1235  0.2141
21925W        W37734  16.131   2.995   1.441  0.2088 -0.0017 -0.1897
21926W        W37735   2.197  17.108  12.942 -0.0410  0.0830  0.1396
21927W        W37736   0.807   7.613  14.729  0.0721 -0.5966  0.1928
21928W        W37737   5.866  10.747  10.667  0.2933  0.1057 -0.3342
21929W        W37738   3.835   4.770   4.294 -0.1365 -0.4418 -0.0569
21930W        W37739   6.916   6.961  14.952  0.1223 -0.4578 -0.2854
21931W        W37740  18.800   8.013  13.839 -0.0341 -0.3352 -0.1309
21932W        W37741  12.035  11.218  12.354  0.1033  0.0528  0.2069
21933W        W37742  11.948   5.141  12.856 -0.1238 -0.3526  0.3324
21934W        W37743  18.289  11.255  10.674  0.2677 -0.3756  0.1930
21935W        W37744  10.537  13.212  14.719  0.0955  0.0779 -0.0098
21936W        W37745  17.745   6.027  14.875 -0.4067  0.3441  0.2289
21937W        W37746  12.566   0.171  14.280 -0.1825 -0.2874  0.0435
21938W        W37747   3.954   2.193   4.306  0.0324 -0.2296 -0.1860
21939W        W37748   0.530  12.272  14.961  0.1384 -0.0584 -0.0007
21940W        W37749   2.461   8.279   0.798  0.2765  0.0563 -0.1528
21941W        W37750  12.863   6.451  13.339  0.3014 -0.1937  0.0840
21942W        W37751   5.343   3.638   2.419 -0.3512  0.0151 -0.3074
21943W        W37752  15.144  12.032   0.298  0.2107 -0.0707  0.1462
21944W        W37753  14.855   7.552   1.826  0.0373 -0.1382  0.2351
21945W        W37754  10.876  16.495  10.672 -0.3669  0.1871 -0.2036
21946W        W37755   4.830   1.985   1.313 -0.2150  0.2390  0.2379
21947W        W37756   8.715  11.382  10.184 -0.0720 -0.0527  0.1636
21948W        W37757   5.204  13.784  11.797  0.0762 -0.2010 -0.0048
21949W        W37758   6.678  14.540  12.013 -0.2452 -0.0738  0.0933
21950W        W37759  12.447  11.884  12.959 -0.1761 -0.3424  0.2026
21951W        W37760   5.835   3.175  13.159  0.2900  0.0052  0.0601
21952W        W37761  12.638   6.459  11.249  0.2476 -0.1626  0.1679
21953W        W37762   9.406  13.430   0.499 -0.1104  0.2027  0.0097
21954W        W37763   5.156  14.880   0.943 -0.1628  0.1098 -0.2536
21955W        W37764  14.890   5.183  12.578  0.0788 -0.4910  0.1521
21956W        W37765  14.553   9.028   3.202 -0.1296 -0.0645  0.0594
21957W        W37766   9.120   0.337   4.038  0.3034  0.1472 -0.1053
21958W        W37767   9.149  12.769   4.635 -0.0246 -0.3500  0.0109
21959W        W37768  11.124  12.046   3.361  0.0252 -0.2593  0.0067
21960W        W37769  18.106   2.788  14.546  0.0079 -0.1568  0.1681
21961W        W37770  14.172  15.161   5.424  0.0926 -0.4547  0.2974
21962W        W37771  10.806  14.527   3.293 -0.2618  0.1125 -0.0069
21963W        W37772   1.755  18.911  11.987 -0.0601  0.1961  0.0586
21964W        W37773  17.667  18.618  14.246 -0.1030  0.1013  0.1539
21965W        W37774   0.480  11.349  10.271  0.2378 -0.0351 -0.2034
21966W        W37775  13.410  15.587   1.542 -0.0824  0.2027 -0.3532
21967W        W37776  18.863   2.612  10.564  0.2187 -0.2558 -0.0664
21968W        W37777  16.110  13.892  13.133  0.1283  0.0159  0.0049
21969W        W37778  12.996   3.622  12.497 -0.1187  0.2229  0.2598
21970W        W37779   4.613   2.695   4.699  0.2064 -0.1550 -0.2449
21971W        W37780   8.510   0.226  13.104 -0.0974  0.0419 -0.4116
21972W        W37781   6.957   2.477   4.452  0.3069 -0.0733 -0.0246
21973W        W37782  17.083  12.219   4.006 -0.0210 -0.0560 -0.0170
21974W        W37783  10.736   4.261   4.614 -0.0725 -0.0376  0.4725
21975W        W37784   8.574  12.337   5.222  0.3781 -0.2530 -0.1086
21976W        W37785  16.923  19.115  12.974  0.0222 -0.1679  0.0980
21977W        W37786   3.949  13.578   4.945 -0.1262 -0.1907  0.1970
21978W        W37787   4.562  18.818   9.112  0.0319 -0.1983  0.1161
21979W        W37788   5.016  13.185   2.111 -0.1731 -0.1978 -0.1592
21980W        W37789   6.242  12.930   4.665 -0.2175 -0.2612  0.0406
21981W        W37790   5.164  13.792  11.267  0.0695 -0.3613 -0.2605
21982W        W37791  14.862   7.635   3.306  0.4667 -0.1237  0.2569
21983W        W37792   8.722   6.576   4.431  0.0439  0.0672 -0.0597
21984W        W37793  15.913   1.887  14.713  0.0824 -0.1264 -0.2099
21985W        W37794   0.506  16.777   2.316  0.1033  0.2519  0.2901
21986W        W37795  10.474  14.229   0.738 -0.1667  0.1610 -0.1180
21987W        W37796  12.700   7.598   5.066  0.2033  0.2117  0.1985
21988W        W37797   2.647   6.368   0.328  0.0387 -0.0372  0.1047
21989W        W37798   4.533  11.014   3.067  0.0480 -0.2478  0.0632
21990W        W37799  16.475  13.597   0.262 -0.4117 -0.1683  0.0715
21991W        W37800   7.722  15.125   3.375 -0.1666 -0.2133  0.2420
21992W        W37801   8.244  17.591  14.291  0.0066 -0.2665  0.0982
21993W        W37802  14.987   7.229  12.765  0.2154 -0.2658  0.2492
21994W        W37803   4.344   8.480  14.599  0.1407  0.1835  0.3157
21995W        W37804  17.169   6.053   3.826  0.2294 -0.0486  0.1574
21996W        W37805   6.045   0.124   3.657  0.1123 -0.1444 -0.0422
21997W        W37806  14.489  19.073  14.635 -0.0021  0.0407  0.0290
21998W        W37807  17.611   7.039   1.153  0.1123  0.1948  0.2969
21999W        W37808   5.114   0.020  14.015 -0.1804 -0.2126 -0.1428
22000W        W37809   2.542  14.294   5.294  0.0140  0.1492  0.1846
22001W        W37810  18.720  14.188   5.292 -0.3799  0.1440  0.0494
22002W        W37811  11.374  14.518   4.139  0.1648  0.0653  0.0826
22003W        W37812  11.799  12.098  15.096 -0.0638 -0.1266 -0.0079
22004W        W37813   8.706   4.091  11.884  0.2409  0.2044 -0.0499
22005W        W37814   9.725   6.982  13.795  0.0383  0.4259  0.1416
22006W        W37815   2.668  12.581   1.998  0.1199  0.0647 -0.2054
22007W        W37816  16.970  15.949   4.703  0.3728  0.0913 -0.1075
22008W        W37817   8.086  16.752   5.051 -0.1118  0.0959  0.0579
22009W        W37818  17.356   7.696   1.603 -0.3138 -0.3546  0.0652
22010W        W37819   9.292  15.947  13.947  0.1668  0.0757  0.1431
22011W        W37820  18.362   8.898  15.096  0.1985 -0.0731  0.0010
22012W        W37821   6.710   0.028   3.633 -0.1791 -0.3423 -0.0570
22013W        W37822   6.649   4.297   4.547 -0.1851  0.2126 -0.1255
22014W        W37823  11.438   7.782  15.227  0.2659 -0.0039  0.1593
22015W        W37824   1.999  18.107   2.303 -0.1362  0.0058  0.1749
22016W        W37825  18.427   6.049   3.244  0.2106 -0.0152 -0.0883
22017W        W37826  12.941  17.382  10.012 -0.0818  0.4654  0.0013
22018W        W37827  12.205  10.093  13.476  0.2754 -0.0952 -0.1913
22019W        W37828   7.241  14.163  13.687  0.0132  0.0292  0.0448
22020W        W37829   3.357  15.821  12.184 -0.0488  0.0525  0.2754
22021W        W37830   1.118  19.005   2.357  0.0250 -0.1404 -0.1087
22022W        W37831   9.692   5.541   1.401  0.0287  0.0742  0.0111
22023W        W37832  15.236  13.542   0.724 -0.1042  0.1088  0.2030
22024W        W37833  15.002  16.659   5.421 -0.1307  0.3085  0.3300
22025W        W37834  11.988   1.897   4.252  0.1071  0.2770 -0.1589
22026W        W37835  14.782  18.946  13.869  0.0416  0.4012  0.1477
22027W        W37836   0.881  17.681   3.689 -0.2354 -0.0334  0.1609
22028W        W37837  12.972  14.343  15.092 -0.2326 -0.0609 -0.1320
22029W        W37838  17.998   7.825  11.243 -0.2525  0.0214 -0.1439
22030W        W37839   0.405  18.297   2.458  0.0197  0.0571 -0.1302
22031W        W37840   6.722  12.759  10.700 -0.2826 -0.0548 -0.0731
22032W        W37841   0.840   9.470  13.880  0.0118  0.1528 -0.4503
22033W        W37842  14.013  13.327  14.435  0.1704  0.2971  0.1583
22034W        W37843   3.999   3.735   5.241 -0.4941 -0.0306  0.2815
22035W        W37844   1.819   5.771   0.214  0.0178 -0.0376 -0.0415
22036W        W37845   3.237   4.897  14.745 -0.2577 -0.3846  0.2461
22037W        W37846  17.762   0.843  11.444  0.0414 -0.1881  0.2315
22038W        W37847   6.023  17.813   3.220  0.0088  0.2755 -0.0831
22039W        W37848  15.233   1.477  13.173 -0.3171 -0.5074 -0.1300
22040W        W37849   1.542  11.049   3.408  0.2323 -0.3388  0.2847
22041W        W37850  16.494   6.796   2.253  0.1155  0.0144  0.1349
22042W        W37851   1.340   9.103  10.709  0.0434  0.1018 -0.1098
22043W        W37852   7.808   8.070  14.786 -0.1469 -0.4026  0.1507
22044W        W37853  12.008   5.662   5.177 -0.2274 -0.2885 -0.2115
22045W        W37854  14.678  16.434  12.146  0.2521 -0.0930 -0.5632
22046W        W37855  16.657   5.815   3.060 -0.0967  0.0774  0.4462
22047W        W37856   0.678   0.698  13.026 -0.0084  0.1515 -0.1099
22048W        W37857   7.466   5.303  11.398 -0.1427 -0.1979 -0.2606
22049W        W37858   2.928  15.750  11.741  0.1621  0.3883  0.0045
22050W        W37859   8.142  11.619   0.470  0.0131  0.1372 -0.0270
22051W        W37860  16.031   1.289   0.758  0.0092  0.0519 -0.0896
22052W        W37861   4.478  18.448   1.838  0.2609 -0.2235  0.0592
22053W        W37862   6.338  18.696   4.080 -0.0896  0.3154 -0.0253
22054W        W37863  15.225  10.964   3.675 -0.1714 -0.1742  0.0432
22055W        W37864  11.965   9.910   0.393 -0.1986 -0.1103 -0.3539
22056W        W37865   8.907   0.500  11.614  0.0446 -0.1030 -0.1843
22057W        W37866  12.786   2.002  13.131  0.1872  0.0758  0.4282
22058W        W37867  15.547   6.827   2.506 -0.2734 -0.1690 -0.0702
22059W        W37868   4.008   4.293  14.787  0.2566  0.1199 -0.0154
22060W        W37869  14.196   8.587  14.113 -0.1628  0.3701 -0.1169
22061W        W37870   5.068   7.572   2.689  0.3731 -0.0684  0.0691
22062W        W37871   7.235   7.858  14.083 -0.0376  0.4144  0.1140
22063W        W37872   8.768   0.668  12.672 -0.1797 -0.0806 -0.3733
22064W        W37873  18.266   5.787  10.406  0.1327 -0.3824  0.0008
22065W        W37874  15.245   4.004   4.353 -0.0229  0.1542  0.0176
22066W        W37875  12.306   6.858   0.453  0.3685 -0.0013 -0.1990
22067W        W37876   6.651  13.416   0.609  0.4311 -0.4119 -0.1430
22068W        W37877   9.849  11.248  15.153 -0.1769  0.0093  0.2754
22069W        W37878  17.957   8.018  12.953 -0.1234  0.0915  0.1161
22070W        W37879   7.578   3.476  14.986  0.3963  0.0907 -0.0976
22071W        W37880  16.841   7.140   3.696  0.0545 -0.0077  0.0002
22072W        W37881   2.360   9.909  14.741 -0.0774 -0.0174 -0.3958
22073W        W37882  12.659  16.310   4.185 -0.1877 -0.3135  0.0339
22074W        W37883   7.615   0.788   3.182  0.0122 -0.1634  0.2175
22075W        W37884  12.406  11.684   4.659 -0.0320 -0.0644  0.0657
22076W        W37885  14.282   2.753   1.946  0.0342  0.2807 -0.0893
22077W        W37886   7.322  12.579  12.952  0.0686  0.2143  0.0688
22078W        W37887  12.096   8.112   0.684 -0.3855  0.2235 -0.1081
22079W        W37888   1.704   8.423   4.893  0.3147 -0.2213  0.1474
22080W        W37889  15.781  12.371   2.159  0.2373  0.1084 -0.0780
22081W        W37890   6.556   9.554  11.820 -0.0188 -0.0965  0.0185
22082W        W37891  19.022   4.254   3.919  0.0807 -0.0914  0.0330
22083W        W37892  10.497  13.926   3.218  0.2755 -0.1254 -0.2481
22084W        W37893   6.180  15.341  11.455 -0.0681 -0.0314  0.0188
22085W        W37894   6.045  15.401   3.786 -0.0219  0.3250 -0.1572
22086W        W37895   9.031   6.492  14.037  0.0344  0.0010 -0.0183
22087W        W37896   0.109   7.277  11.980 -0.0220  0.0155 -0.1469
22088W        W37897   9.067  10.978   2.832 -0.0332 -0.1711 -0.1198
22089W        W37898  13.384   7.525   0.882  0.0924 -0.1151 -0.1351
22090W        W37899   3.615  11.232  13.802  0.2012 -0.2830 -0.0891
22091W        W37900   2.024   6.218  15.175 -0.1008  0.3158 -0.2025
22092W        W37901   5.721   7.468  13.740  0.0943  0.0940  0.2105
22093W        W37902  13.600  10.200  11.784  0.1176  0.0516  0.0249
22094W        W37903  14.969   8.672  11.841 -0.1958 -0.2556  0.0425
22095W        W37904  14.803   0.790   0.026 -0.2688  0.3090  0.0882
22096W        W37905  14.444   2.288  11.811  0.0517  0.0148  0.1835
22097W        W37906   7.694   2.723   2.656  0.2364  0.0989 -0.0725
22098W        W37907  13.608  18.684  14.733 -0.1616 -0.1796 -0.0239
22099W        W37908  15.908   9.088  11.583 -0.1092  0.4047 -0.2130
22100W        W37909  15.946   1.620   4.369  0.0532  0.2494 -0.0489
22101W        W37910  18.164  14.291   5.864 -0.1025 -0.0239  0.2291
22102W        W37911   8.345  10.260   2.360 -0.0645  0.1144  0.1876
22103W        W37912   6.527   5.426  11.995  0.0473  0.0013 -0.1553
22104W        W37913   6.445   6.103  12.506 -0.0642  0.2611  0.0792
22105W        W37914   9.030   7.931   4.015  0.3473  0.0739 -0.1191
22106W        W37915   1.151   4.178   3.232 -0.0508 -0.4616 -0.0720
22107W        W37916   3.355   5.874  13.694  0.3641  0.0835 -0.0216
22108W        W37917   1.387   2.310   3.869  0.0082 -0.3906 -0.2410
22109W        W37918  12.337   2.771   4.516  0.0150 -0.3323 -0.0313
22110W        W37919  13.632  18.669   4.105  0.0084  0.2545  0.0856
22111W        W37920  14.380  15.697   1.764  0.1297 -0.2004 -0.1364
22112W        W37921  11.995  15.574   3.881 -0.3022 -0.1127 -0.2077
22113W        W37922  11.213  11.156  15.169  0.3042 -0.2289  0.2222
22114W        W37923  15.769   4.949   3.561  0.0366 -0.2664 -0.2068
22115W        W37924  12.871   0.161   4.433  0.0718 -0.0644 -0.0407
22116W        W37925   8.541  15.452  14.049  0.3395 -0.0671  0.1678
22117W        W37926  17.779   7.413   4.726  0.1194 -0.2423 -0.0867
22118W        W37927   4.969  15.012  13.721  0.0937  0.0937  0.1552
22119W        W37928   7.951   6.487  11.160 -0.0814 -0.0896  0.2191
22120W        W37929   6.218  12.244   1.145 -0.0139  0.0489  0.0902
22121W        W37930   5.237   7.350   4.417 -0.1879  0.3257 -0.0159
22122W        W37931   0.356  17.710   4.124  0.3868  0.0565 -0.0736
22123W        W37932   5.387  16.509   0.460 -0.4787  0.4253 -0.3199
22124W        W37933  13.286  13.484   1.609  0.1617  0.1185 -0.1620
22125W        W37934  16.526  16.683  11.625 -0.3046  0.1109 -0.1158
22126W        W37935  18.786  16.380  14.577  0.5110 -0.1227 -0.0338
22127W        W37936  16.160   9.448  13.060 -0.3994  0.2451  0.1340
22128W        W37937   2.425  11.868  14.055 -0.1067  0.1109  0.0037
22129W        W37938  10.285  18.108  14.138 -0.1831 -0.2004 -0.2803
22130W        W37939   7.671   6.856   2.798  0.2215  0.1880 -0.1153
22131W        W37940   4.324  13.814   0.193 -0.0225  0.1968 -0.1051
22132W        W37941   1.220  17.752  12.379  0.1205 -0.3151  0.2643
22133W        W37942   4.031  16.858  10.112  0.0595 -0.1657  0.2480
22134W        W37943  18.053  15.281   4.119  0.1957  0.1497 -0.0126
22135W        W37944   6.708   0.502  14.466 -0.1894 -0.0588  0.3693
22136W        W37945  18.566   3.560   1.122  0.1198  0.0003 -0.1407
22137W        W37946  15.770   7.467   2.384 -0.0335 -0.0610  0.0523
22138W        W37947   0.951  14.838  15.068 -0.0878 -0.1195  0.0123
22139W        W37948   2.147   9.773   3.003 -0.1162 -0.3460  0.1106
22140W        W37949   7.027  15.475   0.938 -0.2075 -0.0837  0.2427
22141W        W37950   8.787  10.142   2.109 -0.1857 -0.0879  0.0322
22142W        W37951  13.434   1.035   2.792  0.0337 -0.0270 -0.2299
22143W        W37952   5.528   5.225  12.872 -0.1941  0.2295 -0.3944
22144W        W37953   7.592  17.419  10.584  0.0466 -0.0718  0.0040
22145W        W37954   7.330   1.778  14.195 -0.1472  0.0952  0.2151
22146W        W37955   4.047   1.111  15.253  0.1610 -0.4226 -0.0150
22147W        W37956   8.195  10.436  14.085 -0.1232 -0.0678  0.2332
22148W        W37957   0.147   3.681  14.267 -0.4292 -0.1446 -0.0184
22149W        W37958   9.044   2.223   3.990  0.2149  0.1413  0.0336
22150W        W37959  18.907  12.979  11.588 -0.3442  0.2599 -0.3345
22151W        W37960  16.689  14.973   1.537  0.3116  0.1250 -0.1800
22152W        W37961  18.515   7.290  10.960 -0.2775 -0.0676 -0.4095
22153W        W37962  11.255   4.757   0.698 -0.0315 -0.0259  0.1285
22154W        W37963  15.873   0.785   0.747 -0.1504  0.1093 -0.2232
22155W        W37964  16.158   5.999   5.814 -0.0676 -0.6151 -0.1777
22156W        W37965   7.771   1.989  11.687 -0.5848  0.0094 -0.1018
22157W        W37966   6.237  17.363  11.479 -0.4026  0.1721 -0.2812
22158W        W37967   9.827   5.534  13.942 -0.1887 -0.0113 -0.1739
22159W        W37968  10.450   7.275  11.256 -0.1332 -0.0856 -0.1493
22160W        W37969  18.651  14.072  14.694  0.2809 -0.1079 -0.1108
22161W        W37970   2.292   5.953  12.866 -0.0699 -0.3062 -0.1776
22162W        W37971  15.608   2.601  14.087 -0.2160  0.1529 -0.1499
22163W        W37972  10.893  12.827   1.492  0.1510  0.2889  0.1755
22164W        W37973  13.922  10.834   4.323 -0.0230  0.0031 -0.1748
22165W        W37974  13.140   6.766   3.655  0.1822 -0.0018  0.1127
22166W        W37975  11.000  11.121   0.408 -0.2092  0.2228  0.0329
22167W        W37976   0.899  15.791  15.075  0.0154 -0.0526  0.0233
22168W        W37977   3.666  12.185   1.191 -0.2213 -0.0995  0.4167
22169W        W37978   5.419  17.174  13.452 -0.3017 -0.0401 -0.4734
22170W        W37979   9.687   9.869   4.688  0.0294 -0.2037 -0.1428
22171W        W37980   1.060   6.790   3.854  0.3811  0.0168 -0.1649
22172W        W37981  18.594  10.876   4.472  0.0367  0.0246 -0.3234
22173W        W37982  13.085  17.516   3.222  0.2007 -0.5787 -0.0101
22174W        W37983   2.902   0.872  11.640 -0.0204 -0.1625  0.3092
22175W        W37984   5.028   9.529  12.884  0.1095  0.1937  0.1901
22176W        W37985  17.346  12.166  12.409 -0.1095  0.1424  0.0815
22177W        W37986   3.973   2.287  10.129  0.0290 -0.0526 -0.1596
22178W        W37987  18.530   6.185   1.949  0.1894  0.1835  0.1603
22179W        W37988   1.031   8.857   3.969  0.2107  0.2614  0.0458
22180W        W37989  17.784  13.278  14.265 -0.2577  0.0508  0.0667
22181W        W37990  14.080   6.782  14.758  0.4412  0.0739  0.1839
22182W        W37991  15.371   8.534   2.468 -0.0739  0.1921 -0.0271
22183W        W37992  11.927  12.556   0.696 -0.0965  0.1281  0.0034
22184W        W37993  16.176   7.038  11.685 -0.0422 -0.0784  0.1229
22185W        W37994  16.882  16.840   1.135  0.1144  0.0269  0.3895
22186W        W37995   5.097   7.254  12.055 -0.0011  0.0786  0.0240
22187W        W37996  11.870   5.167   3.738 -0.1297 -0.0540 -0.0869
22188W        W37997   8.849   0.501   3.649  0.0072  0.3282  0.1557
22189W        W37998  14.264  15.716  13.266 -0.1293  0.0512 -0.0412
22190W        W37999   1.476   5.901   3.871 -0.2594  0.1347 -0.2130
22191W        W38000  12.755   5.254  10.862  0.1123 -0.3615  0.1779
22192W        W38001   7.407   0.548   9.963 -0.2870 -0.3753  0.2381
22193W        W38002  16.693  18.018   1.080 -0.2130 -0.0184 -0.5642
22194W        W38003   9.758  13.130  14.325  0.0730  0.1917  0.2314
22195W        W38004  10.208  13.507  12.938 -0.3423  0.0451  0.2361
22196W        W38005  16.410   5.617  13.705 -0.1535 -0.0835  0.0476
22197W        W38006   5.625   4.525  11.388  0.0943 -0.2865  0.2517
22198W        W38007   5.902   7.336   0.655 -0.0895 -0.1435  0.0471
22199W        W38008   0.440   9.063  14.599 -0.2739 -0.1941 -0.1612
22200W        W38009  15.958   6.314   3.970 -0.3625  0.2059 -0.0089
22201W        W38010  17.737   6.935   1.896 -0.1110 -0.0046  0.0756
22202W        W38011   2.539   5.703   5.223  0.0559  0.3961 -0.1218
22203W        W38012  10.862   3.734  11.386 -0.0215 -0.0302 -0.4499
22204W        W38013  11.369   8.587  13.046  0.3178 -0.0348 -0.1680
22205W        W38014  17.409  17.087   0.472 -0.1334 -0.0015 -0.0169
22206W        W38015   4.830   3.868   9.828 -0.4696 -0.1265 -0.0359
22207W        W38016  11.916  12.189   9.357  0.1338 -0.0191  0.0685
22208W        W38017   2.306   6.223   9.985  0.1105  0.0048 -0.1951
22209W        W38018  10.245  17.001  13.776 -0.1806 -0.1541 -0.2585
22210W        W38019   4.679  15.073  14.428  0.1095 -0.0081 -0.2972
22211W        W38020  14.614   5.590   5.075  0.2189 -0.1178 -0.1158
22212W        W38021  12.785   6.290  13.804  0.0134  0.0634 -0.0912
22213W        W38022   7.758  14.572   0.105 -0.0046  0.2491  0.3806
22214W        W38023  16.361   6.076  10.134 -0.2244 -0.0149 -0.3429
22215W        W38024   2.842   2.105  13.930  0.0314 -0.2580 -0.0368
22216W        W38025   5.138  12.512  14.947  0.0662  0.0343  0.0794
22217W        W38026   9.943   1.504   0.554  0.0046  0.1958  0.3347
22218W        W38027   0.550   8.452   0.016  0.0297 -0.0111 -0.2230
22219W        W38028  17.435  18.926   0.975  0.1752 -0.0801 -0.2617
22220W        W38029   5.131   0.601  13.304  0.0122  0.2628 -0.0359
22221W        W38030   3.912  12.281   2.173 -0.2563  0.1762 -0.0741
22222W        W38031  17.393   0.676  11.831 -0.1130  0.1756 -0.0687
22223W        W38032  12.011   3.718  12.756  0.1272 -0.1074 -0.0721
22224W        W38033  12.363   6.340   2.822  0.1674 -0.2926  0.1697
22225W        W38034   0.408   5.436   1.642  0.3105  0.3378  0.0355
22226W        W38035   6.017  10.384  11.668  0.0475 -0.1468 -0.1112
22227W        W38036  13.312   5.596   1.685  0.0974  0.2189 -0.0957
22228W        W38037   7.402  11.035   9.038 -0.2453 -0.2624  0.2501
22229W        W38038   8.989   7.637  10.619 -0.3968  0.1008 -0.0347
22230W        W38039   6.053   8.099  12.010 -0.3160  0.2963  0.0135
22231W        W38040   7.279   8.289   3.595 -0.2366  0.1633  0.2752
22232W        W38041  10.465  11.687   5.393 -0.2608  0.3474  0.0932
22233W        W38042   1.965   4.600  13.145 -0.3135  0.2627 -0.0605
22234W        W38043  15.060   3.053  15.102 -0.2790  0.4111 -0.2948
22235W        W38044   8.050   4.349  12.559 -0.0790 -0.0670  0.0210
22236W        W38045  14.994   6.808  12.480 -0.1092  0.0923  0.3033
22237W        W38046  18.447  15.451   0.716  0.0166  0.2920 -0.0888
22238W        W38047  14.563   9.625   0.241  0.3085 -0.0405  0.0291
22239W        W38048  13.013  10.507   2.805 -0.2745  0.1333  0.0581
22240W        W38049   0.490   3.915  12.328  0.3053 -0.1819  0.0795
22241W        W38050  15.232   7.655  14.960 -0.0307 -0.1199  0.1101
22242W        W38051  15.118   5.069   0.145  0.1303 -0.1284 -0.3231
22243W        W38052   6.714  16.219  13.041  0.3176  0.2051  0.1748
22244W        W38053   4.468   2.786  12.357  0.1682  0.1453  0.0570
22245W        W38054  11.482  19.042  12.784 -0.0111  0.0508  0.2308
22246W        W38055  14.132   7.649  14.279  0.0340 -0.1701 -0.1576
22247W        W38056  10.807  15.092   3.813  0.0529 -0.0186  0.0785
22248W        W38057   3.094  15.402   1.169 -0.1395  0.0335 -0.3325
22249W        W38058   4.597   8.313   4.655 -0.0984 -0.0941 -0.0325
22250W        W38059  12.792   1.579  13.913  0.1389 -0.2406 -0.2537
22251W        W38060   4.396   0.770  15.119 -0.0937  0.2524  0.3487
22252W        W38061  14.357  14.376   1.815  0.1366  0.2100 -0.0689
22253W        W38062  17.497   8.299  10.835  0.2396 -0.1853 -0.0405
22254W        W38063   3.415  13.697   1.522 -0.2695 -0.0557 -0.2649
22255W        W38064  11.471  16.930  10.647  0.0233 -0.1525 -0.0540
22256W        W38065  16.655  15.369  12.123 -0.0947  0.0767  0.1229
22257W        W38066   2.796   6.901  14.160 -0.1723 -0.0985 -0.1921
22258W        W38067   3.400   3.660  13.317  0.0608  0.1557  0.1630
22259W        W38068   8.845  14.058   1.892  0.1094  0.0690 -0.0849
22260W        W38069  17.975   3.721   2.422  0.0651 -0.1318  0.0467
22261W        W38070   9.202   5.486   0.913 -0.0912  0.0798 -0.2155
22262W        W38071  14.171  10.689   3.913  0.0250  0.0736  0.4914
22263W        W38072  18.882  17.531   1.205  0.1044 -0.0982  0.2828
22264W        W38073   8.923   5.172   0.201 -0.0882  0.0044 -0.0555
22265W        W38074  16.511   0.132  12.685 -0.1086 -0.0289 -0.0911
22266W        W38075   2.590  18.606  14.890  0.1834 -0.2059 -0.2648
22267W        W38076  14.671   5.106   3.846  0.2878  0.0656  0.3097
22268W        W38077   9.626   6.854   0.091 -0.0705  0.2366  0.1969
22269W        W38078  10.415  14.850   3.412 -0.1688 -0.1660 -0.2331
22270W        W38079  15.289  11.018  13.906  0.2832 -0.0133  0.2567
22271W        W38080   2.438   6.328   1.811  0.1581  0.1102 -0.1597
22272W        W38081   6.600  16.206   3.870 -0.1342  0.3566  0.2042
22273W        W38082   4.292   8.156   3.730 -0.1817 -0.0605 -0.0016
22274W        W38083  16.104  18.288   5.676 -0.0145 -0.0945 -0.2906
22275W        W38084   1.607  13.990  11.203  0.3826 -0.0316 -0.0557
22276W        W38085   8.065  14.174  11.632  0.0269  0.1947  0.2351
22277W        W38086   3.198  12.364   3.293  0.3432 -0.1523 -0.1021
22278W        W38087   8.133  10.812  13.778  0.0086  0.1350  0.0078
22279W        W38088   4.649   0.127  10.423 -0.1261 -0.0024  0.1176
22280W        W38089  15.805   3.874   0.185 -0.3193  0.2864  0.0933
22281W        W38090   1.576  13.405   1.247  0.1686  0.2712  0.1998
22282W        W38091   4.289   9.125   4.139  0.2949  0.2204  0.3651
22283W        W38092   4.121   7.319   4.740 -0.2081  0.3388  0.1889
22284W        W38093  12.186   8.434   4.582  0.0808 -0.0197  0.0383
22285W        W38094   0.102   1.766  15.187 -0.2868  0.2853  0.0800
22286W        W38095   6.549  12.608   1.305  0.2122  0.0378  0.2012
22287W        W38096  10.481  17.071  13.256 -0.0716 -0.0931  0.1638
22288W        W38097  17.415   5.265  10.512 -0.1036  0.3399 -0.0134
22289W        W38098  19.040  10.998   3.001 -0.0116  0.2226 -0.0374
22290W        W38099   5.735  15.768   3.896  0.1447 -0.1048  0.1511
22291W        W38100   9.440  18.505  14.733  0.1056 -0.1519 -0.1002
22292W        W38101   0.063   1.073  11.016  0.0979 -0.5164  0.3200
22293W        W38102   0.200   0.743  13.651  0.2039 -0.0036 -0.1791
22294W        W38103   4.649  18.122  11.073  0.2999 -0.0190  0.1682
22295W        W38104  10.037  14.795   1.099  0.1980  0.0523  0.4198
22296W        W38105   6.267  17.600   2.889  0.1032  0.0753  0.0273
22297W        W38106   2.740  15.147   1.506 -0.1643 -0.3417 -0.0506
22298W        W38107   4.673   2.629   0.627  0.4347 -0.3305 -0.1089
22299W        W38108  18.601   8.409  12.522 -0.0587  0.0878 -0.3334
22300W        W38109  10.061  16.377   3.162 -0.4309 -0.2877  0.1086
22301W        W38110  12.192   0.176   2.663 -0.0412  0.1760  0.0044
22302W        W38111   0.716  14.238  12.427 -0.2269 -0.0853 -0.2248
22303W        W38112   0.605   2.239  13.308 -0.0112 -0.3626 -0.0678
22304W        W38113  16.692  12.614  10.777  0.0058  0.4160  0.1621
22305W        W38114   5.875  16.986   9.945  0.1714 -0.2321  0.1956
22306W        W38115   9.308   8.857  11.837 -0.0750 -0.2625  0.1446
22307W        W38116   5.075   1.558  14.940 -0.0803 -0.0112  0.0856
22308W        W38117   1.663  10.678   0.398  0.1718 -0.2969 -0.1805
22309W        W38118  11.989  13.623  10.287  0.3094 -0.3449  0.1268
22310W        W38119   9.799  14.496   4.872 -0.4764 -0.1173 -0.0240
22311W        W38120  11.793   9.941   2.779 -0.1300  0.0387 -0.0556
22312W        W38121   1.293  17.888   3.621  0.1670 -0.1392  0.1846
22313W        W38122  11.497  11.331   0.600  0.0954 -0.0794  0.2263
22314W        W38123   3.308   9.739   6.118 -0.2665 -0.0875 -0.0477
22315W        W38124   8.746  15.447   5.458  0.1102 -0.4098 -0.0641
22316W        W38125  17.540   7.126   0.191 -0.0403 -0.0248  0.2736
22317W        W38126   9.021  12.718   2.474 -0.0694  0.1063  0.1123
22318W        W38127   2.539   9.904  12.059  0.1208 -0.1929  0.3161
22319W        W38128   0.727   1.802   1.121 -0.2322  0.2347  0.1032
22320W        W38129  15.001   6.288   3.042  0.1285  0.0812 -0.0802
22321W        W38130   5.996   3.927  14.446  0.2533  0.1680 -0.3174
22322W        W38131  13.637   2.869  11.636 -0.2874 -0.2513 -0.1758
22323W        W38132   0.413   7.115   2.461 -0.2239 -0.0894 -0.0681
22324W        W38133   9.818  14.361  15.068 -0.0488 -0.3361  0.1669
22325W        W38134   1.324  13.557   2.706  0.0657  0.2421 -0.0378
22326W        W38135  13.057  12.251   2.178  0.0420 -0.0567 -0.2803
22327W        W38136   5.594   3.242   4.878  0.0972  0.2050 -0.4290
22328W        W38137  10.379   0.740   1.235  0.1793  0.4610  0.2080
22329W        W38138  13.318  14.308   9.255  0.0854 -0.2439  0.1047
22330W        W38139   0.236   9.299   2.555 -0.1008  0.0788  0.1598
22331W        W38140  15.902  16.083  10.006  0.1341 -0.1299  0.0070
22332W        W38141  14.141  13.215  10.870  0.4160 -0.0303  0.0630
22333W        W38142  16.732  11.664   4.320 -0.1681  0.0339 -0.1685
22334W        W38143  16.747  17.056   1.971  0.0832  0.0186 -0.0620
22335W        W38144   4.592  14.246   0.494 -0.4465 -0.0549 -0.1321
22336W        W38145   2.692  15.906  15.141  0.2084  0.0264 -0.1279
22337W        W38146   2.920   1.700   1.563 -0.0642  0.6412  0.0134
22338W        W38147   3.487   4.479   4.005  0.1469  0.1399 -0.0407
22339W        W38148  13.742  11.893   1.500 -0.0546  0.1546 -0.1079
22340W        W38149  12.495   2.710   1.467 -0.2392  0.2058  0.0926
22341W        W38150  18.813   4.810  10.932 -0.2361 -0.1402  0.0401
22342W        W38151   6.630   0.159  13.096  0.2781  0.2126  0.0968
22343W        W38152   3.613   8.739   2.924 -0.0127  0.1719  0.3425
22344W        W38153   4.270   1.907  11.031 -0.0583  0.0503  0.0330
22345W        W38154   6.830  13.891  11.300  0.2211  0.2579  0.0814
22346W        W38155  16.759  12.694   4.775  0.1116  0.1977  0.1092
22347W        W38156   2.818   0.682  13.798  0.1156  0.0865 -0.0248
22348W        W38157  14.903   3.556   4.885 -0.0014  0.0197  0.1231
22349W        W38158   9.193   5.672   3.217  0.2235  0.1537  0.3193
22350W        W38159   5.819  15.078   2.048  0.0288  0.2855 -0.1769
22351W        W38160  16.969   6.268  12.180  0.1916  0.2611 -0.3469
22352W        W38161   4.260   8.848  10.503  0.0633  0.2098  0.1979
22353W        W38162  14.219   7.174   2.272 -0.1315 -0.1457 -0.3288
22354W        W38163  15.248   9.870  12.126 -0.0375  0.1451 -0.0434
22355W        W38164   1.214   7.284  13.327  0.5810 -0.0149 -0.3545
22356W        W38165   4.783   1.347   4.539  0.2478 -0.0565  0.2743
22357W        W38166  12.481  17.537  14.418 -0.0390 -0.0337  0.1736
22358W        W38167   8.987  16.461   2.265  0.0254 -0.1423 -0.1628
22359W        W38168  13.407   9.746  13.358  0.2048  0.1751 -0.0150
22360W        W38169   0.239   7.583  15.236 -0.0277 -0.1002  0.0588
22361W        W38170  15.623   6.380  11.849  0.6157 -0.0500  0.2837
22362W        W38171   2.068   9.693  11.146 -0.4613  0.0824 -0.0755
22363W        W38172  18.309   9.798  11.268 -0.3919 -0.0659  0.0922
22364W        W38173   7.692  10.410   0.569  0.0627  0.0847  0.2673
22365W        W38174  10.021   1.890   2.695  0.0041 -0.0103 -0.1335
22366W        W38175   2.432  16.408   2.028 -0.4492 -0.1294 -0.0882
22367W        W38176  16.313  12.024  12.738 -0.0490 -0.0479  0.1767
22368W        W38177  12.752  10.284   3.162  0.1267 -0.1122 -0.1797
22369W        W38178   6.920   6.199  12.418  0.0501  0.2339  0.0134
22370W        W38179  18.858  14.187  13.751 -0.2606 -0.1188 -0.0500
22371W        W38180  15.186   5.361  10.909  0.0703 -0.1245  0.0401
22372W        W38181   6.459  10.490  12.987 -0.1018  0.4368 -0.0247
22373W        W38182   5.395   0.804  12.853 -0.0069  0.2327  0.1680
22374W        W38183   5.716  17.849  12.177  0.0938 -0.1904 -0.1036
22375W        W38184  11.520   4.056  11.459 -0.1170  0.0239  0.2348
22376W        W38185   4.591   2.877  10.601  0.0467  0.5497  0.2653
22377W        W38186  15.044   4.121  11.922 -0.1177  0.1333 -0.2102
22378W        W38187   7.187  15.087  13.644  0.0478 -0.1532 -0.0788
22379W        W38188  13.114  13.061  12.039  0.0916 -0.1339  0.0127
22380W        W38189   3.569   3.682  14.290 -0.0193 -0.0987 -0.4526
22381W        W38190  19.080   1.343  13.226  0.0526 -0.3165  0.0454
22382W        W38191  12.944  13.020   4.492 -0.0131 -0.4312 -0.0852
22383W        W38192  10.656   3.356   2.923 -0.1052 -0.0459  0.2132
22384W        W38193  16.166   8.071   3.909 -0.1741  0.0025  0.0273
22385W        W38194   0.857  17.875   2.186  0.0446  0.0563 -0.0971
22386W        W38195  18.864  15.434  11.529 -0.1151 -0.1385 -0.0396
22387W        W38196  18.009   4.030  10.184 -0.2122  0.0131 -0.0147
22388W        W38197   1.522  13.990   4.887 -0.0483 -0.3263  0.0558
22389W        W38198  13.381   6.097  13.135  0.0391  0.0920 -0.4102
22390W        W38199   1.971  16.184   2.935  0.0769 -0.1197  0.1032
22391W        W38200   9.518  17.372  12.090 -0.1415 -0.1362  0.1350
22392W        W38201   4.406   8.825   2.324 -0.0174 -0.3070 -0.1995
22393W        W38202   4.156  16.660  13.640 -0.0234  0.2289  0.1699
22394W        W38203   8.537   8.771   2.607 -0.1670 -0.0039 -0.2210
22395W        W38204  12.996  16.304  14.961  0.3984 -0.2244  0.1445
22396W        W38205  16.329  11.860  13.976 -0.0632 -0.1672 -0.2262
22397W        W38206   3.744   7.725  11.819 -0.1425  0.1783 -0.0544
22398W        W38207  14.868  18.417   5.024  0.1477 -0.1188 -0.3275
22399W        W38208  16.263   9.157  14.782  0.1945 -0.0914 -0.1042
22400W        W38209  18.881  12.819   3.076  0.1816 -0.1052 -0.0744
22401W        W38210   2.041   3.868  11.817 -0.1126  0.0239  0.0463
22402W        W38211  16.883   8.045   0.685  0.0785  0.4516  0.3372
22403W        W38212   3.394  11.945  14.840  0.0098 -0.1375  0.3021
22404W        W38213   0.131  15.166  12.615  0.1207 -0.1538  0.0498
22405W        W38214   7.537   3.819   0.116 -0.0548 -0.1341  0.0035
22406W        W38215   2.678   0.139  15.182 -0.0102  0.0653  0.2238
22407W        W38216   3.478  11.377   2.739  0.1046 -0.0376 -0.3217
22408W        W38217   6.148   9.639   3.517 -0.1705  0.2222 -0.0453
22409W        W38218  12.327  15.163   9.870 -0.0954  0.1616  0.2033
22410W        W38219  16.000  12.101   1.875 -0.2583  0.0640 -0.1247
22411W        W38220   0.609  11.427   4.091  0.1904 -0.2564 -0.1229
22412W        W38221   9.975  13.748  10.564  0.3938  0.2458  0.0257
22413W        W38222  16.420   2.461   5.258  0.2677  0.0794 -0.2143
22414W        W38223  11.693  13.794   2.362 -0.0533 -0.0295  0.0174
22415W        W38224  12.933  14.375  10.542 -0.1825  0.0981 -0.3258
22416W        W38225   7.624   3.803  14.109  0.4424 -0.0084  0.0427
22417W        W38226   1.304  12.549  12.388  0.4374 -0.0706 -0.0705
22418W        W38227  12.063  15.496   0.032  0.2060  0.2828 -0.2569
22419W        W38228   2.304   3.647   4.087  0.2034 -0.0632 -0.1434
22420W        W38229   7.419   0.722  12.937 -0.2929 -0.0063  0.0689
22421W        W38230   0.876   2.677  14.720  0.1632  0.2534  0.0777
22422W        W38231  15.512  17.937  14.090 -0.2627 -0.0647 -0.0070
22423W        W38232  13.658  17.714  10.585 -0.0056 -0.0334  0.1235
22424W        W38233  16.296  14.234   2.046 -0.2291  0.3130  0.3489
22425W        W38234  15.384   2.382   1.028  0.1361  0.0433 -0.0663
22426W        W38235   0.308   8.840   3.533 -0.1175 -0.4366  0.1079
22427W        W38236  14.109   4.835   2.775 -0.3116  0.1533 -0.0763
22428W        W38237  18.596  17.192   1.092 -0.1361  0.0242  0.1884
22429W        W38238   8.717  16.628  11.030  0.0288 -0.0831 -0.1388
22430W        W38239  13.918   6.670   0.023 -0.3977  0.2996  0.2872
22431W        W38240   5.512   1.963  11.549  0.0687 -0.0924 -0.1861
22432W        W38241   9.522  11.117   1.185  0.3483 -0.2555 -0.3577
22433W        W38242   5.786  16.078  14.883  0.3547 -0.1425 -0.0601
22434W        W38243   7.508   2.141   0.849  0.0058  0.2908  0.1787
22435W        W38244  10.145   5.753   3.662 -0.2462 -0.3700 -0.1226
22436W        W38245   5.745  19.007  12.221 -0.2964  0.0189  0.4181
22437W        W38246  11.494   1.199  10.866  0.0115 -0.0248  0.0174
22438W        W38247   2.809   4.759   4.243 -0.2002  0.5235 -0.3828
22439W        W38248  14.192  10.473   2.433 -0.0125  0.0956 -0.0535
22440W        W38249  10.008   3.913   1.497 -0.0154 -0.0019  0.0113
22441W        W38250   6.822   3.293  11.191 -0.0708  0.0872  0.2123
22442W        W38251  15.481   5.462   9.463  0.1191 -0.0439  0.5372
22443W        W38252  11.973   3.898   3.953  0.2011 -0.0301  0.1963
22444W        W38253   9.835   9.289   1.844 -0.0645  0.0723  0.0146
22445W        W38254   9.833  16.058  12.537 -0.1135 -0.2664 -0.0231
22446W        W38255   6.416  14.678   3.401 -0.2299 -0.2234 -0.2648
22447W        W38256   4.670  18.662   3.870  0.1634  0.3831  0.0145
22448W        W38257  12.017  14.856  11.485  0.0386 -0.0107  0.0726
22449W        W38258   3.144   5.577  11.784  0.1226  0.0204 -0.0278
22450W        W38259  18.744  10.942  12.751 -0.0944  0.0727  0.1205
22451W        W38260   6.133  12.898  12.705 -0.0887  0.3438  0.0642
22452W        W38261  10.417  17.746  11.829 -0.2120  0.2867 -0.0109
22453W        W38262   1.663  13.119   3.674  0.0884 -0.1667 -0.2726
22454W        W38263  14.279  14.416  12.980 -0.0662  0.2047 -0.0684
22455W        W38264  15.990   0.862  12.465  0.0294  0.0398 -0.0387
22456W        W38265   8.688   3.770   3.342  0.0357 -0.0848  0.2147
22457W        W38266   6.805  12.969   0.257 -0.0823 -0.2875  0.2076
22458W        W38267  16.308   9.911   3.593 -0.2009  0.0030 -0.1243
22459W        W38268   0.016  19.039   2.848 -0.0596  0.1085  0.0352
22460W        W38269  18.778   5.157   5.000 -0.0026 -0.1229 -0.3392
22461W        W38270   7.297  18.239  11.102 -0.3679  0.0149  0.2365
22462W        W38271  18.652  11.181  14.631  0.3663 -0.1936  0.1595
22463W        W38272   4.447   0.238   4.723 -0.5037  0.2722 -0.2064
22464W        W38273  13.499  12.984  11.406  0.0881  0.0856 -0.0315
22465W        W38274   1.469  16.291  12.221 -0.0807  0.0936 -0.0583
22466W        W38275   5.947  11.447  12.128  0.0374 -0.2932 -0.1126
22467W        W38276   5.557  16.930  14.953 -0.1221  0.3397 -0.4096
22468W        W38277  18.182   0.170  10.930  0.1271 -0.2572  0.0596
22469W        W38278   6.763  18.200   1.063 -0.2558  0.0118  0.0550
22470W        W38279   0.443   7.252   4.808  0.0004  0.0574  0.0852
22471W        W38280  17.308  12.361   2.965  0.0129 -0.0869  0.0248
22472W        W38281  15.961  18.419   4.488  0.2397 -0.1559  0.3876
22473W        W38282  12.358   1.740  13.000  0.4330  0.2143 -0.1559
22474W        W38283  14.298  13.753   2.912  0.0811 -0.0238 -0.1581
22475W        W38284  13.502  12.348   3.825 -0.0486  0.0848 -0.1113
22476W        W38285   7.111   8.148   4.493  0.2316  0.3959 -0.0990
22477W        W38286  14.442   3.264  10.521 -0.0245 -0.5250 -0.0463
22478W        W38287   2.508  14.151  14.373 -0.0139  0.2729  0.4200
22479W        W38288   8.727   5.656  14.196  0.0791 -0.2011 -0.1254
22480W        W38289  13.112  11.092  13.041  0.0973 -0.1613 -0.1873
22481W        W38290   6.808   8.610   0.510 -0.0444  0.0132  0.0746
22482W        W38291  16.227   9.654  14.892  0.0944 -0.1984  0.1344
22483W        W38292   6.265   6.868  14.400 -0.0580  0.4328  0.0613
22484W        W38293  11.261  14.601  10.974 -0.1379 -0.1668  0.1045
22485W        W38294   2.739   9.847  11.222  0.1208  0.1537 -0.0705
22486W        W38295   4.056  11.459   4.936  0.0346 -0.0453  0.0550
22487W        W38296  11.086  12.058  12.360 -0.2030 -0.0996  0.2670
22488W        W38297  13.870  14.326   1.930  0.0943  0.1797 -0.5348
22489W        W38298  13.966  17.976   2.547 -0.1849 -0.0435  0.0083
22490W        W38299  17.429  11.938  15.144 -0.0148  0.0856 -0.0539
22491W        W38300  11.663   3.945  12.262 -0.0731  0.0427  0.0649
22492W        W38301   6.817   2.093   1.422 -0.2656 -0.4057  0.3191
22493W        W38302   6.126   2.349   3.714  0.0188 -0.2472  0.0850
22494W        W38303   2.003   0.231  13.588  0.1002  0.0604  0.3558
22495W        W38304   3.408   2.843   4.979  0.0997  0.0257 -0.1686
22496W        W38305  13.077   9.567   5.940 -0.0592  0.0007  0.0466
22497W        W38306   1.158  11.030  13.529  0.5550  0.0909  0.3926
22498W        W38307  14.071   0.607   2.876  0.0136  0.0954  0.0522
22499W        W38308   7.500   8.287  15.217 -0.0879  0.1140 -0.1297
22500W        W38309  16.128  18.380  12.292 -0.3300  0.2950  0.1564
22501W        W38310   6.466   2.006  13.104  0.1003 -0.2641  0.2763
22502W        W38311   2.797   1.625   4.210  0.1973 -0.0319 -0.1556
22503W        W38312  12.118  13.837   4.020 -0.3057  0.3267  0.1108
22504W        W38313   2.252   5.342  12.329 -0.1496  0.2284 -0.0279
22505W        W38314   0.272   6.759   2.876 -0.1188  0.1333  0.2007
22506W        W38315  15.888  17.413   4.921  0.1075 -0.1940 -0.1302
22507W        W38316   6.974  12.850  10.241 -0.1279 -0.0918 -0.1137
22508W        W38317   6.024   0.404  11.019 -0.0411  0.0404  0.1324
22509W        W38318   5.072  10.710   1.017  0.1626  0.1230  0.1440
22510W        W38319  10.134   6.436  13.595 -0.0221 -0.0203 -0.1775
22511W        W38320   2.832  15.546   4.645  0.1412 -0.4146 -0.5074
22512W        W38321   9.988   4.810   4.151 -0.3154 -0.1076  0.3392
22513W        W38322   2.960   2.407   0.986 -0.0987 -0.2180 -0.1170
22514W        W38323  12.209  15.870  14.093 -0.2635 -0.1968 -0.0933
22515W        W38324   2.168  12.098   3.118  0.0379  0.2437 -0.1345
22516W        W38325  14.620  15.906   4.299  0.2273  0.4361 -0.2694
22517W        W38326  12.206  18.294   5.755  0.0650  0.3269  0.2910
22518W        W38327  12.209   4.540  12.728 -0.1886 -0.3300 -0.2711
22519W        W38328   2.840   0.203  12.910 -0.2444  0.1781 -0.0874
22520W        W38329  18.429   4.608   2.496  0.1880 -0.1344 -0.4612
22521W        W38330  16.105  18.325  13.960 -0.0328 -0.0662 -0.0114
22522W        W38331  16.120   8.133  10.969 -0.0131  0.0868  0.2195
22523W        W38332  18.249  15.552   4.497 -0.0374  0.2056 -0.0246
22524W        W38333   4.784   1.653   2.876 -0.1329 -0.1681 -0.2734
22525W        W38334  17.740  15.049   2.084  0.4219 -0.0728  0.1294
22526W        W38335   6.271  13.557   0.908 -0.2385 -0.1725 -0.3803
22527W        W38336   8.141  13.782  10.766 -0.1220  0.2584 -0.0868
22528W        W38337  13.891  13.691  12.828  0.3419 -0.1015 -0.0235
22529W        W38338   6.313  16.770   0.853  0.0991  0.0184  0.3519
22530W        W38339  17.917  10.200  11.800 -0.0368 -0.2235  0.2151
22531W        W38340   3.473  15.080   1.937  0.0148  0.2098 -0.0943
22532W        W38341   0.082  14.582  11.804 -0.1763 -0.2373 -0.3839
22533W        W38342  17.194  16.576   2.059 -0.0765  0.4009 -0.3940
22534W        W38343  11.612  17.303   2.535 -0.0208 -0.1145 -0.2405
22535W        W38344   3.236   7.726   2.819  0.0990 -0.1214 -0.0729
22536W        W38345   3.144  11.408  11.305  0.1094  0.2210  0.1192
22537W        W38346  14.444   6.506  15.135  0.1195 -0.1774  0.1349
22538W        W38347  14.614   5.468   0.896 -0.2129 -0.2866  0.1528
22539W        W38348   5.072   6.643   1.563 -0.0076  0.2197  0.2414
22540W        W38349  16.555   8.202  11.831 -0.2021  0.1919  0.1737
22541W        W38350   1.167   2.413  13.699 -0.1060 -0.2713 -0.1348
22542W        W38351   2.213   9.834   5.690  0.0652 -0.4657 -0.2164
22543W        W38352   9.934   0.134   4.273  0.1106  0.2648  0.2386
22544W        W38353   2.347  10.131   5.177  0.1652 -0.0285  0.0339
22545W        W38354   2.184   1.330   9.960 -0.3562  0.1535  0.3280
22546W        W38355  11.542   3.495  10.887 -0.0979  0.1349 -0.1852
22547W        W38356  10.208   6.473  11.163  0.1405 -0.1690  0.1307
22548W        W38357  15.551   4.028   5.039 -0.0594  0.0790  0.0809
22549W        W38358  12.647   7.036   1.294  0.1275 -0.3265 -0.0648
22550W        W38359   2.772  14.555  12.593 -0.1105 -0.0959  0.1397
22551W        W38360  10.724  18.579  13.124 -0.1849  0.2428 -0.1626
22552W        W38361   6.505   3.080   2.561  0.3365  0.0895 -0.0911
22553W        W38362   3.194  18.421  13.638 -0.0501  0.0889 -0.1869
22554W        W38363  15.776   5.259  11.213  0.1955 -0.1507  0.2197
22555W        W38364   9.714  15.775  13.742  0.3002  0.1012 -0.1144
22556W        W38365   5.387   7.889   4.481  0.2167 -0.1623 -0.0346
22557W        W38366  13.686   1.496  11.511 -0.0343  0.1935 -0.1385
22558W        W38367   5.774   4.438  13.840 -0.2473 -0.0966  0.1631
22559W        W38368   7.406   6.239  14.219 -0.4107  0.1203  0.1412
22560W        W38369   9.841   8.161   3.364  0.1447  0.4367 -0.1817
22561W        W38370   5.612   7.111  10.760  0.2145 -0.1834 -0.0330
22562W        W38371   0.085   4.993   0.278 -0.0974  0.1087  0.0456
22563W        W38372   1.232   4.522  14.063  0.0644 -0.3966 -0.3272
22564W        W38373   2.912   8.492  11.421  0.1015  0.2125 -0.0647
22565W        W38374  17.650   1.915   4.337 -0.1601  0.4417  0.0035
22566W        W38375   8.368  11.846   3.539 -0.1416  0.2839  0.3142
22567W        W38376  12.151   6.669  11.365 -0.2713  0.1553  0.2527
22568W        W38377   3.131  10.967   4.817  0.1327 -0.0340 -0.0259
22569W        W38378  10.493   9.657  12.996  0.1534  0.2410 -0.2210
22570W        W38379   3.861  17.355   1.926 -0.1397 -0.5522  0.1294
22571W        W38380   3.933  16.536   4.044 -0.1397  0.0608 -0.2171
22572W        W38381  12.779  13.288   2.856 -0.0807 -0.1771 -0.0852
22573W        W38382   0.037   8.523  13.479  0.0820 -0.1367  0.0239
22574W        W38383   8.677  16.299   1.768 -0.1255 -0.2359 -0.0704
22575W        W38384   6.852   0.961   0.955 -0.1210 -0.1010 -0.2802
22576W        W38385   8.031  15.802  11.623  0.0003  0.0229 -0.1076
22577W        W38386   7.600   6.501  14.646 -0.1108  0.2670  0.1750
22578W        W38387  14.974   5.805   0.766 -0.1342  0.3985 -0.2705
22579W        W38388  18.214   4.099   5.675  0.1792  0.1636  0.1476
22580W        W38389  11.857  15.082   0.121 -0.3144  0.0672 -0.1896
22581W        W38390  11.604   2.480  11.860  0.0125  0.4384 -0.3160
22582W        W38391  12.515  14.313   1.126 -0.0642  0.1175  0.1697
22583W        W38392  18.129   9.067   0.724 -0.1455 -0.1655 -0.1631
22584W        W38393  15.186   1.279  12.200 -0.0237  0.2553 -0.1639
22585W        W38394   0.248  16.993  11.369  0.3165  0.1558 -0.1783
22586W        W38395  11.020  12.172  10.678  0.2239  0.0983  0.2601
22587W        W38396  17.371   8.992  12.492 -0.0328 -0.2767  0.1114
22588W        W38397   8.021  13.212   0.889 -0.1371 -0.0945 -0.2927
22589W        W38398   5.399  10.296   5.437 -0.3033  0.3966 -0.1608
22590W        W38399   4.532   8.067  11.055 -0.0571 -0.2329 -0.0459
22591W        W38400  13.468   5.105  11.261 -0.2557 -0.0229  0.0846
22592W        W38401   2.657   4.641   3.476  0.0094 -0.1177  0.1846
22593W        W38402   8.541   0.268   1.977  0.2697 -0.3490  0.0030
22594W        W38403   2.143  14.575  14.873 -0.3763 -0.4817  0.0817
22595W        W38404   5.991   0.363  13.570  0.1937 -0.1444  0.0544
22596W        W38405  12.793   1.558   0.968  0.4813  0.0493  0.1686
22597W        W38406  13.241  16.235  11.964 -0.0425  0.3465 -0.0099
22598W        W38407   1.495  18.670  14.003  0.0082  0.0287  0.2578
22599W        W38408  17.730  15.539  11.271  0.3076  0.2639 -0.0323
22600W        W38409   0.202  17.375   4.456  0.1750  0.4133 -0.2228
22601W        W38410  13.586   2.451  11.353 -0.0434 -0.0202 -0.0688
22602W        W38411  12.137   5.810   0.762  0.0905 -0.3610 -0.0569
22603W        W38412  16.457  10.993  12.524  0.1667  0.1176 -0.1145
22604W        W38413  18.759  12.816   5.060 -0.0036 -0.1049  0.1203
22605W        W38414  14.096   5.268   5.031 -0.1170 -0.1474  0.3435
22606W        W38415  15.252  18.650  11.081  0.1745  0.0156 -0.1149
22607W        W38416  12.252  18.617  13.409 -0.3109 -0.0675 -0.3697
22608W        W38417  14.328  11.748   1.113 -0.0191 -0.1895  0.1985
22609W        W38418  14.359  11.225   1.489 -0.1468 -0.1806  0.0333
22610W        W38419  18.599  17.775   4.951 -0.0161  0.1059 -0.0681
22611W        W38420  12.562   9.722   5.058  0.0431 -0.2485  0.0711
22612W        W38421  12.597   8.483  10.158  0.1705  0.1894 -0.2026
22613W        W38422   0.372   3.450  12.712 -0.2429  0.1144  0.1332
22614W        W38423   4.957   7.570  14.202  0.0507  0.5459 -0.2200
22615W        W38424  14.546  18.812   5.088 -0.1494 -0.1452  0.2857
22616W        W38425   5.468  11.130  11.974 -0.0305  0.3096 -0.1450
22617W        W38426  11.651   0.593   4.816 -0.1381  0.0461 -0.0648
22618W        W38427  13.811  14.065  10.629  0.0215  0.1139  0.2581
22619W        W38428  17.615   7.496  13.575 -0.0803 -0.0348  0.2464
22620W        W38429  14.160  17.212  12.516  0.1882 -0.0771  0.3383
22621W        W38430  16.892  17.186  13.023 -0.3898 -0.2023  0.0274
22622W        W38431  18.132   1.441  12.090 -0.3867  0.2816 -0.6444
22623W        W38432  17.179   6.469   9.896 -0.0494  0.0133  0.2604
22624W        W38433   9.979  13.583   5.311  0.1110 -0.0292 -0.1343
22625W        W38434  13.292  15.510   0.148 -0.2183  0.1973 -0.0526
22626W        W38435   3.138  10.880  14.108 -0.3907  0.0358  0.1054
22627W        W38436   3.451   7.869  13.540 -0.0552  0.1724 -0.0148
22628W        W38437  17.955   5.639   0.847  0.0336 -0.0041 -0.1648
22629W        W38438   1.004   3.394   2.402 -0.0701 -0.2871  0.0719
22630W        W38439  16.447  17.316   4.975  0.1936 -0.1119  0.2296
22631W        W38440  13.891   6.446  11.610  0.2815  0.0352 -0.1669
22632W        W38441  17.637  17.857   0.534  0.0586 -0.1100 -0.0223
22633W        W38442   0.425   1.084   0.614 -0.0216  0.2841 -0.1570
22634W        W38443  18.769  16.954  14.913  0.0941 -0.1202 -0.2294
22635W        W38444   2.651   7.451  10.741  0.0226 -0.0085  0.3152
22636W        W38445   1.325  15.766   4.704  0.0504  0.2004  0.6341
22637W        W38446   3.667   1.824   2.052  0.0329 -0.0791 -0.0325
22638W        W38447   3.492  17.351   1.547 -0.2987 -0.2507 -0.1169
22639W        W38448   8.452   5.103  10.704 -0.2160 -0.1233 -0.0394
22640W        W38449  11.627   9.334  13.390  0.1624 -0.1722  0.1227
22641W        W38450   0.987  18.128   2.709  0.1231  0.0669 -0.1712
22642W        W38451   7.454   7.291   3.503 -0.0461  0.0859 -0.0162
22643W        W38452  14.782   2.622  10.166  0.0359  0.0317  0.2356
22644W        W38453   2.035   2.300   4.340  0.1177  0.0969 -0.3472
22645W        W38454   1.781   8.257  12.198 -0.2928 -0.2148 -0.1111
22646W        W38455  15.435   5.569  14.044 -0.1186 -0.0338 -0.0085
22647W        W38456  15.960  10.022   5.142  0.0024  0.0086 -0.2386
22648W        W38457  10.170  16.991  15.013  0.0018  0.1847 -0.0140
22649W        W38458  14.306   4.404  14.463 -0.1524  0.0140  0.4465
22650W        W38459   7.012   3.103  10.281  0.0158 -0.1557  0.1389
22651W        W38460  17.396  17.842   0.078 -0.2680 -0.0168  0.2448
22652W        W38461   3.561   6.646   4.502  0.0186  0.2965  0.1564
22653W        W38462   0.196   4.517  13.732  0.2319 -0.0112 -0.1660
22654W        W38463  13.569   0.556   5.080 -0.1864 -0.1467  0.0715
22655W        W38464   7.806   9.093   1.581 -0.0032  0.1665  0.0107
22656W        W38465   8.922   7.068   2.866  0.0004  0.0156 -0.2705
22657W        W38466  17.767   3.428   0.704 -0.1112 -0.3230 -0.0907
22658W        W38467  18.207  15.313  15.009 -0.1978  0.1755 -0.1468
22659W        W38468   8.140   4.584   4.296 -0.2125  0.3171  0.1840
22660W        W38469   7.219  15.755   2.322 -0.0048  0.0519 -0.4090
22661W        W38470   6.876  16.569   2.414 -0.2665 -0.0455  0.3810
22662W        W38471   1.329   2.070  10.114  0.0151 -0.0484 -0.2685
22663W        W38472  16.135   4.827  11.005  0.0354  0.3171  0.0103
22664W        W38473   6.093  16.538  14.174 -0.0156 -0.1852 -0.2268
22665W        W38474   9.092   5.913   0.550  0.3814  0.3414 -0.3435
22666W        W38475   2.934   3.003  13.906  0.1147 -0.1267  0.1629
22667W        W38476   7.158   9.638   1.277 -0.0600 -0.1074 -0.0100
22668W        W38477  18.495  17.222  14.583  0.0596 -0.1636 -0.0147
22669W        W38478   8.065  13.648  15.224  0.0302  0.0815  0.1262
22670W        W38479  11.294   4.732  10.462 -0.3529  0.1584  0.3148
22671W        W38480  14.698  16.552  13.649 -0.2475  0.1754  0.0171
22672W        W38481  14.945   8.327  10.435 -0.0408 -0.0153 -0.3197
22673W        W38482   1.527   4.535   3.264  0.1808 -0.2566  0.0474
22674W        W38483   2.113  11.318   5.366 -0.0638  0.3404 -0.1303
22675W        W38484   7.759   9.815   1.325  0.0459 -0.1074 -0.0250
22676W        W38485  14.989  16.630   1.608  0.3678 -0.1666 -0.0250
22677W        W38486  18.891  16.818   4.901  0.3345  0.6420 -0.0217
22678W        W38487   3.682   6.626  14.477 -0.0897 -0.2597 -0.0740
22679W        W38488   0.046   5.568  10.558  0.0211  0.2920 -0.2832
22680W        W38489  10.433  13.299   0.517  0.0319  0.1762 -0.3501
22681W        W38490  10.247  14.088  10.767 -0.4445 -0.0513 -0.1447
22682W        W38491  18.090  10.824   2.821 -0.0237  0.1230  0.1407
22683W        W38492  16.068   6.478  13.817  0.3520 -0.2104  0.2486
22684W        W38493   6.637   0.101   0.900 -0.1495  0.1769 -0.3059
22685W        W38494   8.658  18.782   0.824  0.0576  0.1817  0.0073
22686W        W38495  12.543  15.627  11.615  0.1314  0.1158 -0.3958
22687W        W38496   2.786  10.524   4.377  0.3401  0.1025 -0.0832
22688W        W38497   8.277   2.818   4.249 -0.4014  0.3258 -0.0855
22689W        W38498  16.441  11.714   0.986  0.0084  0.1702 -0.1243
22690W        W38499  14.476   8.434  10.549  0.4884 -0.2960 -0.0127
22691W        W38500  11.895  18.770   1.209  0.0867 -0.0454 -0.1768
22692W        W38501   8.218   9.927   9.702  0.1061 -0.2959 -0.0255
22693W        W38502   9.516   7.884  14.068 -0.2700  0.1752  0.2157
22694W        W38503   9.436   1.579   0.522 -0.0547  0.1113 -0.1195
22695W        W38504   8.642   1.486  11.034  0.0048  0.0287 -0.0152
22696W        W38505  12.987  18.442  14.012 -0.0601 -0.1621  0.1366
22697W        W38506  17.445  11.503   3.101 -0.1451 -0.1688 -0.2364
22698W        W38507  15.136  17.587  11.970 -0.4763 -0.3160 -0.1065
22699W        W38508   5.695  15.069   5.537  0.1979  0.1464  0.1859
22700W        W38509   8.329   8.594   5.152 -0.1664 -0.0587 -0.0884
22701W        W38510   0.177   8.913  12.705 -0.1733  0.1134 -0.0605
22702W        W38511   6.216  18.916   2.332 -0.0913  0.2222 -0.3911
22703W        W38512  13.366   0.248  11.642  0.1269  0.4609  0.2790
22704W        W38513   1.302   9.708   4.220 -0.1226 -0.1032  0.1138
22705W        W38514  18.983   7.423   3.472  0.0946  0.4490 -0.0360
22706W        W38515   1.862  17.516   1.990  0.0613  0.0931 -0.2803
22707W        W38516  18.239  18.539  11.833  0.0374 -0.3577 -0.2826
22708W        W38517  19.098  13.764   3.506 -0.5740  0.2479  0.0535
22709W        W38518  18.268  11.959   3.098  0.0973  0.1308  0.3057
22710W        W38519   1.721  10.952   5.203  0.2545 -0.2223 -0.2399
22711W        W38520  13.046   6.723  10.990  0.0979 -0.0655 -0.0137
22712W        W38521  12.639   5.223   2.917 -0.3115  0.0187  0.0110
22713W        W38522  17.553  14.534  13.505  0.1633  0.1356 -0.0274
22714W        W38523  10.231   9.043   2.514 -0.1183  0.0370 -0.1272
22715W        W38524  10.506  13.012   2.685  0.1211 -0.0103  0.1569
22716W        W38525  13.305   6.728  10.553 -0.0488  0.0999  0.1214
22717W        W38526   4.282  13.808   4.523 -0.0080  0.1146 -0.0046
22718W        W38527  12.106   7.403  10.781 -0.1765  0.0633 -0.0691
22719W        W38528   9.732   1.573   4.959  0.0753 -0.0148  0.0988
22720W        W38529  12.770  18.864   2.819  0.0384  0.1265  0.1120
22721W        W38530  15.173  16.519   0.593  0.1497 -0.0705 -0.1409
22722W        W38531  17.974  16.612  13.221 -0.2046 -0.1514  0.2360
22723W        W38532   0.015   3.794   9.893 -0.2115  0.2033 -0.1325
22724W        W38533   0.278  11.273   0.554  0.2920 -0.0846 -0.0312
22725W        W38534  15.573   4.347   2.027 -0.0551  0.3464  0.1111
22726W        W38535  11.189  18.455  13.260  0.1497 -0.0436  0.0883
22727W        W38536   1.741  10.298  11.439  0.0351  0.0425  0.0619
22728W        W38537  18.081   4.907   1.606  0.4184 -0.3953 -0.0798
22729W        W38538  14.328   9.810   3.166 -0.4605 -0.0577 -0.0299
22730W        W38539   2.282   2.124   2.542  0.0690  0.4319 -0.0741
22731W        W38540   6.453  14.673   4.846 -0.3168  0.3316  0.0709
22732W        W38541  14.258  11.270   3.777  0.2653  0.1353  0.1175
22733W        W38542   5.504   1.918  15.262 -0.1061  0.0913 -0.2785
22734W        W38543   4.964   4.795   0.396  0.0232  0.2276 -0.3983
22735W        W38544   0.528   6.347  11.230  0.1318  0.1427  0.0324
22736W        W38545   5.185  14.361  14.396 -0.1528 -0.2150  0.1493
22737W        W38546   3.007   2.925  11.658 -0.2653 -0.2813 -0.0182
22738W        W38547  15.149   7.197   0.384 -0.0159  0.1150 -0.2060
22739W        W38548   4.596   0.435   2.232  0.2787  0.0171 -0.0586
22740W        W38549   5.738   8.509  12.253 -0.4359 -0.0935 -0.2348
22741W        W38550  16.107   1.196   0.282 -0.0060 -0.2585  0.1006
22742W        W38551   9.678   0.604  14.205 -0.0307  0.2858  0.3211
22743W        W38552  12.538  15.855  12.288 -0.3311 -0.1301 -0.0404
22744W        W38553  16.031  19.053   0.739 -0.0364 -0.1186 -0.4545
22745W        W38554   7.473   5.878  11.533  0.1660  0.1316 -0.3145
22746W        W38555   4.021  18.435   1.747  0.0387 -0.1869 -0.0692
22747W        W38556  13.069   6.508   4.122 -0.5805  0.3640 -0.0747
22748W        W38557   7.379  11.208   0.278 -0.0773 -0.4388  0.2647
22749W        W38558   2.542   9.406   1.331  0.1115  0.0833 -0.0433
22750W        W38559  17.133   4.411   1.873  0.0690 -0.1486  0.0227
22751W        W38560  11.373   8.617   2.434  0.2049  0.1994  0.1192
22752W        W38561   5.943   7.404   2.671 -0.2061 -0.0986 -0.2478
22753W        W38562  18.323   5.950  13.831  0.0844 -0.0747 -0.4316
22754W        W38563   8.072  17.491   3.476 -0.0543  0.1105 -0.1790
22755W        W38564   3.898  18.860  14.984 -0.0824 -0.2877 -0.1463
22756W        W38565   5.255  17.711   2.608  0.2242 -0.1042  0.0051
22757W        W38566   7.781   1.083  11.073  0.1302  0.0944  0.1218
22758W        W38567  14.534  18.310  10.624 -0.1784  0.2355  0.2976
22759W        W38568  11.370  16.914  14.437  0.0973  0.1598 -0.0276
22760W        W38569  18.120  12.415   3.970 -0.3017  0.1754 -0.0338
22761W        W38570   7.003   7.319   1.212 -0.2046  0.0635  0.2553
22762W        W38571   8.471  16.871   3.515  0.1562  0.1752 -0.2466
22763W        W38572  18.548   3.154   9.765  0.1563 -0.0244  0.1827
22764W        W38573   1.728  16.640  14.979  0.3633 -0.1771  0.0336
22765W        W38574   1.266   3.469   1.338 -0.2810 -0.0822  0.0863
22766W        W38575  17.146  18.126  11.319  0.1622 -0.0859  0.3092
22767W        W38576  12.391  18.710  14.928 -0.3225  0.0460  0.1523
22768W        W38577   8.021   1.455  15.122  0.1948  0.0814  0.0773
22769W        W38578   9.824   3.103  15.162  0.1059  0.2078 -0.3055
22770W        W38579   5.823   6.117   2.928  0.0580 -0.0080 -0.3784
22771W        W38580  17.530   3.579  14.515 -0.3656  0.0433 -0.1002
22772W        W38581   1.471   3.165  11.919  0.0350 -0.0142 -0.0662
22773W        W38582   9.378   8.199  12.716 -0.3768 -0.1479  0.0698
22774W        W38583  11.805  14.779  14.031 -0.0795 -0.2156  0.0720
22775W        W38584   7.045  12.066  11.206 -0.0249 -0.2108 -0.4496
22776W        W38585   9.630  17.960   4.457  0.1141  0.1548 -0.0421
22777W        W38586   0.791   6.109   9.236 -0.0859  0.0512 -0.3493
22778W        W38587  13.962   5.578   1.619 -0.2169 -0.1862 -0.2127
22779W        W38588   8.371   0.967  12.336 -0.2729  0.0678 -0.2298
22780W        W38589   5.066  11.131   5.624  0.2812  0.3632  0.1865
22781W        W38590   1.411  17.961  10.892  0.2747 -0.2191 -0.0409
22782W        W38591  15.237   7.466   0.874 -0.4780 -0.1647  0.1488
22783W        W38592  13.978   5.477  14.753  0.0135  0.1020  0.0813
22784W        W38593   8.237   2.524  12.459  0.2794  0.0988 -0.0323
22785W        W38594   5.473   3.563   3.005  0.1213  0.2326 -0.4051
22786W        W38595   5.471   2.580   0.273 -0.1757  0.0053  0.2209
22787W        W38596   2.418  11.971  12.123 -0.1554  0.5112  0.1245
22788W        W38597  16.470  18.511   2.721  0.0654  0.4505 -0.1050
22789W        W38598   0.665   2.245  10.843 -0.0585  0.0443 -0.1154
22790W        W38599   7.723   1.779   1.532  0.3009  0.1843  0.1555
22791W        W38600   7.472  12.161   3.742  0.1988 -0.1299 -0.2265
22792W        W38601   6.659  11.217  12.728  0.2844  0.0287  0.1311
22793W        W38602  10.907   3.445  13.586  0.0817 -0.1371 -0.0712
22794W        W38603  13.974   9.148  12.009  0.0845  0.4644 -0.2121
22795W        W38604  17.584  11.228   0.210  0.1812 -0.0086 -0.0377
22796W        W38605   6.648  14.823   1.562  0.2408 -0.0688  0.4881
22797W        W38606  13.611  15.534  12.894  0.1477  0.3510  0.0943
22798W        W38607  10.571   7.840   4.039 -0.0320 -0.1831 -0.1503
22799W        W38608  15.306  18.531   2.530  0.2768 -0.0926 -0.0595
22800W        W38609   2.074  10.079  11.790  0.0142  0.4947  0.0077
22801W        W38610  14.059   9.098  15.019 -0.0463 -0.2854 -0.0484
22802W        W38611  10.094  10.432   2.161  0.2399 -0.4723 -0.1545
22803W        W38612  17.693  17.215   4.615  0.3043  0.2387 -0.2166
22804W        W38613  15.035   1.672   3.721 -0.2183  0.1240 -0.0402
22805W        W38614  10.632   3.108  11.747  0.0471  0.0372  0.1889
22806W        W38615   1.227   0.235   1.577  0.0797 -0.0541  0.3630
22807W        W38616  15.299   9.835  14.879 -0.2054  0.1847  0.0673
22808W        W38617  12.379   3.604   0.508 -0.0277 -0.0558 -0.2081
22809W        W38618   2.456   7.952  13.616 -0.2318 -0.0347  0.3266
22810W        W38619   6.424  14.578   1.129 -0.1504 -0.3963  0.0369
22811W        W38620   9.640  16.175  10.326  0.3581 -0.1894 -0.1952
22812W        W38621  13.380   3.653  13.355 -0.2605 -0.0647  0.0543
22813W        W38622   3.577   9.502   3.380 -0.0483  0.2046 -0.1667
22814W        W38623   3.530   9.857   4.322  0.0767 -0.0635  0.0443
22815W        W38624   7.769  16.015  13.252  0.1410  0.0592 -0.1227
22816W        W38625   0.734   5.088   3.357 -0.0595 -0.0012  0.1624
22817W        W38626   2.742   6.984   1.464  0.2066  0.2127  0.2757
22818W        W38627  13.795  15.078  15.223  0.0888  0.3766  0.2652
22819W        W38628   6.831  13.627   2.692 -0.0412  0.3010  0.0602
22820W        W38629   6.254  11.749  14.437  0.1060  0.1334  0.2664
22821W        W38630  14.035   7.723   3.435 -0.2812  0.1288  0.0312
22822W        W38631   4.813   8.658  14.767 -0.1813 -0.2793  0.1546
22823W        W38632  14.377  11.412  10.257  0.2419 -0.1281  0.3667
22824W        W38633  13.887  13.987   3.123 -0.1287 -0.1949  0.3321
22825W        W38634   7.773  16.253  15.022 -0.0666  0.2988  0.0992
22826W        W38635   4.336  19.028   3.956  0.1562 -0.2693 -0.1440
22827W        W38636   6.783  18.735   0.955 -0.1390  0.1205 -0.4174
22828W        W38637   0.801  15.323   2.206  0.1100  0.3031 -0.0356
22829W        W38638  11.332   1.101  11.926 -0.0259 -0.0965 -0.0248
22830W        W38639   0.567  14.019  13.944 -0.2219  0.0389 -0.0619
22831W        W38640   6.086   5.330   1.417  0.1360  0.0109 -0.5281
22832W        W38641  15.170   9.948   2.207 -0.1695 -0.1904 -0.0702
22833W        W38642   7.732   6.529   1.236  0.0680  0.0165  0.1078
22834W        W38643   3.426   5.652   3.559 -0.2922  0.1510  0.0035
22835W        W38644  16.388   0.639   0.901 -0.0951 -0.1730 -0.1171
22836W        W38645   5.110  14.905   2.975  0.1333  0.0509  0.1082
22837W        W38646   5.780  18.080   1.341  0.0656  0.1064  0.1890
22838W        W38647  16.448  14.005   4.112  0.2969 -0.1070 -0.2548
22839W        W38648   3.673   7.607   4.730 -0.0474  0.0501 -0.4179
22840W        W38649  15.669   6.104  12.558  0.2604  0.2156 -0.1122
22841W        W38650   0.673  12.022   4.002 -0.1989 -0.2241  0.2514
22842W        W38651  11.154   9.507  12.667  0.0959  0.0365  0.1389
22843W        W38652  14.051  15.948  11.705  0.1174 -0.0416  0.3452
22844W        W38653  15.643   2.492   3.727 -0.0146 -0.0983 -0.0297
22845W        W38654  11.382  12.915  10.121  0.1459 -0.0239  0.0434
22846W        W38655  18.317   7.327  13.714  0.0796  0.1129  0.1977
22847W        W38656   5.885  10.923   1.891 -0.2426 -0.0282 -0.0097
22848W        W38657   9.472   4.685   1.468 -0.2377 -0.1403  0.3496
22849W        W38658  16.165  18.911   3.037  0.0096  0.1769 -0.0772
22850W        W38659  18.614   0.085   0.220 -0.1030 -0.0515  0.0848
22851W        W38660   6.560  15.138   4.652  0.0357 -0.0632  0.0457
22852W        W38661  15.459  10.326   0.760  0.3812 -0.2974 -0.1262
22853W        W38662   0.311   6.129   9.966  0.3866 -0.0444 -0.2229
22854W        W38663  17.906  16.407   0.915  0.0484 -0.4917 -0.2126
22855W        W38664   4.712  15.616  10.714 -0.0563  0.1814 -0.0493
22856W        W38665   7.877  12.879  13.087  0.0986 -0.2462 -0.3002
22857W        W38666  17.860  17.291   5.420 -0.0516  0.1247 -0.3017
22858W        W38667   1.217  17.471   5.592 -0.1011  0.0962  0.2177
22859W        W38668   2.935   8.302   3.623  0.0745  0.0463 -0.1711
22860W        W38669  12.674   5.820  11.325 -0.0366 -0.1673  0.0655
22861W        W38670  11.940   3.029   9.496  0.0238 -0.1682  0.1676
22862W        W38671   4.492  17.257   3.519 -0.3036  0.3200  0.0663
22863W        W38672  10.370   5.170   5.004  0.0573  0.2344  0.2476
22864W        W38673  15.224  18.742   2.022  0.0237 -0.0257 -0.1417
22865W        W38674  10.340  15.289  14.565  0.2150  0.0265  0.2136
22866W        W38675  18.017  17.879  13.749 -0.0701  0.0599  0.1516
22867W        W38676  17.712  10.015   3.603 -0.0722 -0.3142 -0.3725
22868W        W38677   1.337   1.538  11.211 -0.0041  0.0678 -0.2421
22869W        W38678   1.428  16.302   1.361 -0.0093  0.1713  0.1735
22870W        W38679   3.799   4.349  10.891  0.1955  0.0267  0.0736
22871W        W38680  15.064  15.119   4.158 -0.0063 -0.0881  0.2713
22872W        W38681   9.136   7.135  11.772  0.1246  0.1832  0.0499
22873W        W38682   7.497  14.289  11.863  0.0706 -0.1008 -0.1206
22874W        W38683   5.918   1.690  11.322 -0.0173 -0.1114  0.2241
22875W        W38684   3.635  10.499  10.354  0.0574 -0.1764 -0.0487
22876W        W38685  10.969  14.955   0.788 -0.1433  0.0523  0.0838
22877W        W38686  13.705   7.477   4.819 -0.1385 -0.1609  0.2673
22878W        W38687  12.154   0.936  14.033 -0.0739 -0.0069 -0.0984
22879W        W38688  11.781   1.562   5.148 -0.1975  0.2375 -0.2197
22880W        W38689  14.434   4.040   0.638 -0.1263  0.1069  0.0481
22881W        W38690  17.425   9.489   2.884 -0.1060 -0.1125  0.1727
22882W        W38691   0.793   8.916  11.791  0.1417  0.0982  0.2150
22883W        W38692   0.169   3.205  11.817 -0.2660 -0.0447  0.1190
22884W        W38693  14.321   6.243   2.747 -0.0649  0.2760  0.0767
22885W        W38694   3.410  14.105  11.548 -0.4189  0.1453 -0.2181
22886W        W38695   6.754  18.201  14.816 -0.0158  0.2352 -0.1105
22887W        W38696   2.507   2.781   5.304  0.1697 -0.0251  0.3629
22888W        W38697   2.332  10.835   4.249 -0.3224 -0.0309  0.1603
22889W        W38698  13.967  17.959   0.230  0.0063  0.0322 -0.1361
22890W        W38699  11.413  15.035  14.789  0.2090  0.2281 -0.0436
22891W        W38700  13.852  17.637  14.567 -0.2226  0.2191 -0.0029
22892W        W38701   0.987   0.296  11.806  0.1566 -0.0220  0.4544
22893W        W38702  17.840  18.108   2.609  0.1767  0.0399 -0.1501
22894W        W38703   9.413  13.672   0.004  0.4000  0.3709 -0.1239
22895W        W38704  10.070   4.638   5.417 -0.2549  0.0833 -0.0733
22896W        W38705   3.208   7.338   3.261 -0.0461 -0.0346  0.2463
22897W        W38706   2.542   0.593   2.853 -0.1040 -0.0081 -0.5083
22898W        W38707   6.555   5.222  11.518 -0.0536  0.0688  0.1595
22899W        W38708   0.680  15.281  15.073 -0.0181 -0.1286  0.2695
22900W        W38709  17.796  18.623   1.741 -0.4745 -0.0851 -0.1118
22901W        W38710   9.833   9.105  12.653  0.2179  0.2867 -0.0804
22902W        W38711  11.451   4.289  15.220 -0.3069 -0.1388  0.0045
22903W        W38712   1.082   6.639   4.712 -0.1062 -0.3880  0.1860
22904W        W38713   2.151   8.460  12.580  0.2174 -0.2804 -0.0728
22905W        W38714   6.136  10.449   4.283 -0.1175  0.2607  0.0662
22906W        W38715  14.969   2.713  11.003  0.0002  0.1225 -0.2837
22907W        W38716  12.021   0.630   5.283 -0.0809  0.0750  0.0768
22908W        W38717   0.630   2.147   2.637 -0.3848  0.2075  0.0356
22909W        W38718   4.839  12.757   4.069  0.0461  0.1896 -0.0367
22910W        W38719  16.408  16.510   3.775 -0.2378  0.4994  0.1890
22911W        W38720  11.540   9.963   4.662 -0.1619  0.0973 -0.2835
22912W        W38721   4.275  13.735  11.224 -0.2899 -0.0325 -0.0326
22913W        W38722   4.959   4.859   1.271  0.1587  0.0309  0.1214
22914W        W38723   7.801  17.826   0.387 -0.0184  0.0732  0.2140
22915W        W38724   9.236   2.782  11.480 -0.3805 -0.0015 -0.1258
22916W        W38725   4.299  11.487  12.972 -0.0481  0.1238  0.0128
22917W        W38726  17.729  10.545   3.509  0.2575 -0.1793 -0.1719
22918W        W38727   9.935  17.747  14.659  0.4835 -0.0823  0.3057
22919W        W38728  15.657  12.988   1.601  0.0414  0.3002 -0.0433
22920W        W38729  15.969  16.516   0.927  0.4537  0.0542 -0.1173
22921W        W38730  10.358  11.360  14.278 -0.1153 -0.0075  0.0582
22922W        W38731   3.456  13.101  11.586 -0.0185 -0.0257  0.2556
22923W        W38732   4.028  17.374   3.623  0.0685 -0.2248 -0.0159
22924W        W38733  16.640  14.590   1.851 -0.0661  0.0670  0.2064
22925W        W38734  13.889  15.346   2.852  0.0611 -0.0476  0.0866
22926W        W38735  12.848   4.444   9.632  0.1044 -0.1826  0.1971
22927W        W38736  13.994   3.524  12.578  0.2897  0.1121  0.2537
22928W        W38737   7.875   1.474   4.281  0.0231  0.0128  0.1395
22929W        W38738   6.224  16.950  11.822 -0.3631 -0.0993  0.2306
22930W        W38739   4.316  17.282   1.657  0.1675  0.2788  0.0140
22931W        W38740   7.345  13.999   1.907  0.0792 -0.4550  0.0134
22932W        W38741  12.250   3.223  12.937  0.1549  0.2355 -0.0417
22933W        W38742  13.922   0.548   3.697  0.0874 -0.0015  0.1712
22934W        W38743  14.941  15.984  13.682 -0.1405 -0.2101 -0.0690
22935W        W38744  11.215   5.990  11.430 -0.1585 -0.0194  0.2821
22936W        W38745  12.990  16.808   9.902 -0.0370  0.2338  0.0100
22937W        W38746  18.406  14.750   0.537 -0.1246  0.0340 -0.4605
22938W        W38747  17.097   7.056   4.105 -0.1296 -0.3152  0.0279
22939W        W38748   4.563   1.786  10.093  0.0517 -0.1180  0.4804
22940W        W38749   4.487  14.694   4.473 -0.1278 -0.0410 -0.0302
22941W        W38750   5.450  15.205  13.887  0.1076 -0.1056  0.0907
22942W        W38751   5.933   3.298   3.105 -0.1267  0.1465 -0.3587
22943W        W38752   5.653  10.734   4.140  0.2200 -0.2733 -0.0816
22944W        W38753  15.074   8.131  13.677  0.3505 -0.0103 -0.4102
22945W        W38754  14.191  18.591   1.353  0.1622 -0.1074  0.2532
22946W        W38755  16.521   6.667  14.635 -0.2561  0.0308 -0.4624
22947W        W38756  13.768   5.400  10.863 -0.0937  0.2216  0.0541
22948W        W38757   8.354  16.153  12.416 -0.1714 -0.1857  0.1478
22949W        W38758  13.359  15.278  13.695  0.2401 -0.1287  0.4541
22950W        W38759   1.593   3.880   4.336  0.2347  0.2287 -0.0434
22951W        W38760  13.749  11.620  11.643 -0.0411  0.0630  0.1841
22952W        W38761  12.543  16.012  11.254  0.3191  0.1676 -0.2521
22953W        W38762   3.444   3.997  11.621 -0.3639 -0.1106 -0.0186
22954W        W38763   9.283  15.683   1.120  0.0270  0.0642  0.0147
22955W        W38764   9.780   8.549  14.775  0.1700 -0.1082 -0.0817
22956W        W38765  10.654  10.851  13.534 -0.0804 -0.1364  0.1989
22957W        W38766  18.964   6.816   3.290 -0.0300 -0.1701 -0.3021
22958W        W38767  16.439   6.725  10.232 -0.1538  0.3815 -0.1229
22959W        W38768  14.215  12.943   5.739  0.1684 -0.1728  0.0066
22960W        W38769   8.209  17.607   4.476  0.0545  0.1974 -0.1268
22961W        W38770  11.879  14.091   5.667  0.0665  0.0777  0.0418
22962W        W38771   6.190  11.180  13.546 -0.1154 -0.1000 -0.3509
22963W        W38772   7.390   5.673  14.218  0.1726  0.0953  0.0191
22964W        W38773   7.910   7.657  11.966  0.0136  0.0751  0.0360
22965W        W38774   9.679   1.177  11.552 -0.0191  0.4205  0.0207
22966W        W38775  17.578   6.963  13.196  0.1285 -0.1014 -0.0342
22967W        W38776   6.286  18.053  14.789  0.0082  0.1743  0.1739
22968W        W38777  14.775  18.947   0.829  0.2813  0.0561 -0.0781
22969W        W38778   5.863  14.797   1.659  0.0611  0.3474 -0.1403
22970W        W38779  15.370   9.846   9.922 -0.0587 -0.0162 -0.2427
22971W        W38780   9.319  18.625  10.429 -0.1522 -0.1655 -0.0201
22972W        W38781   4.108  17.853   4.475  0.2975  0.1629  0.0807
22973W        W38782  18.860  18.871   2.472  0.0857  0.1464 -0.1123
22974W        W38783  12.107   9.752   1.723  0.2230  0.3377 -0.1413
22975W        W38784  10.741  18.994  10.566 -0.0531  0.0172  0.1129
22976W        W38785   5.988  10.488  12.706  0.4541 -0.2300 -0.0632
22977W        W38786   0.624   5.881  14.908  0.1183  0.0135 -0.0629
22978W        W38787   2.953   8.885  12.214 -0.3062 -0.1847 -0.1192
22979W        W38788  12.162   1.002  11.549 -0.3522  0.2322 -0.1626
22980W        W38789  10.259  16.062  11.011 -0.0230  0.0591  0.1557
22981W        W38790  12.215  11.263   5.819  0.1363 -0.1548 -0.2601
22982W        W38791   7.045   3.686   1.460 -0.1341 -0.0117 -0.0158
22983W        W38792   1.983   9.282   1.309  0.0396  0.0743 -0.2899
22984W        W38793  18.577   4.596   0.896 -0.0454  0.1809  0.2648
22985W        W38794   8.540   4.780  14.707  0.1491 -0.1027 -0.1343
22986W        W38795  13.914   2.492   1.693  0.0884 -0.3075 -0.3121
22987W        W38796   2.539  11.035   5.607 -0.2294 -0.0236 -0.2303
22988W        W38797   6.290   6.865   1.385  0.1556 -0.2906  0.0602
22989W        W38798  16.719  10.381  14.767  0.0356 -0.2096  0.0525
22990W        W38799   5.227   2.838   1.349 -0.0357 -0.2770 -0.1397
22991W        W38800  11.576  12.031   3.410 -0.3783  0.3922  0.0798
22992W        W38801  12.248  16.076   3.777  0.0355 -0.3744 -0.0340
22993W        W38802  14.695  16.818   2.400 -0.0304 -0.0896  0.0721
22994W        W38803   6.722   1.954   4.752 -0.0810  0.1092  0.0394
22995W        W38804   6.505  17.072   0.418 -0.1865  0.2463 -0.3206
22996W        W38805  10.064  10.729   5.380  0.2704  0.1697  0.1728
22997W        W38806  15.526  16.574  14.268 -0.3700 -0.0256 -0.2331
22998W        W38807   7.665  18.840   2.629 -0.0048 -0.1329 -0.0034
22999W        W38808  11.187  11.127   5.147 -0.0403  0.1561  0.3657
23000W        W38809   6.710   9.431   4.808 -0.0723  0.0355  0.2358
23001W        W38810   0.329  18.873   0.630 -0.1397  0.0523 -0.1146
23002W        W38811  14.755   0.723   4.231  0.0734  0.0765 -0.3667
23003W        W38812  17.688  10.492   4.443  0.0278 -0.1288  0.2799
23004W        W38813  12.053  11.289  11.482  0.0510 -0.1785 -0.1397
23005W        W38814  11.811   7.050  12.917  0.1822 -0.2658  0.1126
23006W        W38815  15.081   7.428   5.338 -0.2124 -0.2500  0.1006
23007W        W38816   2.437  10.777  14.338 -0.1353 -0.1493  0.2339
23008W        W38817   9.874   5.438   1.933 -0.1675 -0.1878  0.4096
23009W        W38818   0.081  12.448   2.833  0.4104 -0.0432  0.2854
23010W        W38819   3.174  13.897  11.936  0.0241  0.0531  0.1714
23011W        W38820   8.972  13.279  10.488 -0.2102  0.1130 -0.0012
23012W        W38821   9.635   5.495   0.589 -0.0718  0.1775  0.1283
23013W        W38822  19.020   9.598   0.729  0.4484 -0.0060  0.0185
23014W        W38823   5.853   9.326  14.677 -0.2534  0.4849  0.2417
23015W        W38824   6.236  14.296  14.777  0.0817  0.2943  0.1016
23016W        W38825  16.572   8.905   1.600  0.2451  0.1012  0.0436
23017W        W38826  15.411   5.651   4.148  0.1931  0.1047  0.0880
23018W        W38827  10.093   9.643  14.692 -0.0144  0.3770  0.0076
23019W        W38828   0.114  17.585   1.726  0.1720  0.2145 -0.2320
23020W        W38829   1.757  13.014   4.703  0.2657 -0.0327 -0.1749
23021W        W38830  11.077   1.789  11.845  0.0190  0.1523 -0.0572
23022W        W38831  14.671   3.981   1.990 -0.0699 -0.0490  0.1033
23023W        W38832  11.833   0.094   0.326 -0.1358 -0.3411 -0.0946
23024W        W38833   8.646  11.736   0.871  0.3955  0.2668 -0.1325
23025W        W38834  18.919  19.055  11.975 -0.0840  0.0836 -0.1283
23026W        W38835  10.572  15.549  13.413  0.1875  0.1487 -0.0619
23027W        W38836  10.293  13.703  12.009  0.1324 -0.1984  0.0193
23028W        W38837   7.787  16.293  10.362 -0.1981  0.0236 -0.1154
23029W        W38838  18.135  10.116   3.334  0.1270 -0.0153  0.0680
23030W        W38839   7.793  13.446  10.866  0.2294 -0.1760  0.2272
23031W        W38840  10.721   0.196  11.044 -0.0034  0.1254 -0.4322
23032W        W38841  17.204  16.153  11.156  0.1647 -0.3980 -0.2087
23033W        W38842  15.373  16.536   1.277 -0.2135 -0.1483 -0.0945
23034W        W38843   8.213   7.219   5.955  0.1477 -0.2789  0.1469
23035W        W38844   9.052   4.729   2.358  0.0302 -0.2714 -0.0251
23036W        W38845   5.821   7.578  15.099 -0.0147  0.0882 -0.3205
23037W        W38846  13.877   5.989  13.270 -0.1092  0.1984  0.2601
23038W        W38847  10.421   3.674  14.405  0.2390 -0.1766 -0.1942
23039W        W38848   9.001  16.884   3.599  0.0894 -0.1472  0.1934
23040W        W38849  18.462   4.529   4.853  0.0634 -0.1133  0.1462
23041W        W38850   7.399  15.964  15.259  0.1178  0.2501  0.1122
23042W        W38851  12.445  10.029  14.435  0.1170  0.1400 -0.0525
23043W        W38852   7.867   1.015   3.989  0.2060  0.0444  0.0396
23044W        W38853  12.009  11.146   4.550  0.2586  0.1059 -0.0975
23045W        W38854   8.092  14.039  12.270  0.3412  0.1104  0.0083
23046W        W38855   1.630  15.583  15.081  0.0428 -0.0406 -0.1415
23047W        W38856   7.168   0.894   0.576 -0.1075  0.0340  0.2897
23048W        W38857  18.990  13.865   5.703 -0.0752  0.2093 -0.1799
23049W        W38858  14.168  17.082   1.530 -0.1727 -0.0199 -0.1926
23050W        W38859  12.062   9.517   2.782  0.0089  0.2156 -0.1119
23051W        W38860   7.361  18.187  10.559 -0.0203 -0.1929 -0.0372
23052W        W38861   0.207  17.574   1.064 -0.1756 -0.2259  0.0475
23053W        W38862   1.629  11.865   1.034  0.0083 -0.0597  0.2205
23054W        W38863   0.222   0.713  12.814 -0.2205  0.0893  0.1586
23055W        W38864  14.303  11.751   3.997  0.0735  0.1150 -0.0743
23056W        W38865   7.218  11.259  13.693  0.0646  0.1060 -0.0574
23057W        W38866   2.114  12.953  11.978  0.4636  0.0273 -0.2229
23058W        W38867  12.090  12.474   2.954  0.1106 -0.1670  0.1448
23059W        W38868   9.662  10.325   2.445 -0.3795  0.0758 -0.1001
23060W        W38869   4.031   5.613   5.234  0.1053 -0.1975  0.3555
23061W        W38870   6.575   5.844   4.509  0.0955  0.1763  0.1661
23062W        W38871  16.176   4.614   3.278  0.3116  0.0308 -0.2060
23063W        W38872  15.178   0.688  14.019  0.3598 -0.1879  0.0097
23064W        W38873  12.657  13.398  15.053 -0.0308  0.1620  0.1034
23065W        W38874   8.153   1.825  10.418 -0.0765 -0.0108 -0.2172
23066W        W38875   3.013  17.663  10.312  0.3001 -0.0963 -0.1569
23067W        W38876  14.620  19.122   4.710 -0.1699  0.2692  0.0118
23068W        W38877   8.083  13.395   0.413 -0.1785 -0.1873 -0.2608
23069W        W38878  14.619  15.842   1.345 -0.1175 -0.2783 -0.0103
23070W        W38879   6.777   7.176   0.714  0.2689 -0.0958 -0.0465
23071W        W38880  16.368  13.366   4.143 -0.0623  0.2488  0.0536
23072W        W38881   0.359   9.631   3.872  0.3708 -0.1950 -0.1847
23073W        W38882   1.483   3.938   2.470 -0.0326  0.3165 -0.0507
23074W        W38883   6.209  16.709   4.963 -0.0310 -0.2319  0.0308
23075W        W38884  11.269   6.666   2.532  0.1130  0.2482  0.1277
23076W        W38885   6.108  11.001  12.983 -0.1626 -0.1258  0.1167
23077W        W38886   8.661  17.072   5.541 -0.0583  0.3306  0.0147
23078W        W38887   7.727  15.411  14.050  0.3279  0.0727  0.1496
23079W        W38888  14.453  10.427  12.127  0.0191 -0.2589  0.1823
23080W        W38889  12.804   8.874  12.908 -0.1165  0.1917  0.2811
23081W        W38890  11.832   1.949   4.821  0.3598  0.1507  0.4050
23082W        W38891  18.339  12.091  12.113  0.1085 -0.1219  0.2378
23083W        W38892   4.280   5.275  14.102  0.1048  0.2948  0.3781
23084W        W38893  13.269  11.326   4.703 -0.2348  0.0786 -0.2494
23085W        W38894  16.983   9.937  11.703 -0.0950 -0.0097  0.2454
23086W        W38895   0.180  13.104   1.201 -0.0980  0.3942  0.0268
23087W        W38896  11.963   0.670   1.951  0.0157 -0.1994  0.1062
23088W        W38897  17.228   9.977   5.055 -0.2122 -0.1403  0.0216
23089W        W38898   1.412   9.810  13.650  0.0033  0.0369 -0.2043
23090W        W38899   4.850  12.544   5.022  0.1741  0.2369 -0.1345
23091W        W38900  18.739  11.798   4.836  0.1330 -0.2030  0.0900
23092W        W38901   2.138  15.104   3.953  0.1533  0.2015  0.0113
23093W        W38902  13.679   2.158  12.650 -0.0535  0.1894  0.1832
23094W        W38903   9.125  16.901   0.952  0.0211  0.0225  0.0753
23095W        W38904  13.798  15.745  11.214 -0.0631 -0.0164 -0.2489
23096W        W38905   0.576  15.332  14.167  0.2446 -0.1577 -0.0226
23097W        W38906   5.621   3.609   0.205  0.0083  0.1685  0.1816
23098W        W38907  18.604   5.519   9.803 -0.0866  0.0955  0.0286
23099W        W38908  13.678   6.073   1.241  0.0436  0.1119  0.0590
23100W        W38909   4.631   4.250  13.411 -0.1527  0.0446 -0.0358
23101W        W38910   3.666  14.903  10.163 -0.0435  0.1888  0.2121
23102W        W38911  18.022  15.606  12.624 -0.2602 -0.1045 -0.1071
23103W        W38912  10.742  13.138   3.683 -0.0073  0.1578  0.1451
23104W        W38913  12.588  15.322  14.132 -0.0840 -0.0497  0.2701
23105W        W38914  18.270  10.246  14.964 -0.0516  0.3043 -0.1080
23106W        W38915  11.591   7.140  11.646 -0.2391  0.2751 -0.1199
23107W        W38916   2.985   9.036   2.044 -0.0129  0.1174  0.1206
23108W        W38917  14.717   3.708  12.759  0.2657  0.1603 -0.1983
23109W        W38918   3.284   9.189  11.060  0.2437 -0.1602  0.0930
23110W        W38919   6.501   7.414  10.858  0.0720 -0.0844 -0.2304
23111W        W38920  10.919  14.453  12.249 -0.1813  0.2180 -0.0736
23112W        W38921  15.223   9.584  13.869  0.2059 -0.2165  0.0344
23113W        W38922  10.107  10.807  13.639 -0.2122 -0.0725  0.4307
23114W        W38923   4.404  10.109   1.552 -0.0760 -0.0939  0.1758
23115W        W38924  17.179   8.180   9.850  0.2159 -0.1911  0.2856
23116W        W38925  17.429   8.110  11.820  0.0979 -0.0011  0.1390
23117W        W38926   6.274   8.068   0.578 -0.1296  0.1538  0.1260
23118W        W38927  17.850   7.408   0.528  0.0839 -0.2953 -0.0405
23119W        W38928  11.239   0.071  11.915  0.0218  0.0455 -0.0450
23120W        W38929  10.963  11.797  13.590  0.3687 -0.1689 -0.5113
23121W        W38930   4.893   8.653   2.453  0.4249 -0.0406 -0.2471
23122W        W38931  17.005  13.617  14.456  0.0092  0.0846  0.0206
23123W        W38932   5.415   7.014   5.438  0.1397  0.1691  0.0605
23124W        W38933   2.877  10.594   0.576  0.0360 -0.2677 -0.0020
23125W        W38934   4.681   6.231   0.368 -0.0813 -0.0371 -0.0178
23126W        W38935   3.865   8.244  13.497  0.0623  0.0085 -0.1032
23127W        W38936   1.547  10.987   1.733 -0.3139 -0.0600 -0.1415
23128W        W38937   9.465   4.700  14.096  0.1867  0.1219  0.4728
23129W        W38938   6.361  14.454  15.200  0.3737 -0.1094 -0.1567
23130W        W38939  17.245   7.654   5.207 -0.0765  0.3241  0.0436
23131W        W38940  11.473   6.236   0.310  0.1105 -0.1901 -0.4294
23132W        W38941   1.485   3.487   0.306  0.5099  0.0564 -0.1797
23133W        W38942  16.263  11.902   5.067  0.0449  0.0763 -0.0551
23134W        W38943   6.348  12.501  13.179 -0.0845  0.1035 -0.0703
23135W        W38944  10.585  14.936  14.837 -0.0083  0.1512  0.3968
23136W        W38945   8.424  12.471   3.544  0.0326 -0.0381  0.0389
23137W        W38946   7.270   8.153  13.438 -0.1489 -0.1091 -0.0839
23138W        W38947   6.164  14.672  14.438 -0.2267 -0.1858  0.3092
23139W        W38948  18.464   9.612   3.624  0.1471  0.1214  0.0187
23140W        W38949   3.478  15.655  12.696 -0.2569  0.0926  0.2038
23141W        W38950   3.175   3.827  14.663 -0.1850 -0.1992 -0.1955
23142W        W38951   1.141  12.006  11.501  0.0866 -0.1003  0.0800
23143W        W38952   5.084   2.705   1.821 -0.1365 -0.2689 -0.1198
23144W        W38953   1.933  10.393  13.300 -0.2474  0.0630 -0.2430
23145W        W38954   2.769  12.406  12.358  0.4988  0.2412  0.0922
23146W        W38955  10.770  12.192   2.748 -0.1971  0.3954  0.3488
23147W        W38956  12.797   1.125  10.907 -0.1330  0.1045 -0.0022
23148W        W38957  12.338  18.613   1.210  0.0566 -0.0461  0.0936
23149W        W38958  18.939   0.731  10.649 -0.0521 -0.4446 -0.2038
23150W        W38959   6.392  16.814   1.909  0.0475 -0.1122  0.0783
23151W        W38960  12.646   1.041   0.722  0.1084 -0.3395  0.3742
23152W        W38961   9.867  10.038   3.632  0.1164  0.1757 -0.2105
23153W        W38962   3.010   5.779  10.570 -0.4149  0.0562  0.1731
23154W        W38963  17.561  16.652   2.465 -0.0466  0.1223  0.0502
23155W        W38964  17.113   4.092  12.168 -0.1669  0.1333 -0.0277
23156W        W38965   5.838  15.677   1.927 -0.0098  0.0307 -0.1440
23157W        W38966  14.060  14.599  12.198 -0.0654  0.1533  0.2802
23158W        W38967  14.189  12.846  13.049  0.0058 -0.3144 -0.0157
23159W        W38968   8.147   4.586  14.157  0.0610  0.0566  0.1987
23160W        W38969  15.650   3.748   3.691 -0.1338 -0.4122  0.0832
23161W        W38970  18.803  14.138   2.094  0.0206  0.0388 -0.2303
23162W        W38971  13.962   6.864   1.891 -0.0247 -0.0036  0.0728
23163W        W38972   8.761   5.208  11.982 -0.3025  0.3405  0.1066
23164W        W38973  15.577  13.691   0.386  0.3126  0.0980  0.0913
23165W        W38974  11.810   5.932  10.773 -0.0668  0.1361 -0.3953
23166W        W38975  15.159  11.582   3.164  0.1147  0.0458 -0.5305
23167W        W38976  16.746   7.074  11.949  0.0245  0.3661 -0.2557
23168W        W38977   2.908   9.511  10.885  0.1528 -0.1291 -0.0631
23169W        W38978   7.677   5.746   1.466  0.3074 -0.0701 -0.2814
23170W        W38979  13.341   6.616   3.183 -0.0998 -0.3664  0.2710
23171W        W38980   5.715   6.133  11.759  0.0462  0.1509 -0.1091
23172W        W38981   4.896  12.585   0.680 -0.3530  0.3441 -0.0524
23173W        W38982   3.725   2.862  12.831 -0.2853  0.2849  0.0646
23174W        W38983   6.863  16.910   2.869 -0.1324 -0.0428 -0.2655
23175W        W38984   9.867  18.661  14.996  0.1596 -0.1581 -0.1689
23176W        W38985   0.345   4.630  15.261 -0.1848  0.1169  0.1971
23177W        W38986   1.019  11.823   1.199  0.0158  0.0985 -0.2608
23178W        W38987   0.557  16.078  12.091  0.1602 -0.4266  0.2132
23179W        W38988   6.020  13.930   0.521 -0.1800  0.2828 -0.0432
23180W        W38989   5.984   5.187  10.140  0.1016 -0.2958  0.1134
23181W        W38990  16.714   9.282   2.776 -0.0570  0.0037  0.0822
23182W        W38991   3.231  17.923  11.127  0.0374  0.1440  0.1205
23183W        W38992   2.661   3.965  14.556  0.4456  0.0773  0.1533
23184W        W38993   8.482  13.936   4.532 -0.1797  0.1806 -0.0798
23185W        W38994   9.554  18.349  11.004  0.0823  0.2222 -0.4417
23186W        W38995  15.462  13.647   3.911  0.2843  0.1673  0.5619
23187W        W38996  17.630   2.545   2.975 -0.4986 -0.0269 -0.0502
23188W        W38997   3.593  14.381   5.627 -0.0660  0.2703 -0.0586
23189W        W38998  14.192  16.377   4.889  0.2433  0.2440 -0.1018
23190W        W38999  11.655  15.201  14.399  0.3396  0.1461 -0.3738
23191W        W39000  14.718  16.262   3.343  0.0288  0.0598 -0.1773
23192W        W39001  18.178  12.228   0.535  0.0171 -0.0646 -0.1672
23193W        W39002  13.782   1.903   2.342  0.1371  0.0198 -0.0889
23194W        W39003  11.237  14.179   2.569 -0.2000 -0.0699  0.1512
23195W        W39004  17.952  10.899   0.121  0.1478 -0.0124 -0.2036
23196W        W39005  17.638   4.490   1.768 -0.3458  0.1849 -0.1216
23197W        W39006   7.605  12.292  10.506  0.2021 -0.1815 -0.2861
23198W        W39007   2.483  16.829   2.502 -0.2405  0.0045  0.1204
23199W        W39008  16.339   5.582  12.178 -0.1809 -0.1178 -0.0666
23200W        W39009   0.610   0.880   1.192 -0.4224  0.2335  0.0915
23201W        W39010   9.219   2.768   3.081  0.2332 -0.4294  0.0211
23202W        W39011  18.864  10.098  11.430 -0.0505  0.1165  0.1133
23203W        W39012   9.510   4.151   9.596 -0.2041 -0.0547  0.0094
23204W        W39013   1.167  12.596   5.273  0.0927  0.2908  0.1577
23205W        W39014   2.287  16.827  15.224  0.3510 -0.2701  0.1550
23206W        W39015  16.025   7.910   4.359  0.0956  0.0396 -0.1100
23207W        W39016  10.207   2.001  15.159  0.0839 -0.0904 -0.0325
23208W        W39017   9.760  17.496  11.477 -0.3214  0.1855 -0.1547
23209W        W39018   6.133  13.831   1.941  0.0639 -0.0219 -0.0590
23210W        W39019   4.979   5.938  14.207  0.1039  0.1290  0.0358
23211W        W39020   3.624   7.377   2.923  0.0403  0.2607 -0.3310
23212W        W39021   3.711   2.367   1.896 -0.0149  0.0536 -0.0364
23213W        W39022  11.572   0.912   2.061  0.0179 -0.0299 -0.1202
23214W        W39023  16.938  15.743  14.319 -0.0128  0.1405 -0.0676
23215W        W39024   7.919   5.872  14.232 -0.1175 -0.1895  0.0781
23216W        W39025   6.230   4.395  14.237 -0.0781  0.2462 -0.0905
23217W        W39026   7.637  16.353   1.747 -0.1072  0.0094 -0.2126
23218W        W39027  19.051   7.510   1.896 -0.2298  0.0329  0.0293
23219W        W39028   1.426  17.675  12.888  0.0093 -0.0482 -0.3223
23220W        W39029   4.801  12.303  14.105  0.2297 -0.1483 -0.5557
23221W        W39030   5.614  15.313   4.090 -0.1603 -0.0605 -0.1994
23222W        W39031   0.410   2.096  12.839  0.2960  0.0619  0.1541
23223W        W39032  12.347   7.611   4.691  0.0281 -0.2835  0.0642
23224W        W39033   8.124   1.033  13.414 -0.0311 -0.1918 -0.2254
23225W        W39034   6.093   9.924   5.286 -0.0065 -0.3564 -0.1152
23226W        W39035   7.441   1.337   1.479 -0.0852  0.0557  0.2492
23227W        W39036   6.336   3.174  13.940  0.1266  0.0139 -0.0198
23228W        W39037   0.576  14.614  14.769  0.2123 -0.1170  0.2420
23229W        W39038   5.301   5.936   3.339  0.1833  0.2973 -0.1599
23230W        W39039   1.282  16.562   1.789 -0.1765 -0.0876  0.1998
23231W        W39040  15.117  18.995   1.159 -0.1148 -0.1747 -0.1741
23232W        W39041   4.369   1.454  12.815  0.5299 -0.0025  0.0560
23233W        W39042  18.144  12.418   2.138 -0.2148  0.0285  0.1353
23234W        W39043   9.661   2.364  11.055 -0.3029  0.0531  0.1496
23235W        W39044   8.624  17.025   4.000  0.2489  0.0473  0.0885
23236W        W39045  17.542   8.832  11.082 -0.0824  0.0550  0.1089
23237W        W39046  19.000   6.973   1.128  0.4812  0.1258  0.0057
23238W        W39047   0.887  10.656  13.332  0.2743 -0.1053 -0.0468
23239W        W39048   2.700   9.402  13.023  0.1175 -0.0203  0.4342
23240W        W39049   7.662  11.536  11.517  0.0567 -0.0748  0.2200
23241W        W39050   7.488   7.581   0.436  0.2911  0.2704  0.0958
23242W        W39051   6.910  14.362   1.761 -0.0477 -0.2243 -0.1392
23243W        W39052   1.787  10.811   2.877  0.0427 -0.0650  0.0222
23244W        W39053  14.729   7.212   3.147 -0.2064  0.0540 -0.2088
23245W        W39054   6.331  13.229   2.088  0.0623 -0.1322 -0.3039
23246W        W39055  12.955   5.256   1.801 -0.0364 -0.2660  0.1063
23247W        W39056  17.734  16.286   5.140  0.1909 -0.2620  0.4264
23248W        W39057  12.848   4.402   2.553 -0.0534  0.1781 -0.1269
23249W        W39058   9.281   2.353   0.921  0.1942  0.3249  0.2242
23250W        W39059  13.278   3.126   0.180 -0.0751  0.0533 -0.1899
23251W        W39060   0.307  15.607   4.649 -0.1908 -0.0985  0.0259
23252W        W39061  18.306   1.569  11.577  0.2954 -0.1778  0.2745
23253W        W39062   7.626   4.373   0.021  0.3123  0.1471 -0.1053
23254W        W39063  12.757  12.307  13.664  0.1106  0.2885  0.1376
23255W        W39064   2.618  16.509  13.538  0.2707  0.0658 -0.1978
23256W        W39065  10.024  11.378  10.509  0.2502 -0.1551 -0.0154
23257W        W39066   1.913   0.606  15.216  0.3002 -0.0089 -0.1434
23258W        W39067  17.945  10.097   9.751 -0.2126  0.1704 -0.1222
23259W        W39068  15.355   2.668  13.191 -0.2001  0.0026 -0.0502
23260W        W39069   8.387   0.479  11.651  0.1608  0.1312 -0.1758
23261W        W39070   1.210   5.904   0.456 -0.4723 -0.2172  0.2939
23262W        W39071   4.468   7.123  11.812  0.1009  0.2366  0.1047
23263W        W39072  10.078  18.702   0.763 -0.5030  0.0028  0.0778
23264W        W39073   6.210   5.915  12.927  0.2890  0.1209 -0.3184
23265W        W39074   6.234   3.569  13.690 -0.4213  0.0801 -0.1332
23266W        W39075   7.114   2.904  11.222  0.0297 -0.4182 -0.3517
23267W        W39076   9.333  14.505   3.611  0.0281  0.2318  0.2381
23268W        W39077  18.506   4.762  10.544  0.3039  0.1088 -0.2020
23269W        W39078   4.881  11.738  11.610 -0.1930 -0.4516 -0.3189
23270W        W39079   7.382  16.907   2.985 -0.1127  0.3081 -0.1418
23271W        W39080   7.138   0.494   1.174  0.0689 -0.1579  0.0249
23272W        W39081  14.897  11.123   1.569  0.1080 -0.0822  0.1492
23273W        W39082   3.693  15.905   0.609  0.2336  0.1211  0.2238
23274W        W39083  10.251   9.897  12.569 -0.0917  0.1805  0.2073
23275W        W39084  18.346   9.487  10.223 -0.0167 -0.3746 -0.3747
23276W        W39085  10.081  12.384   1.083  0.1143  0.1837 -0.0474
23277W        W39086  11.911  18.217   4.001  0.1648 -0.0642  0.1256
23278W        W39087   2.551   9.894   4.198  0.0856  0.1664 -0.1988
23279W        W39088  10.678  16.319  12.948 -0.0129 -0.2506 -0.0497
23280W        W39089  10.596  17.577   0.598 -0.2121 -0.3140 -0.2695
23281W        W39090   9.373   1.595  14.741  0.0922 -0.0959  0.0425
23282W        W39091   0.073  10.681   2.046 -0.2234  0.0659 -0.0774
23283W        W39092   2.253  16.796  13.789 -0.0089  0.0886 -0.3470
23284W        W39093  15.794  18.241  11.716 -0.4029  0.0012  0.0141
23285W        W39094  15.537   8.284   4.993 -0.3312 -0.0461  0.0878
23286W        W39095   2.286   0.568   3.547 -0.1404  0.0022  0.1083
23287W        W39096   5.114   4.173  14.164  0.2219 -0.0101  0.3731
23288W        W39097  13.053  13.925   3.732  0.2037 -0.1741 -0.2935
23289W        W39098   0.811   5.787   1.729 -0.1664  0.1278 -0.2133
23290W        W39099   0.581   4.778  14.775  0.3218  0.0029 -0.0478
23291W        W39100  10.197  14.994   2.667  0.1469  0.0710 -0.0313
23292W        W39101   2.190   9.958  13.351 -0.0523  0.1636 -0.0149
23293W        W39102   2.535  15.465  13.929 -0.1137 -0.1018 -0.1377
23294W        W39103   3.880   7.115   2.541  0.1768 -0.1552  0.0128
23295W        W39104  10.483   8.371  13.766 -0.1125  0.2387 -0.3211
23296W        W39105  18.560  10.809   3.979 -0.1354  0.1615  0.3688
23297W        W39106  18.346  14.661   4.261  0.0044 -0.2712 -0.0003
23298W        W39107  15.164  12.948   1.669  0.2523  0.0466  0.2887
23299W        W39108   2.526  14.878  13.579  0.0406 -0.0772  0.2817
23300W        W39109  18.993  14.211  11.431 -0.0229  0.1864  0.0299
23301W        W39110   7.780   5.981   4.252 -0.5382  0.0185  0.3894
23302W        W39111  13.388  11.460   2.746 -0.3117 -0.0998 -0.3259
23303W        W39112  11.873   7.450   2.706 -0.3018 -0.0807 -0.0277
23304W        W39113  17.122  14.588  14.556  0.1333  0.2670  0.1097
23305W        W39114   2.005   3.895   9.149 -0.1761 -0.2504  0.0672
23306W        W39115  15.066  14.319   0.194  0.1055 -0.0457 -0.0310
23307W        W39116  16.756   1.332   2.275 -0.3244  0.3110 -0.0799
23308W        W39117   0.377   7.979   1.257  0.1550 -0.0125 -0.2703
23309W        W39118   5.459  11.515   1.262 -0.1180 -0.3520 -0.0043
23310W        W39119   6.298  17.803  11.695  0.2883 -0.0146  0.0469
23311W        W39120   7.368   8.402  10.594  0.2105  0.3363  0.0427
23312W        W39121  16.229   4.316   4.601 -0.2448 -0.0339 -0.2688
23313W        W39122   9.841   7.747   0.373  0.1347 -0.0738  0.0114
23314W        W39123  16.552   4.234   3.994 -0.1004 -0.1369  0.1761
23315W        W39124  16.242   9.689  10.992  0.2282  0.4200  0.1490
23316W        W39125   1.895   4.939   4.301 -0.0295  0.0863  0.2193
23317W        W39126   7.475  13.866   0.308  0.3318 -0.0163 -0.0535
23318W        W39127  13.399  10.333  10.952  0.2171  0.0337 -0.1668
23319W        W39128   0.500  11.984  13.674  0.1618 -0.2250 -0.2846
23320W        W39129  10.123  17.445  13.467 -0.0532 -0.1610 -0.1017
23321W        W39130  10.709   0.338   3.080 -0.1914  0.0518 -0.3970
23322W        W39131   4.072   0.942  13.402  0.0700  0.0636  0.0472
23323W        W39132   5.490   6.708  14.066  0.4221 -0.2346 -0.0328
23324W        W39133   1.385   4.970  14.248 -0.2718 -0.0514 -0.0102
23325W        W39134   4.089  10.468  11.895 -0.2231  0.0629  0.2932
23326W        W39135   6.653  15.965   1.729 -0.0389  0.0382 -0.1906
23327W        W39136  17.501   3.707   1.271 -0.2372 -0.5276 -0.0637
23328W        W39137   9.993  10.144  10.552 -0.2238 -0.2080  0.0954
23329W        W39138  11.639   4.354   3.882  0.0298 -0.0129  0.1112
23330W        W39139   3.039  13.184   3.843 -0.4754 -0.0556  0.2907
23331W        W39140   6.491  11.403   2.279 -0.2847 -0.1548  0.2116
23332W        W39141  11.869  18.456  11.036 -0.1405 -0.0624  0.0360
23333W        W39142   4.878   7.895   4.600 -0.1516 -0.1767 -0.0281
23334W        W39143  16.892   8.322   3.502 -0.0534  0.0604  0.2235
23335W        W39144   1.846   0.786  14.702 -0.1813 -0.2827  0.2107
23336W        W39145  17.479  15.298   5.243 -0.0226  0.1075 -0.0714
23337W        W39146   8.116   4.332  10.809 -0.4271  0.3633 -0.1800
23338W        W39147   6.072  11.828   4.291  0.1291  0.1588 -0.1213
23339W        W39148   4.017   4.182   2.783  0.1802 -0.0254  0.0560
23340W        W39149   2.036   6.187   0.972 -0.1866 -0.0209 -0.6447
23341W        W39150   4.765  14.428   1.710  0.4462  0.1869 -0.3657
23342W        W39151   7.995  14.749  12.657 -0.3750 -0.2335 -0.0947
23343W        W39152   8.843   1.013   0.015 -0.2041 -0.1844  0.0726
23344W        W39153  14.800  17.686   3.366 -0.1548  0.3175  0.0043
23345W        W39154  11.321  13.853  12.927 -0.2638 -0.1373 -0.1176
23346W        W39155   7.169  11.478   2.975 -0.2044  0.0159 -0.1073
23347W        W39156  12.205  13.609   1.462  0.4367 -0.1872 -0.2005
23348W        W39157  17.212   7.190   1.656 -0.1897 -0.1624  0.2170
23349W        W39158   5.665   6.589  13.414 -0.2813 -0.0712 -0.2141
23350W        W39159   2.775   4.558   9.969 -0.0469 -0.2057  0.0507
23351W        W39160  14.146  12.110   0.822  0.0719  0.1335 -0.1544
23352W        W39161   3.055   7.196  11.188  0.0043  0.1770  0.3027
23353W        W39162  14.058   7.043   2.734  0.0390 -0.0518  0.3673
23354W        W39163  15.785  18.031  11.148 -0.0914 -0.0429  0.0610
23355W        W39164  13.452  17.378   0.341 -0.1388 -0.2182 -0.2906
23356W        W39165   5.075  16.714  12.571  0.2780  0.1981 -0.0570
23357W        W39166   9.604  15.822   2.573 -0.2548  0.1125  0.1088
23358W        W39167  18.258   0.497   5.051 -0.2516  0.1380 -0.0724
23359W        W39168  15.103  15.403   1.259 -0.0968 -0.0890  0.0215
23360W        W39169  16.852  12.440   0.999 -0.0821 -0.0074  0.2487
23361W        W39170  15.773  11.293  13.799  0.1198  0.0431  0.5203
23362W        W39171   9.279  11.240  14.218 -0.2778  0.0443  0.0672
23363W        W39172   1.172  10.647  12.862  0.1820  0.0745 -0.1568
23364W        W39173  14.682   9.318  13.212  0.3456  0.2293  0.4046
23365W        W39174   9.257   9.580   0.372  0.1706 -0.5010  0.4150
23366W        W39175   0.516   1.170  11.990 -0.0321  0.1190  0.1097
23367W        W39176   1.632  15.249   2.739  0.0390 -0.0542  0.5722
23368W        W39177  14.821   0.184   3.876  0.1115  0.0443 -0.2506
23369W        W39178  11.542   8.449  11.971  0.3640  0.0149  0.0889
23370W        W39179  12.039  11.522  15.073  0.0842 -0.2621  0.1828
23371W        W39180  12.847   0.954   4.427 -0.1047  0.3424  0.1556
23372W        W39181  11.024   4.506   4.985  0.1249 -0.2845  0.0581
23373W        W39182   5.236   8.508  15.093  0.3237 -0.2005 -0.0649
23374W        W39183   9.116   8.980  12.284  0.2379  0.0960 -0.0951
23375W        W39184  10.579  12.178  12.526 -0.1428 -0.1251  0.2486
23376W        W39185  11.989  17.416   0.689  0.0149 -0.0799 -0.1701
23377W        W39186   1.540  15.547   0.684  0.1677  0.1855 -0.1672
23378W        W39187  11.832   1.087   4.695 -0.0460 -0.4678  0.0930
23379W        W39188   4.529  10.092   3.084 -0.2427 -0.1249  0.3259
23380W        W39189   4.923   8.011   1.888  0.1475  0.0147 -0.2044
23381W        W39190   6.016  11.818  12.962 -0.0606 -0.0225  0.0750
23382W        W39191  16.521   3.758  14.308  0.1086 -0.2779 -0.0378
23383W        W39192   4.150   5.837  14.332 -0.2307 -0.1524  0.1485
23384W        W39193  17.718  10.664  12.836  0.1776  0.0327  0.3788
23385W        W39194  15.988   3.792   4.637 -0.0319  0.1536  0.1131
23386W        W39195  10.633   6.375   3.801  0.0823  0.0263 -0.0805
23387W        W39196  11.024   5.644  12.973  0.1182 -0.0406  0.2263
23388W        W39197  18.728  15.837   3.167 -0.1260 -0.0120 -0.3404
23389W        W39198  18.154  11.681  12.861 -0.3671  0.0768  0.1528
23390W        W39199   6.436   8.723   2.354  0.0910 -0.0897  0.1126
23391W        W39200   7.047  18.715   0.169  0.1610 -0.1628 -0.1405
23392W        W39201   2.187  10.518  13.964 -0.0186 -0.0676 -0.3950
23393W        W39202  15.350   4.002  10.727  0.1281  0.1329 -0.1946
23394W        W39203  10.842  13.050  11.900 -0.1235  0.1518 -0.2950
23395W        W39204  18.175   3.357   3.205  0.1538  0.2670 -0.0165
23396W        W39205  10.058  15.914   1.758 -0.3151 -0.0661  0.2392
23397W        W39206  13.352  14.995   4.380  0.2716  0.1576 -0.0758
23398W        W39207   3.042  15.799   2.676 -0.3306  0.0609  0.0608
23399W        W39208  14.766  12.759   3.789  0.0304 -0.1763  0.1831
23400W        W39209   7.809  12.986   1.355  0.0344  0.0719 -0.2465
23401W        W39210   8.868   9.398   4.104  0.3394  0.1394 -0.4790
23402W        W39211  12.787   2.011   1.869 -0.2064  0.0882 -0.0106
23403W        W39212   8.501  12.988   0.811  0.2838  0.2944  0.1173
23404W        W39213   4.263  15.124   0.022  0.0312  0.1592  0.0666
23405W        W39214   6.563  14.456   9.603 -0.2229  0.0442  0.0196
23406W        W39215   0.507   8.719   0.924 -0.0149  0.1253  0.0661
23407W        W39216   3.625   4.225  14.480  0.1864  0.0046  0.0280
23408W        W39217  16.883  11.636   2.573  0.3005 -0.0841 -0.0671
23409W        W39218   6.304   7.133   3.463 -0.0139  0.0767  0.0314
23410W        W39219  14.375   5.209  13.981 -0.0535 -0.0463  0.0722
23411W        W39220   5.897   7.706  11.379 -0.0253 -0.0725  0.2714
23412W        W39221  16.277  11.186   1.699 -0.0129 -0.3219 -0.0930
23413W        W39222   0.974   1.876   2.481  0.0095  0.1968 -0.0323
23414W        W39223   2.929  10.178  12.462  0.1594 -0.1004 -0.0626
23415W        W39224   8.516  13.203  11.552 -0.0084 -0.3596  0.0527
23416W        W39225  16.837   2.394   1.596 -0.4295  0.0292  0.2526
23417W        W39226  10.091  18.303  14.714  0.1022 -0.2569  0.0506
23418W        W39227  14.560   9.789   4.224  0.1072  0.0554  0.3315
23419W        W39228   1.551   6.266   1.148 -0.0164  0.3621 -0.0569
23420W        W39229   3.150   7.444  13.596 -0.1840 -0.0506  0.2947
23421W        W39230  10.611   2.603  14.020 -0.2124 -0.0851  0.0316
23422W        W39231  17.525   6.844   2.540  0.0129 -0.1219  0.2334
23423W        W39232   6.916   3.305   0.732 -0.1577 -0.1690  0.4443
23424W        W39233  18.709  16.431   2.913  0.0980 -0.1695  0.0736
23425W        W39234  17.226  17.011  13.368 -0.0359 -0.0535  0.0008
23426W        W39235   3.500  16.259  14.658  0.0680 -0.0952 -0.1071
23427W        W39236   5.140  14.808  12.918  0.1635 -0.1196 -0.2278
23428W        W39237   3.542  10.364  11.624 -0.3025 -0.3558  0.2189
23429W        W39238  12.283   4.678   1.802 -0.1425 -0.2536 -0.1100
23430W        W39239  14.014   0.497  13.445  0.1990 -0.2297  0.1745
23431W        W39240  11.818   3.947   1.393 -0.1130  0.0790 -0.0104
23432W        W39241  14.776   4.430   0.598  0.0473  0.0673 -0.1343
23433W        W39242   6.171   5.361   5.123  0.2192  0.1828  0.0616
23434W        W39243  14.389   7.022   3.990 -0.0910  0.0761  0.0885
23435W        W39244   2.883   2.216   1.500 -0.0027  0.4902  0.0824
23436W        W39245   0.809   0.168  14.215  0.1124 -0.1021  0.1016
23437W        W39246   3.819   7.012  10.920 -0.1982  0.1632  0.3583
23438W        W39247  12.880  15.604   2.761 -0.2889 -0.2073 -0.4781
23439W        W39248   2.194  14.075  14.855  0.0343 -0.0701  0.0300
23440W        W39249  17.662  14.491   2.687  0.1853  0.2208 -0.0568
23441W        W39250   3.748  13.318   9.890  0.1551  0.0672 -0.0254
23442W        W39251   1.561   5.715   2.762 -0.2249 -0.1048  0.1588
23443W        W39252   4.504  13.314   2.407 -0.1453 -0.0735  0.0508
23444W        W39253  17.636   6.022   4.671  0.1841  0.4675 -0.3339
23445W        W39254  14.950   6.363  12.180 -0.0477  0.0030 -0.0014
23446W        W39255   6.516  15.499   3.650  0.0188  0.0076  0.3725
23447W        W39256  14.343  10.032   2.730 -0.1134 -0.0774 -0.0615
23448W        W39257  14.661  18.919  12.251  0.1904 -0.1039 -0.3719
23449W        W39258  10.638  17.112   1.518 -0.0111 -0.0222  0.4244
23450W        W39259   3.352  12.847   0.620 -0.2664 -0.3462 -0.2677
23451W        W39260  10.085  11.112   2.971  0.0104 -0.1242 -0.1132
23452W        W39261  17.711  12.677  13.891  0.3481  0.0261  0.1505
23453W        W39262   7.238  15.444   0.073 -0.1060  0.1400 -0.1369
23454W        W39263   5.270   4.484  10.392 -0.1325 -0.1111 -0.0934
23455W        W39264   8.261   4.691   0.524 -0.1427 -0.1290 -0.1579
23456W        W39265  11.603  12.822   0.317 -0.3223 -0.2682  0.0947
23457W        W39266   3.124   6.257  11.828  0.1136  0.0496  0.5578
23458W        W39267   5.397  16.498  11.627  0.1384  0.1091  0.1056
23459W        W39268   9.632   7.068   4.470 -0.5172  0.0895 -0.1028
23460W        W39269   2.556  14.560  12.129  0.2051 -0.0462  0.2689
23461W        W39270   0.387   4.146   0.887 -0.0534 -0.4036 -0.2906
23462W        W39271  14.477  12.052   4.327  0.1515 -0.1539 -0.0755
23463W        W39272  14.057   2.672   0.517  0.2510 -0.0556 -0.0570
23464W        W39273   7.039  15.256  13.062  0.2152 -0.0999  0.0058
23465W        W39274  18.120   4.560   2.132  0.0661 -0.0654  0.3674
23466W        W39275   8.188  17.012   1.853  0.2132  0.1844  0.1278
23467W        W39276  14.873  16.024  14.167  0.1353  0.0198 -0.0511
23468W        W39277   5.313   1.057  14.935  0.2107  0.1574 -0.0412
23469W        W39278   7.394   1.167   2.324  0.2901 -0.0735  0.0578
23470W        W39279   6.192   9.641  13.657 -0.3533  0.0875 -0.0569
23471W        W39280   8.600   9.332   2.048  0.0568 -0.0348  0.2082
23472W        W39281   3.051   4.696   3.805 -0.2868 -0.1898 -0.2608
23473W        W39282   7.698  11.876   2.909  0.1823 -0.0552 -0.2964
23474W        W39283   3.080  13.363  14.654 -0.0697  0.3273 -0.1953
23475W        W39284   4.763   8.675  12.369  0.4816  0.3595  0.0315
23476W        W39285   2.634  15.626   1.294 -0.3768  0.1142  0.1168
23477W        W39286   0.180  15.516  14.378 -0.0829 -0.0426 -0.2052
23478W        W39287  15.879   9.304  10.825 -0.3217  0.2233  0.1372
23479W        W39288   6.442   6.223   5.091  0.1541 -0.0997  0.1212
23480W        W39289  12.030  11.946   2.092 -0.2656  0.1840 -0.0420
23481W        W39290  10.332  15.047   0.722  0.0291  0.1253 -0.1516
23482W        W39291  14.750   9.411   1.840  0.2663 -0.0240  0.1109
23483W        W39292  10.636   0.090  15.158 -0.0072  0.2476 -0.2175
23484W        W39293  10.798   3.815  10.457  0.2645 -0.2702  0.0045
23485W        W39294   2.882   4.497   2.828 -0.4832 -0.2960 -0.1303
23486W        W39295   3.312   2.528  11.689  0.0508 -0.0029  0.1473
23487W        W39296   9.871   1.737  12.739 -0.1318  0.3101 -0.1720
23488W        W39297   2.642  12.239   0.044 -0.2341 -0.0587 -0.0253
23489W        W39298   3.142   7.618  13.135 -0.0365 -0.0293 -0.0881
23490W        W39299  14.724   8.730   4.995 -0.0134 -0.0047  0.1625
23491W        W39300   9.782   2.120   3.492 -0.1609 -0.3406  0.2001
23492W        W39301  18.142  17.611  12.356  0.3338  0.2614  0.2787
23493W        W39302  11.678   7.279  13.374  0.1351 -0.3219  0.0956
23494W        W39303   4.865   6.214   2.482 -0.1109 -0.0291 -0.1634
23495W        W39304  13.975  14.783  13.716 -0.1386  0.0826  0.2702
23496W        W39305   3.348   8.247  14.086  0.1848 -0.0088 -0.0081
23497W        W39306   9.072   3.834   1.097 -0.1352  0.2452 -0.0257
23498W        W39307  17.603   0.969  13.760 -0.2796 -0.2074  0.0052
23499W        W39308  11.569   3.755  14.858 -0.2596  0.1607 -0.1253
23500W        W39309   5.336  15.435   4.632 -0.0985  0.1332 -0.1092
23501W        W39310  10.131  16.741   5.144 -0.0120 -0.1198 -0.2873
23502W        W39311   7.971  18.440   9.829 -0.0548  0.0686  0.0313
23503W        W39312   0.092  15.007  11.496 -0.3863  0.0054 -0.1562
23504W        W39313  17.943  16.190   0.428  0.0700 -0.2739  0.0790
23505W        W39314  18.193  11.013   5.221  0.1598 -0.1225  0.0935
23506W        W39315  13.850   0.583  11.562  0.1299  0.0166 -0.0684
23507W        W39316   0.397   7.458   4.333 -0.0465  0.1425 -0.0377
23508W        W39317   0.744   6.274  12.794 -0.0719  0.1758  0.1629
23509W        W39318   3.913  10.192  12.288  0.0533  0.0682 -0.1979
23510W        W39319   9.706   3.961   0.421  0.0511  0.0395 -0.5157
23511W        W39320  12.464   2.357   1.871 -0.2574  0.1891 -0.0934
23512W        W39321   2.482   5.311   1.612  0.0373  0.1030  0.0516
23513W        W39322   1.750   7.967   1.450  0.0882 -0.2613  0.1109
23514W        W39323   8.944   5.011  14.892  0.0288  0.0068  0.2486
23515W        W39324   2.526   1.247  11.720 -0.1063  0.1497 -0.1205
23516W        W39325   7.635   7.653   3.260 -0.3874  0.0652  0.0519
23517W        W39326  18.807   8.596   0.391 -0.2105  0.7152  0.2294
23518W        W39327   3.015  12.889   0.105  0.0124 -0.0186 -0.0105
23519W        W39328  18.323   9.771  10.778  0.0252 -0.0675  0.4572
23520W        W39329   5.463   0.265  14.323  0.0885 -0.3307  0.1894
23521W        W39330  11.263  18.562   2.529 -0.0201  0.1109  0.3015
23522W        W39331   7.209  11.881   5.263  0.2547  0.3504 -0.2169
23523W        W39332  14.489  17.222   4.506  0.3284  0.1268 -0.1539
23524W        W39333   9.136  16.720  15.200 -0.1573 -0.0255  0.0913
23525W        W39334   4.580   1.153  10.384 -0.0955 -0.0191  0.3441
23526W        W39335  10.813  10.586  11.620  0.0608 -0.0241 -0.1115
23527W        W39336  18.826   7.023   3.692 -0.1371  0.0873 -0.0521
23528W        W39337  16.545  16.886  13.232 -0.0727 -0.1637 -0.3028
23529W        W39338  19.114   7.935   1.588  0.4631  0.1253  0.4920
23530W        W39339   9.390   9.848  14.461 -0.0381 -0.0225  0.3257
23531W        W39340  10.661   2.616  13.513 -0.0215 -0.0833 -0.0142
23532W        W39341  14.017   2.022   1.535  0.1403  0.0678  0.0477
23533W        W39342  12.811  14.823  15.009  0.0904  0.0010  0.0705
23534W        W39343  10.836  16.764  11.728 -0.0275  0.2548 -0.1230
23535W        W39344  16.503  15.101   9.700 -0.3845  0.0512 -0.1958
23536W        W39345  18.536   5.472  13.831  0.2760 -0.3879 -0.1519
23537W        W39346  14.482   8.126   2.743 -0.0730  0.3181 -0.0144
23538W        W39347  15.159  12.386   0.809 -0.3009 -0.2237  0.0364
23539W        W39348   4.221  11.553  14.157  0.0125 -0.1236 -0.0475
23540W        W39349   8.431  11.299   3.472 -0.2354  0.0641  0.2203
23541W        W39350  11.412   4.804   1.614 -0.0763 -0.2366  0.1568
23542W        W39351   8.609   4.327   9.691 -0.0332  0.1425 -0.0759
23543W        W39352  13.855   8.324  14.782 -0.0686 -0.0076  0.1390
23544W        W39353   8.759   3.761  14.520 -0.2858  0.1127 -0.0107
23545W        W39354  16.742  16.103   0.643  0.1578  0.1060 -0.1323
23546W        W39355  13.011   7.949  14.304 -0.2303 -0.1580 -0.2611
23547W        W39356   7.323  15.272   2.490  0.1325 -0.1578 -0.2598
23548W        W39357  10.288   6.905   1.258 -0.1551 -0.0551 -0.2796
23549W        W39358   1.895  13.694   0.771  0.0626 -0.1447  0.0615
23550W        W39359  10.633  18.350   4.530  0.0510 -0.3725  0.1340
23551W        W39360   3.506  15.584  11.802  0.2093 -0.2140 -0.1988
23552W        W39361   9.590  19.087   3.917  0.0314  0.2208  0.1030
23553W        W39362  10.835   1.759   0.512  0.1335  0.0955  0.0018
23554W        W39363  10.623   4.403   3.022  0.2663 -0.0963 -0.1895
23555W        W39364   8.318   1.514  13.639  0.1935 -0.0065 -0.0288
23556W        W39365  17.553   3.386  13.437 -0.0280 -0.0872  0.1948
23557W        W39366   1.767  11.483   3.290  0.0566  0.1360  0.2513
23558W        W39367   2.973   6.439   3.183 -0.1768 -0.2230 -0.0383
23559W        W39368  17.520  18.939  14.765  0.0029 -0.2133  0.1117
23560W        W39369   6.729   9.707   3.870 -0.0913 -0.2066 -0.0166
23561W        W39370   1.107  18.309  10.190 -0.0560 -0.2058  0.3005
23562W        W39371   6.945  10.655  13.238  0.3460 -0.4617 -0.0476
23563W        W39372  14.963   8.244   4.902  0.0613 -0.1012  0.3221
23564W        W39373   3.995   4.910  12.822 -0.0452 -0.2387  0.0535
23565W        W39374   5.402  10.528   2.842 -0.0049 -0.0656 -0.1618
23566W        W39375  18.192   3.805  13.445  0.3669 -0.2627  0.2315
23567W        W39376  12.795   3.003   0.299  0.0846  0.1762  0.0403
23568W        W39377  13.520  16.562   3.651  0.2069 -0.1856 -0.1616
23569W        W39378  14.063  16.362  10.404 -0.3353  0.0665 -0.3889
23570W        W39379  16.289  10.865   0.797  0.0248 -0.2074  0.1580
23571W        W39380   6.570  12.787  13.549 -0.0411 -0.0477  0.1976
23572W        W39381   5.840  18.036   3.694  0.0564  0.0721  0.1793
23573W        W39382  18.958   5.500   0.802  0.2359 -0.3308 -0.1683
23574W        W39383   0.082   9.950  14.341 -0.1995  0.1674  0.0767
23575W        W39384   3.930   6.224  14.604 -0.3121  0.0104  0.0443
23576W        W39385   2.043   7.016  11.621 -0.2275  0.2353  0.0343
23577W        W39386  15.770   8.232  11.906 -0.5492 -0.1307  0.1157
23578W        W39387  15.646   7.811   1.164  0.1056  0.0418  0.0237
23579W        W39388   3.236   8.472  12.401  0.1987  0.1626  0.1252
23580W        W39389  16.016  18.791  12.711  0.0189 -0.5813 -0.0746
23581W        W39390   9.717  18.617   3.686 -0.0186  0.1015  0.1460
23582W        W39391  15.333   4.880  13.330  0.0326  0.1478 -0.4457
23583W        W39392   1.822  10.771   3.944 -0.1259 -0.2670  0.1097
23584W        W39393  17.389  18.598   2.944  0.0824  0.1534  0.3577
23585W        W39394   9.766   7.121  11.967  0.4996 -0.1725 -0.1022
23586W        W39395   4.934   1.765  12.096  0.1239  0.4284 -0.0325
23587W        W39396   6.650  14.136   0.181 -0.0907  0.2751  0.2887
23588W        W39397  16.183   8.833   4.606  0.0981  0.0991  0.1659
23589W        W39398   4.195  15.823  14.563  0.1881 -0.0012  0.3834
23590W        W39399   2.620  13.246  12.742 -0.1401  0.1147  0.0336
23591W        W39400   8.502   9.489  15.117  0.0955 -0.2067  0.2054
23592W        W39401  18.759  15.177  12.362  0.2951 -0.1775 -0.0135
23593W        W39402  10.273   8.718  14.682 -0.1798 -0.0965  0.0962
23594W        W39403  10.424   7.514  14.085 -0.1445 -0.1939 -0.1183
23595W        W39404  17.997   1.956   3.976  0.1893  0.1460 -0.2223
23596W        W39405  11.157  18.525   0.145  0.3013  0.0994 -0.0807
23597W        W39406  13.317   8.814  12.332 -0.0272  0.0874  0.1263
23598W        W39407   8.589   6.681   2.741  0.3140 -0.0459 -0.3268
23599W        W39408  15.786   3.998  13.758  0.0134 -0.1051 -0.1098
23600W        W39409  13.985  15.921  10.260 -0.3569  0.1815 -0.0951
23601W        W39410  10.406  15.996  11.613 -0.1301  0.0125 -0.0886
23602W        W39411   4.484  12.487  12.981  0.0141 -0.0899 -0.1907
23603W        W39412   8.084  11.587   0.982 -0.1307  0.0127 -0.1160
23604W        W39413   4.705  14.434   1.115 -0.1629  0.2707  0.1702
23605W        W39414  13.804  17.244  11.345 -0.5008 -0.1338 -0.1258
23606W        W39415  12.250   2.721  13.029 -0.0054  0.4539  0.1358
23607W        W39416   7.490   8.412  14.633  0.3365  0.1276  0.1373
23608W        W39417   5.803   4.331  11.814 -0.0460  0.0160  0.0372
23609W        W39418  13.265  14.705   4.986  0.0370  0.0693 -0.2967
23610W        W39419  12.226   9.893   2.549 -0.2376 -0.1992 -0.0664
23611W        W39420  15.859  16.324  11.891  0.1040  0.1117 -0.0959
23612W        W39421  16.820  17.731   5.076 -0.1321  0.2742  0.5582
23613W        W39422  11.964   7.589   1.193  0.5531  0.1437 -0.1151
23614W        W39423   4.115   9.443   4.895  0.0791  0.3795 -0.0132
23615W        W39424  13.995   3.075  12.918  0.2765 -0.0089 -0.0640
23616W        W39425   2.113  18.297   0.673  0.0929 -0.1285 -0.0764
23617W        W39426   7.363  15.762   3.978  0.2068  0.1340  0.1352
23618W        W39427   4.572   1.283   2.329  0.0817 -0.5192  0.1244
23619W        W39428  14.787  12.767  12.185 -0.3411  0.1768  0.3323
23620W        W39429  16.943  13.746   0.542 -0.1583 -0.0081 -0.1219
23621W        W39430   0.617  11.906   3.216 -0.0331 -0.2627  0.0525
23622W        W39431  11.798   1.604  13.825  0.2741 -0.0393 -0.0587
23623W        W39432  16.470   0.869  13.285 -0.1955 -0.0153  0.0868
23624W        W39433   8.181   8.637   1.474 -0.2617 -0.2421 -0.1430
23625W        W39434   2.261   3.334  12.494 -0.0644 -0.3569 -0.1599
23626W        W39435  18.897   8.268   1.939  0.2291  0.1815  0.0051
23627W        W39436  14.822   6.482  11.687  0.3356  0.0084 -0.2564
23628W        W39437  18.190   9.279  11.512  0.1099 -0.1095  0.6034
23629W        W39438   2.070  15.777  13.773 -0.0512  0.2900  0.0100
23630W        W39439   2.963  10.642  12.752  0.2806 -0.3374 -0.0135
23631W        W39440  11.523  18.653  14.345 -0.2686 -0.1504  0.1762
23632W        W39441   3.414  16.437  10.535  0.0114  0.0215 -0.0559
23633W        W39442   9.063   3.147   3.322 -0.3137  0.0752  0.1490
23634W        W39443   5.482   5.506   3.506  0.1452 -0.0040  0.0998
23635W        W39444   0.923   6.797  14.836 -0.0299  0.0971 -0.0625
23636W        W39445   7.284   1.443  12.142 -0.1405  0.1722  0.1314
23637W        W39446  18.054  13.849  12.897  0.1513 -0.2820  0.2959
23638W        W39447   9.095  11.362  14.660 -0.0347 -0.0747  0.3121
23639W        W39448   6.538  12.083  11.295 -0.0060 -0.1217  0.1508
23640W        W39449   8.767   8.589   1.495  0.2597 -0.0560  0.1571
23641W        W39450  15.634   5.218  15.134  0.2949 -0.0803 -0.1549
23642W        W39451  11.492  18.867  12.179 -0.1615 -0.1032  0.0503
23643W        W39452   6.510   9.281   3.745 -0.3678 -0.1098  0.0093
23644W        W39453   4.127  18.276  11.166 -0.1558 -0.0225  0.0643
23645W        W39454   8.668  11.675   3.959 -0.1171 -0.1714 -0.4193
23646W        W39455   8.010   2.868   1.216 -0.2622 -0.0003 -0.1149
23647W        W39456  10.683   9.033   2.650 -0.0497  0.4347 -0.2254
23648W        W39457   4.672   6.919  10.962 -0.1636 -0.0997  0.1867
23649W        W39458   4.766   3.729   1.719  0.1430 -0.2360 -0.0722
23650W        W39459  11.239  11.190  13.414 -0.0836 -0.0394  0.1549
23651W        W39460  10.844   5.589   2.445 -0.1560  0.0809  0.2278
23652W        W39461   1.121   1.975  10.592 -0.0686  0.0467 -0.0885
23653W        W39462  14.286  17.457   2.791  0.0199  0.0701  0.3675
23654W        W39463   6.659   5.964  11.938  0.1506  0.0671 -0.0623
23655W        W39464  12.169   1.939  13.573  0.0819 -0.1149  0.2764
23656W        W39465   2.997   5.654   2.879 -0.0402  0.0661 -0.0109
23657W        W39466  12.449   9.593  12.790 -0.2596 -0.0125  0.1751
23658W        W39467   2.732   9.938  13.012  0.0567  0.2383 -0.0972
23659W        W39468  15.677  10.112   4.230  0.3163  0.1581 -0.1461
23660W        W39469   0.135   5.796  14.908 -0.1573 -0.2166 -0.0033
23661W        W39470  13.084  18.192   2.042 -0.0974 -0.1043 -0.0193
23662W        W39471  18.669  13.941  11.669  0.1461  0.1303 -0.0276
23663W        W39472  19.068  11.826  12.563 -0.3339  0.3230  0.0222
23664W        W39473   8.654  18.643  11.813  0.0298 -0.0506  0.2609
23665W        W39474  18.949  10.164   0.759  0.2044  0.2211 -0.4035
23666W        W39475   4.332  15.651   0.489  0.3019  0.0949 -0.1172
23667W        W39476   0.910   4.684   2.458 -0.2435  0.1356  0.4551
23668W        W39477   6.525  10.920  13.269 -0.1661  0.0249  0.1574
23669W        W39478   2.844  12.974  10.895 -0.1286  0.0649 -0.1079
23670W        W39479  12.476   8.696  11.640  0.1448 -0.1151 -0.4361
23671W        W39480  14.909   4.833  11.247 -0.0878  0.2308  0.2767
23672W        W39481   9.146  15.015   2.945 -0.2568  0.0619  0.1059
23673W        W39482   5.495   4.464   1.121  0.0959 -0.1236  0.1225
23674W        W39483   5.720  13.036   0.866  0.2839  0.0889 -0.0420
23675W        W39484   2.011   5.851   2.846 -0.3219 -0.3180 -0.0509
23676W        W39485   5.599   0.302   3.253  0.0240  0.0134  0.3221
23677W        W39486  17.307   0.163   5.100 -0.0398  0.1928  0.2499
23678W        W39487  17.580   3.392   4.656  0.0225 -0.0413  0.3869
23679W        W39488  13.415  18.377  12.632 -0.2092  0.4392  0.2998
23680W        W39489   0.241  17.047  12.439  0.0893  0.0300 -0.2577
23681W        W39490  12.424   7.040  10.536  0.0141  0.0766  0.0371
23682W        W39491  16.869  14.920  14.902 -0.2537  0.1443  0.0820
23683W        W39492   9.482   4.722   4.552 -0.5115  0.1804  0.2734
23684W        W39493   1.547  14.758  13.315  0.4525  0.0111  0.2199
23685W        W39494   8.484  18.922   3.604  0.1245  0.0771 -0.0214
23686W        W39495  18.944   3.061   0.293 -0.3178  0.3551  0.0752
23687W        W39496  11.370  10.594  10.622  0.3368 -0.2058 -0.8083
23688W        W39497  11.204   8.151  13.044  0.2037  0.0740 -0.0669
23689W        W39498  15.462  12.818   2.102 -0.1933 -0.0092  0.0382
23690W        W39499  15.691   9.593  13.948  0.0394 -0.2014 -0.1193
23691W        W39500   0.099   6.721   0.538  0.0458  0.0031 -0.0741
23692W        W39501   0.154   4.232   4.293 -0.2584 -0.3057  0.0010
23693W        W39502   2.045  12.884   0.019 -0.1112  0.1920 -0.0765
23694W        W39503  15.290  10.741  12.992  0.1352  0.4378 -0.0192
23695W        W39504  17.156   8.545  13.979 -0.4341  0.1279  0.0280
23696W        W39505   9.096  17.052   4.532  0.1897 -0.4471  0.2077
23697W        W39506   6.011  12.324  12.793  0.1873  0.1895 -0.1165
23698W        W39507   9.240   4.155  14.732 -0.0787  0.0369 -0.3921
23699W        W39508  15.052   4.756  12.820  0.1568 -0.1884 -0.1492
23700W        W39509  17.316  14.378   1.060 -0.2163  0.0690  0.0152
23701W        W39510  15.558   9.164   2.335 -0.0873  0.1258 -0.4480
23702W        W39511   4.931  18.320   4.525 -0.0814  0.2958 -0.0861
23703W        W39512   2.911   7.367  11.633 -0.1668  0.3910  0.1154
23704W        W39513  18.629   6.857   5.043  0.0260  0.1991  0.2256
23705W        W39514  17.464  15.547   0.893  0.0892  0.1478  0.1545
23706W        W39515  14.512  12.263   1.586 -0.0248  0.1851  0.0081
23707W        W39516   7.856  11.117   5.592 -0.0114  0.1710  0.0521
23708W        W39517  14.619  15.727  15.119 -0.1668  0.2948 -0.0300
23709W        W39518   4.999   6.929   3.420  0.2253 -0.0752  0.2909
23710W        W39519   3.195  16.091   0.491  0.0349  0.1471 -0.0487
23711W        W39520   1.854   6.972   1.871  0.2696 -0.0872 -0.2549
23712W        W39521  18.678   6.303  15.234 -0.1036 -0.0575 -0.0840
23713W        W39522  17.474  16.675  11.781 -0.2912  0.1688 -0.2994
23714W        W39523  15.469   8.484   0.146 -0.4641 -0.0259 -0.0885
23715W        W39524   6.829   8.368   3.186 -0.0982 -0.0661  0.1153
23716W        W39525  18.488  14.084   1.008  0.1052 -0.1931  0.0659
23717W        W39526  12.794   5.672   1.460  0.0696  0.0000  0.1967
23718W        W39527   5.528  13.797   1.901 -0.1511 -0.0810  0.3184
23719W        W39528  12.408  13.568  14.558  0.0947 -0.0776  0.1935
23720W        W39529   2.046  17.128  12.423  0.0808  0.1068  0.0604
23721W        W39530  17.449   1.970  15.157 -0.3349 -0.1313 -0.4259
23722W        W39531  16.013  13.791  11.506  0.0544 -0.0469  0.2778
23723W        W39532  15.204  16.816  12.869  0.1546 -0.3764 -0.0946
23724W        W39533  18.076  16.842   2.373  0.2019 -0.1517 -0.5847
23725W        W39534  16.363   7.122   1.142 -0.3607 -0.0453 -0.1041
23726W        W39535  17.090   3.922   1.107  0.0978 -0.1103 -0.2588
23727W        W39536  17.658  15.821  11.757 -0.0754  0.1301 -0.1672
23728W        W39537   1.544  19.126  14.000 -0.2398 -0.0295  0.1160
23729W        W39538   4.025   1.140   3.130  0.0102  0.2305 -0.2585
23730W        W39539   8.875  14.703  11.463  0.0370  0.0909 -0.0707
23731W        W39540   0.763  12.653   3.538 -0.2162 -0.0410  0.2130
23732W        W39541  17.063  14.026   0.076  0.1507 -0.1128  0.0286
23733W        W39542  17.826   5.531   3.277  0.0470  0.0299  0.1447
23734W        W39543   8.582  18.605   3.215 -0.2166  0.1684  0.1715
23735W        W39544   1.997   7.118   0.230  0.3400 -0.0695 -0.0095
23736W        W39545  14.736   1.334   4.009 -0.1538  0.1512  0.2049
23737W        W39546   6.703   8.157   1.659  0.4101  0.4449  0.2730
23738W        W39547   8.950  16.591   1.299 -0.1844  0.1845 -0.2870
23739W        W39548   5.290  10.147  14.542  0.0218 -0.0189  0.0602
23740W        W39549  18.278  16.948   1.923 -0.0322  0.1404  0.0188
23741W        W39550  12.128  12.874   3.338 -0.1184  0.0344 -0.3210
23742W        W39551  18.040   8.997  11.946  0.0488  0.4420 -0.3522
23743W        W39552   1.767   5.343   3.104 -0.1284 -0.0312 -0.2373
23744W        W39553  18.688   2.545  13.205  0.2538  0.1221 -0.4074
23745W        W39554  17.755   2.858  11.345  0.0164 -0.0296 -0.3319
23746W        W39555   6.176  12.183  13.912 -0.2237 -0.2253  0.0901
23747W        W39556   6.134  14.832  13.240  0.2252  0.0955  0.2048
23748W        W39557   8.120  17.221   1.393 -0.2128  0.0374 -0.2073
23749W        W39558   0.892   5.752   0.816 -0.1308 -0.2119 -0.1259
23750W        W39559  16.262  13.144   0.517  0.2023 -0.0831 -0.1698
23751W        W39560   0.297  14.681  12.667 -0.5006  0.0845 -0.3018
23752W        W39561   8.517   2.016  13.141  0.2597 -0.0590 -0.5493
23753W        W39562  13.919   1.740   4.576  0.1696 -0.1675 -0.4192
23754W        W39563   5.417   8.615  12.967 -0.5201 -0.1897  0.0887
23755W        W39564  13.407  11.639   0.703  0.1645 -0.1752  0.3409
23756W        W39565  15.873   4.332  12.535  0.0324  0.3108  0.1998
23757W        W39566   7.887   3.501  12.830 -0.0504  0.0903 -0.3738
23758W        W39567   6.150  13.875  14.326  0.3028 -0.1728 -0.2979
23759W        W39568  10.092  10.978  14.086  0.1507  0.0761  0.2731
23760W        W39569  10.408  12.123  11.997 -0.3454 -0.1031  0.0116
23761W        W39570   5.060   0.994  12.551  0.1676 -0.4265 -0.3446
23762W        W39571  16.495  14.053  15.222 -0.2648  0.1621 -0.1107
23763W        W39572  17.105  14.386   1.914 -0.3092  0.1049 -0.0617
23764W        W39573   4.738  13.766   3.538  0.0837 -0.1710 -0.2151
23765W        W39574   7.942  10.011   0.947 -0.0486  0.1051  0.0339
23766W        W39575  12.426  14.398  15.084  0.4160 -0.5565  0.2451
23767W        W39576   8.465  10.212   4.174  0.0968  0.1488 -0.1131
23768W        W39577  18.355   8.409  12.984  0.2325  0.0622 -0.4207
23769W        W39578   2.751   8.781   2.502 -0.0589  0.0045  0.4679
23770W        W39579  11.051   8.976   0.934 -0.2273 -0.1274 -0.0829
23771W        W39580  14.709   1.232   0.334  0.1954 -0.3331 -0.1066
23772W        W39581   0.886   2.563  12.705  0.0973  0.0622 -0.1564
23773W        W39582   6.437   8.934   4.637  0.0146  0.1695 -0.0124
23774W        W39583  19.039   6.299  14.204 -0.1193 -0.2539 -0.0322
23775W        W39584   6.323  10.838   2.881 -0.0235  0.1308  0.2565
23776W        W39585  16.480  14.622   4.190 -0.0097 -0.0587 -0.3964
23777W        W39586   9.085   6.085   1.742  0.2372  0.1418 -0.1647
23778W        W39587  14.013   4.116  14.834 -0.0062  0.0284  0.3093
23779W        W39588  11.011  16.368   4.405 -0.1302 -0.2468 -0.2807
23780W        W39589   9.138   5.516  14.584 -0.2317 -0.3062 -0.1837
23781W        W39590  11.199   9.587   5.562 -0.0135 -0.2436 -0.1640
23782W        W39591  13.276   5.835  10.583 -0.1128  0.6255  0.3269
23783W        W39592   1.128  17.418   1.386  0.2077 -0.2315 -0.0166
23784W        W39593  11.348  18.460  11.913 -0.1550  0.0343  0.2660
23785W        W39594   4.447  11.531   2.108  0.1601 -0.0542 -0.1695
23786W        W39595   1.002  16.026  13.630  0.4003 -0.1322  0.2350
23787W        W39596  10.234  10.639   0.624 -0.0146  0.2039  0.2341
23788W        W39597   9.162   2.291  13.861  0.0088  0.1831 -0.0826
23789W        W39598  18.444   4.066   2.844 -0.2442  0.0602 -0.0819
23790W        W39599  12.412   7.451  15.193  0.1090 -0.2788  0.2828
23791W        W39600   5.906  12.076   4.735 -0.1406  0.2325 -0.0316
23792W        W39601  12.510   0.377  11.271  0.0667  0.0931 -0.3163
23793W        W39602   5.393  13.296  13.722  0.1394  0.0591 -0.1887
23794W        W39603   9.211  14.008   2.724  0.0426 -0.3640  0.1897
23795W        W39604  17.197  13.350   0.489 -0.2845 -0.2250  0.1731
23796W        W39605  10.271  14.470   2.730  0.2839 -0.0479 -0.3282
23797W        W39606   8.492  17.587  11.053  0.0810  0.1245  0.1759
23798W        W39607  12.626  16.630  13.001 -0.1152  0.0124  0.0464
23799W        W39608   2.288  14.833   3.470 -0.3642 -0.1660 -0.0575
23800W        W39609  13.078   3.516  11.632  0.1134  0.0701 -0.2135
23801W        W39610  18.523  18.594   4.168  0.1311 -0.1116  0.0880
23802W        W39611  15.834   3.289   1.732 -0.1878 -0.1932  0.1147
23803W        W39612   7.001   7.555  13.204  0.0451 -0.0020 -0.0543
23804W        W39613   8.060   7.710  12.418  0.1420 -0.1558 -0.1710
23805W        W39614  11.105  11.650   1.871  0.0672  0.1475  0.3315
23806W        W39615   2.968   9.972   1.417  0.0257 -0.1023 -0.2789
23807W        W39616   4.630  10.979   1.101  0.0066 -0.1694 -0.1349
23808W        W39617  10.216   7.743  11.300 -0.3238  0.2877 -0.0814
23809W        W39618   5.966  18.637  11.348 -0.0439  0.0644  0.0681
23810W        W39619   0.725  14.143   9.865  0.0061 -0.0152 -0.1939
23811W        W39620   4.068  13.705   0.707 -0.1462  0.0411 -0.0061
23812W        W39621   7.791  17.280   0.171 -0.1049  0.1821 -0.2109
23813W        W39622  16.026   2.047   3.683  0.1272  0.2186  0.0914
23814W        W39623   6.241   4.997   0.918 -0.1026 -0.1408 -0.0386
23815W        W39624   0.252   6.805  13.635 -0.2663 -0.0426  0.1397
23816W        W39625   8.096  16.386   4.574  0.1426 -0.0684  0.0256
23817W        W39626  14.082   8.821  12.981 -0.6296  0.2363  0.2860
23818W        W39627  17.785  15.779   1.667  0.0158 -0.0203 -0.0390
23819W        W39628   3.750   7.476  12.714  0.2975  0.0575 -0.0938
23820W        W39629   3.840   1.547   3.902  0.0035 -0.2118  0.1172
23821W        W39630  13.013   9.951   3.724 -0.1531  0.2145  0.1678
23822W        W39631  14.469  13.251   4.967  0.0786  0.1448  0.1683
23823W        W39632  16.687  17.868   0.518 -0.0616  0.2603  0.0672
23824W        W39633   9.713  15.966   3.022 -0.2808 -0.0996 -0.3253
23825W        W39634  18.126  11.137  14.935  0.2073  0.0027 -0.0077
23826W        W39635   9.827   2.439   1.907 -0.1819  0.0289  0.0290
23827W        W39636   1.467   2.083  12.247 -0.0399  0.0719  0.0423
23828W        W39637  12.565   9.492   3.015  0.0355 -0.0813 -0.1253
23829W        W39638  16.377   3.195   3.624 -0.0475  0.2290 -0.0812
23830W        W39639   7.858   4.310   2.310  0.0811 -0.0489 -0.0493
23831W        W39640   6.563  10.253   0.853 -0.0983  0.2604 -0.0409
23832W        W39641   4.758  14.760   2.633  0.1171  0.1626  0.0963
23833W        W39642   2.190   7.166   2.175  0.1331  0.1245  0.0363
23834W        W39643  17.323  13.924  11.244  0.1243  0.0787  0.1325
23835W        W39644   4.157  16.527   1.094  0.0921  0.2790 -0.2568
23836W        W39645  10.725   9.341   0.639  0.2377  0.2046 -0.2215
23837W        W39646  15.504   4.770  11.227  0.1966  0.1480  0.0329
23838W        W39647  12.958  15.230   2.427 -0.0652 -0.0571 -0.1716
23839W        W39648   3.893   9.739  14.272  0.0736 -0.2505 -0.0983
23840W        W39649   8.857   2.717   4.633  0.0275  0.0090  0.1095
23841W        W39650   3.774   5.411   2.342  0.0314 -0.1257 -0.2047
23842W        W39651  15.876  15.011  10.544 -0.1237 -0.0401  0.0045
23843W        W39652  11.034  15.212  15.101 -0.1512  0.0078 -0.2603
23844W        W39653  11.209  17.575  15.197  0.1108 -0.4812  0.0016
23845W        W39654   3.249   2.529  13.623  0.2612  0.2701  0.0543
23846W        W39655   0.327   0.787  14.903  0.0571 -0.1323  0.0248
23847W        W39656  10.575   0.851   2.169  0.1373 -0.0435 -0.0627
23848W        W39657   8.612  18.159   5.040  0.2243 -0.3016  0.0626
23849W        W39658   8.913   3.290  14.598 -0.3218 -0.0983 -0.3134
23850W        W39659   1.141  10.538   1.509 -0.0289  0.1547 -0.1115
23851W        W39660   3.746  13.179   2.811  0.2528  0.0611  0.0561
23852W        W39661  15.829   0.602  11.870  0.0002 -0.2467 -0.0523
23853W        W39662  19.016  17.342  14.701 -0.2603  0.0999  0.4215
23854W        W39663   4.115   0.932  14.336  0.0496 -0.0230  0.0622
23855W        W39664   6.300  14.974   3.837 -0.0241  0.0345 -0.2971
23856W        W39665  11.700   2.735  14.939 -0.3543 -0.0305 -0.1250
23857W        W39666  13.549   1.164   1.861  0.3632  0.2303 -0.2755
23858W        W39667  16.512   9.783  11.535  0.1834 -0.0268 -0.1247
23859W        W39668   0.365  14.482  13.965 -0.1004 -0.0681 -0.0363
23860W        W39669   0.646  15.686   0.560  0.5094 -0.4284  0.1996
23861W        W39670   4.545   7.527   1.166  0.1456  0.1893 -0.0444
23862W        W39671   8.766   6.905   5.530 -0.2483 -0.0446 -0.0807
23863W        W39672   9.027   0.930  10.172 -0.4655  0.0942 -0.1449
23864W        W39673   0.738  18.634   2.331  0.1365  0.0388  0.0338
23865W        W39674   5.828   9.551   1.888 -0.1971  0.2345  0.0604
23866W        W39675   6.556   2.600   2.779 -0.2990  0.1185  0.1257
23867W        W39676   5.825  18.215  11.741 -0.0561 -0.0107  0.1671
23868W        W39677   1.377  12.216   0.190 -0.3286 -0.0224 -0.1839
23869W        W39678  12.708  15.867   3.255  0.0712  0.3196  0.3645
23870W        W39679   2.812  18.678  12.342  0.1318 -0.0256  0.1744
23871W        W39680   1.321   3.491   4.169 -0.2127  0.3441  0.4457
23872W        W39681  16.366   0.217   1.123 -0.2572  0.2567  0.0591
23873W        W39682   2.582   4.676   2.435  0.2856  0.2979 -0.0139
23874W        W39683  14.538   1.144   3.445 -0.3437 -0.1701  0.2050
23875W        W39684  17.638   6.489   4.770  0.0527  0.2286  0.0287
23876W        W39685   9.286  14.102   1.088 -0.0721  0.0124 -0.1572
23877W        W39686  15.334   3.216  11.689  0.2273  0.2559  0.1896
23878W        W39687  13.569   6.735  13.821  0.0085  0.0702  0.2797
23879W        W39688  15.568  11.712   1.102 -0.0361  0.0954  0.1714
23880W        W39689   6.449  13.323   5.703  0.0379  0.0780 -0.0369
23881W        W39690  18.180   4.863  12.486  0.0778 -0.0022 -0.1871
23882W        W39691  15.513  15.126   0.909 -0.1164  0.2641 -0.0183
23883W        W39692  13.317  16.331  12.504 -0.3229 -0.0305 -0.1877
23884W        W39693   8.163  10.868  12.473 -0.0844 -0.2296 -0.1148
23885W        W39694  12.121  18.350   2.418  0.2894 -0.0601  0.2628
23886W        W39695  16.788   8.974  13.160  0.1503 -0.2501  0.1012
23887W        W39696   2.628  12.507  14.134 -0.0950  0.1637  0.1859
23888W        W39697  13.929  17.126  14.375  0.3387 -0.2425 -0.0021
23889W        W39698   4.974   7.687   3.311  0.0412  0.2383 -0.0046
23890W        W39699   6.455   2.456   3.248 -0.3577 -0.0474  0.0872
23891W        W39700   1.628  12.467   3.920  0.2641 -0.0952  0.1449
23892W        W39701   6.764   6.827   4.409  0.1224  0.1310 -0.1239
23893W        W39702   0.378  17.499   2.160  0.0847  0.0005 -0.0089
23894W        W39703  15.416  13.951   3.089 -0.1454 -0.3316  0.0142
23895W        W39704  15.091  16.905   3.185 -0.0887 -0.1834 -0.3040
23896W        W39705  14.306  17.250   3.995 -0.4348 -0.0175 -0.1528
23897W        W39706  10.800  11.338  13.654  0.0550 -0.1965  0.0841
23898W        W39707   9.290   5.387  11.148  0.1672 -0.1700 -0.1314
23899W        W39708   7.943  13.804   1.018  0.0779 -0.1602 -0.0247
23900W        W39709  10.198  11.808   3.332 -0.3160  0.0689  0.1281
23901W        W39710  18.029  18.764  13.117  0.0899 -0.0716  0.1624
23902W        W39711   7.917   6.008   9.992  0.1115  0.0646  0.0777
23903W        W39712  12.232   6.598   1.406  0.1159 -0.2985 -0.1979
23904W        W39713   2.325  19.091  14.838 -0.1081 -0.0226  0.1872
23905W        W39714  16.562   4.276  14.902 -0.1774  0.0862  0.1661
23906W        W39715  15.794   6.551   5.890 -0.0673 -0.3216  0.0265
23907W        W39716  11.015  16.349   1.656  0.1635 -0.0523  0.2657
23908W        W39717   5.394   1.602   2.955 -0.1566  0.3554  0.2264
23909W        W39718   2.342  15.920   0.349  0.1218  0.2699  0.1254
23910W        W39719  18.655   9.635   2.025  0.3631  0.0532 -0.0838
23911W        W39720   6.198   6.680   4.959  0.3860 -0.0356 -0.0213
23912W        W39721   5.479   7.460  11.070  0.0455 -0.4927  0.5162
23913W        W39722   9.892   0.807   1.163 -0.2120  0.1106  0.0643
23914W        W39723   5.477  17.909   3.411 -0.2381 -0.3117  0.1502
23915W        W39724  16.442  13.792   0.772  0.3941  0.0015 -0.4114
23916W        W39725  15.855  12.509  12.081 -0.2543 -0.1300 -0.0991
23917W        W39726   4.160   7.463   2.706  0.0855 -0.2053 -0.1446
23918W        W39727  12.717  16.088   0.574 -0.2917  0.1003  0.2975
23919W        W39728   2.897  13.386   4.275 -0.1462 -0.1486  0.3134
23920W        W39729  11.629  15.493  12.022  0.0390 -0.2022 -0.2478
23921W        W39730  15.686   8.751   1.047 -0.0928  0.3350  0.3402
23922W        W39731  14.056   5.716  11.140 -0.2598  0.1315  0.1963
23923W        W39732  14.300   1.719   5.355  0.1494 -0.0813 -0.3412
23924W        W39733   7.150   3.180   1.300  0.0659 -0.1387  0.1683
23925W        W39734   2.734  11.269   2.351  0.3280 -0.0065  0.4418
23926W        W39735  10.584  14.358   2.321  0.1361 -0.1128  0.0801
23927W        W39736  17.463  11.262  12.609  0.0256 -0.2780  0.1288
23928W        W39737   8.521  10.797  14.109 -0.2821 -0.0954  0.0625
23929W        W39738   2.238   0.947   0.445 -0.1107 -0.2914  0.0007
23930W        W39739  17.158   4.497  10.831 -0.1544 -0.1012  0.1369
23931W        W39740  18.702  12.099   3.943 -0.2828  0.1411  0.0229
23932W        W39741   9.579  18.610   2.645 -0.0316  0.0003 -0.0825
23933W        W39742   2.959   4.559   0.826  0.0887  0.1777  0.0161
23934W        W39743  19.005   6.647   2.079 -0.1091  0.0515 -0.3466
23935W        W39744   9.065   3.327   1.343  0.0085  0.2151  0.1957
23936W        W39745  11.620   2.849   0.708 -0.2088 -0.1651  0.1319
23937W        W39746   1.009   4.657  14.477  0.0004 -0.3617 -0.0668
23938W        W39747   5.668  10.687  11.620 -0.2222  0.4182  0.1808
23939W        W39748   6.298  18.810   1.070  0.0358  0.0040  0.0557
23940W        W39749   6.356   4.732  13.837 -0.0249  0.1460 -0.2747
23941W        W39750  10.510   8.469  14.276 -0.2176  0.0908  0.0010
23942W        W39751  11.701  18.193   4.463  0.4434 -0.1666 -0.0322
23943W        W39752  15.748  18.223   1.305 -0.0210  0.0538  0.4220
23944W        W39753   7.798   7.406  14.882 -0.0064  0.0043  0.3125
23945W        W39754  16.689   2.777  12.010 -0.0707  0.2307  0.1264
23946W        W39755  12.572   8.562  10.812 -0.1932  0.2442  0.0302
23947W        W39756  17.171  17.286   3.749  0.0956  0.0675 -0.2685
23948W        W39757   0.327  13.671   1.648  0.0840 -0.2189 -0.0384
23949W        W39758  13.908  11.313   1.360 -0.3031 -0.4066  0.1669
23950W        W39759   5.280   0.448  10.703 -0.0507  0.1259 -0.3436
23951W        W39760   0.658  17.884  13.657 -0.2771  0.1892  0.1267
23952W        W39761   0.014   4.201  13.450  0.4119  0.1743 -0.1396
23953W        W39762   8.962   1.016   3.433 -0.3152  0.1862  0.1322
23954W        W39763   5.459  18.196  10.791 -0.1233 -0.4477 -0.2401
23955W        W39764   8.980  12.044   5.283  0.2547 -0.1757  0.1754
23956W        W39765   8.329  16.462  14.418  0.0692  0.0571 -0.1759
23957W        W39766   7.208  16.059   2.962  0.1781  0.1988 -0.0949
23958W        W39767   4.983   6.108   3.770  0.0041 -0.0237  0.1149
23959W        W39768   8.793   2.697   4.043  0.1557  0.0078 -0.0673
23960W        W39769  12.819  15.113  11.901 -0.0503 -0.1091 -0.3679
23961W        W39770  14.051   6.631  12.085  0.1697 -0.1091 -0.3465
23962W        W39771  15.668   1.121   1.966  0.1957  0.2112  0.0231
23963W        W39772   1.458   7.214  13.749  0.1233  0.1121 -0.1285
23964W        W39773   0.934   3.190   3.642  0.0661 -0.1133  0.2588
23965W        W39774  13.448   6.211  15.030 -0.1546 -0.2604 -0.1945
23966W        W39775   2.510  16.374   4.124  0.1147  0.2662 -0.0828
23967W        W39776  10.676   6.221  11.616 -0.3922 -0.1623  0.2628
23968W        W39777   0.351   0.671   0.294  0.1899  0.1622  0.0831
23969W        W39778   4.215   8.179   5.733 -0.0040 -0.0975 -0.0420
23970W        W39779   9.126   4.845   4.176  0.0225 -0.1702  0.0622
23971W        W39780  15.819   0.645  13.273 -0.0001 -0.0489 -0.0208
23972W        W39781  18.082  18.068  15.253  0.0106 -0.1410 -0.2073
23973W        W39782   4.195   5.131   4.062 -0.2051 -0.0708  0.0949
23974W        W39783   2.919  17.793  13.012 -0.4934 -0.2568  0.2427
23975W        W39784  19.098  10.179  13.919  0.0496 -0.2226 -0.0951
23976W        W39785  11.077   6.809  15.107 -0.0385 -0.5289  0.2815
23977W        W39786  15.866   2.637  13.150 -0.1086 -0.0843  0.0779
23978W        W39787   9.443  16.221   0.038  0.4533 -0.0069  0.0224
23979W        W39788  13.265   4.532   1.564  0.2688 -0.0388  0.1622
23980W        W39789  14.206  16.542   0.674 -0.2642 -0.0813 -0.0321
23981W        W39790   9.208   0.278   1.028  0.0361  0.2753 -0.2135
23982W        W39791   9.573  13.455  11.152 -0.3488  0.4320  0.1652
23983W        W39792   6.951   5.196   9.867 -0.0936  0.1798  0.0317
23984W        W39793   0.834  16.581   2.688 -0.0173 -0.0288 -0.4222
23985W        W39794   3.930  17.522   4.115  0.2347  0.1668  0.2394
23986W        W39795   9.661  15.643  14.971 -0.0164  0.0531 -0.1877
23987W        W39796   2.830  11.464   4.224 -0.2567  0.0821  0.0174
23988W        W39797   3.813   9.628  12.653  0.2951 -0.1519  0.1833
23989W        W39798  10.714  10.020   2.582  0.0184 -0.2228 -0.0809
23990W        W39799   0.697  18.680  10.786  0.2519  0.0661  0.1169
23991W        W39800  12.972  15.668  14.308  0.0876  0.1487 -0.0288
23992W        W39801  15.995   0.181  13.988  0.1357  0.3019 -0.3026
23993W        W39802   1.452   1.656  13.097  0.1021  0.1187 -0.1550
23994W        W39803  11.622  15.723  10.193 -0.1756 -0.0237 -0.1597
23995W        W39804   8.239  14.382  14.904 -0.0824  0.0844 -0.0882
23996W        W39805   4.191   6.293   0.368 -0.2506 -0.1592 -0.1056
23997W        W39806  19.097  17.467   4.894  0.1140  0.3996  0.1810
23998W        W39807   6.341   0.737   1.957  0.1357 -0.0116 -0.0639
23999W        W39808   7.695   1.824  12.982 -0.1943 -0.0071  0.0759
24000W        W39809  15.143  11.395   5.889  0.2857 -0.3459 -0.0682
24001W        W39810   0.677  17.053   2.688  0.3661 -0.0658 -0.1688
24002W        W39811  16.195  15.631   3.303 -0.2564 -0.0265  0.2506
24003W        W39812  13.041  12.088  11.796  0.2653 -0.0300  0.2375
24004W        W39813   0.364   5.864   0.864  0.1420  0.0062  0.0970
24005W        W39814  16.782  17.309  11.571 -0.0461 -0.0626  0.0266
24006W        W39815  14.237   0.933  12.506 -0.1872 -0.2200  0.1518
24007W        W39816   1.371   8.005  12.506  0.3965  0.2714 -0.4275
24008W        W39817   7.452  17.965  13.120 -0.2196 -0.1057  0.2243
24009W        W39818   7.221  13.917  11.715  0.0074  0.2599  0.3895
24010W        W39819   2.338  18.506  12.526 -0.1356  0.4069 -0.1147
24011W        W39820   2.508   7.364   2.505  0.1117 -0.3862 -0.0814
24012W        W39821  13.738  12.520  10.629  0.0385 -0.0572  0.0309
24013W        W39822   7.273  17.674  10.338 -0.3569  0.2891  0.1268
24014W        W39823   5.576  16.946  10.710  0.3694  0.4309  0.0209
24015W        W39824  16.610   3.457   4.016 -0.0160  0.1698  0.0421
24016W        W39825   2.502   1.475   1.202 -0.0034 -0.0698  0.0589
24017W        W39826   4.792  18.995  11.243 -0.1289  0.1478 -0.0185
24018W        W39827   1.811  12.471   3.278 -0.0392  0.0940 -0.0395
24019W        W39828   0.752   3.144   2.013  0.0729  0.0365  0.3870
24020W        W39829   1.470   1.825  14.367 -0.2644  0.2438  0.0529
24021W        W39830  13.697   5.611   0.343 -0.1374 -0.1053  0.1852
24022W        W39831  15.155   8.504   3.812 -0.0134  0.0685 -0.2227
24023W        W39832  17.910  12.375  10.611  0.0777 -0.5485 -0.0098
24024W        W39833   3.545  12.506   1.939 -0.0112 -0.2556  0.0456
24025W        W39834  19.036   5.176   2.429 -0.0692 -0.0479 -0.1883
24026W        W39835   6.106   1.661  13.820  0.1064 -0.4001  0.2735
24027W        W39836   6.470   7.818   0.082  0.1743  0.0683  0.0190
24028W        W39837   0.186  10.108   2.148  0.0749 -0.2861  0.1735
24029W        W39838  12.143  17.650   3.180 -0.1574 -0.2591 -0.0288
24030W        W39839   7.446  11.728   3.996 -0.2133 -0.2667 -0.1978
24031W        W39840  13.503   4.957  14.995  0.5861  0.1428 -0.2089
24032W        W39841  15.522  18.688  12.799  0.0232  0.2615 -0.1124
24033W        W39842   9.791   5.333  14.444  0.1276 -0.1527 -0.0787
24034W        W39843   2.825   7.158   0.991  0.1550  0.3167 -0.1545
24035W        W39844  17.326  14.889  10.747  0.1694  0.0563 -0.0993
24036W        W39845  18.060  11.332   2.762 -0.0979 -0.1670  0.2720
24037W        W39846   1.461   7.539   0.795 -0.0512  0.3337 -0.1359
24038W        W39847  17.916   6.599   0.521  0.0812  0.2343  0.1160
24039W        W39848   6.010   9.533   2.981 -0.0479 -0.2576  0.1529
24040W        W39849  13.804  18.658   0.833 -0.3804 -0.3230 -0.2883
24041W        W39850   7.639   0.269   0.318  0.0198  0.3121  0.2696
24042W        W39851  17.454  10.561  14.350 -0.1482  0.2440  0.2897
24043W        W39852   2.515   8.318   0.289  0.5497  0.5185 -0.2044
24044W        W39853  12.723   7.339   9.670  0.1621 -0.0672  0.2423
24045W        W39854  19.005   0.393  11.742 -0.0585  0.0479  0.1579
24046W        W39855  14.706   2.525   1.757 -0.3231  0.0634 -0.4241
24047W        W39856   9.940  16.956  14.189 -0.0945  0.1417 -0.2927
24048W        W39857  12.889   0.365   0.755  0.0259 -0.2769  0.1678
24049W        W39858  12.720  17.022  11.684  0.1746 -0.2614  0.0402
24050W        W39859  12.034  13.422  13.862 -0.2057  0.0912  0.0339
24051W        W39860   3.071  12.071  12.159  0.0010  0.1973 -0.0392
24052W        W39861   0.236   8.007  13.374  0.1047  0.0409  0.0884
24053W        W39862  18.568   0.111   5.169 -0.2033 -0.1193  0.1633
24054W        W39863   5.393   6.125  12.195  0.0512 -0.1707 -0.0620
24055W        W39864   4.185   8.577   4.921 -0.0261  0.1941 -0.0796
24056W        W39865   5.312   1.428  13.916  0.1380 -0.3026 -0.1043
24057W        W39866   2.451  15.458   0.043 -0.1776  0.2213  0.0876
24058W        W39867  16.167  16.270   2.920  0.0827  0.0348 -0.2816
24059W        W39868   8.741   7.342  13.576 -0.0699 -0.3876  0.0304
24060W        W39869   5.038   9.602  15.166  0.0756 -0.0751 -0.0958
24061W        W39870   4.517  17.714  11.983 -0.2298  0.0532 -0.1486
24062W        W39871  18.183   0.519   2.395 -0.1994  0.1491 -0.1209
24063W        W39872  16.898  13.200  14.026  0.1357  0.1115 -0.0215
24064W        W39873   7.948  11.171   0.259 -0.0258  0.2437 -0.0224
24065W        W39874   6.730  17.145  13.883  0.0635 -0.0120 -0.1310
24066W        W39875  11.039  10.925  12.562 -0.0047  0.0950 -0.0160
24067W        W39876   9.371   0.060   0.516 -0.3873  0.0715  0.0768
24068W        W39877   1.504  10.780  13.323  0.0392 -0.1780 -0.2723
24069W        W39878   0.231  18.680   3.706 -0.2989 -0.1573  0.0472
24070W        W39879   8.779   5.532   0.642  0.4279  0.4140  0.2940
24071W        W39880   4.074   1.142   2.142  0.1454  0.1240  0.2531
24072W        W39881   4.533  16.857   4.901 -0.4320  0.0139 -0.1350
24073W        W39882  10.590   5.705   1.347  0.1404  0.0207  0.1091
24074W        W39883   2.317  10.936  15.091  0.2825  0.3735 -0.2488
24075W        W39884   0.403   2.303   3.656 -0.3546 -0.0488 -0.1412
24076W        W39885   9.706   4.783   0.535 -0.1704  0.3785  0.0010
24077W        W39886   0.438  13.084   5.438 -0.0704 -0.2854 -0.0976
24078W        W39887   4.452   0.451  12.446  0.0061 -0.1199  0.1262
24079W        W39888   5.197   5.831   2.573 -0.1860  0.2707 -0.0154
24080W        W39889   0.944   5.026   0.691 -0.0832  0.2011 -0.2723
24081W        W39890   7.181  14.760  12.128 -0.0860  0.4191  0.4197
24082W        W39891  11.684   2.529  12.331  0.4709 -0.1190 -0.0254
24083W        W39892  12.737  11.926  12.582 -0.0386  0.0347 -0.0341
24084W        W39893   4.408  14.308  14.021 -0.1243 -0.0770 -0.2136
24085W        W39894   8.395   5.240   0.452  0.0445 -0.0801  0.2231
24086W        W39895   8.899  14.774  12.943  0.1470  0.1474 -0.0844
24087W        W39896  14.716   3.854   5.210  0.0418  0.0257  0.1289
24088W        W39897   2.930  14.258  11.635  0.1272 -0.0394 -0.0346
24089W        W39898  18.590   1.267  11.873 -0.2182  0.0118 -0.0808
24090W        W39899  16.549   2.733   2.709 -0.1698  0.1525 -0.0179
24091W        W39900  11.345   4.238  12.534  0.1189  0.2292 -0.0944
24092W        W39901  14.148   2.614   4.444 -0.0410 -0.1811 -0.3047
24093W        W39902  13.456  11.421   0.270  0.0128 -0.2876  0.0654
24094W        W39903  17.528   1.617   5.421  0.1989 -0.0595 -0.2726
24095W        W39904  16.423  12.986   5.785 -0.0238  0.2588 -0.1226
24096W        W39905   7.946   7.932   2.954 -0.0004  0.4077 -0.2820
24097W        W39906  18.578  12.705   2.331  0.1878 -0.0160 -0.0931
24098W        W39907  10.288   3.814  10.485  0.2302  0.0222  0.0213
24099W        W39908   9.681  12.621  14.268 -0.0534 -0.1969 -0.0170
24100W        W39909   0.631  10.634   0.431 -0.0750 -0.4183  0.0129
24101W        W39910  15.188   7.358   2.174  0.0336 -0.0696 -0.1615
24102W        W39911  11.914   5.909   0.333  0.1566 -0.3382  0.5892
24103W        W39912  17.783   2.782   3.424  0.0493  0.2180  0.2146
24104W        W39913   2.803  12.446   1.481 -0.0795  0.1072  0.0414
24105W        W39914  16.501   4.248  12.905 -0.0222  0.4740  0.1291
24106W        W39915   7.840  18.495  14.709  0.2089  0.0741 -0.1505
24107W        W39916  13.157   8.982  11.368 -0.1632  0.2307 -0.0105
24108W        W39917  16.384   5.069   2.958  0.0776  0.2108  0.1072
24109W        W39918   7.021   9.013   3.668  0.2413 -0.0324 -0.0165
24110W        W39919   3.901   2.578  12.472  0.0904 -0.0019 -0.0771
24111W        W39920   4.070   5.812  13.114  0.0121  0.3069  0.2242
24112W        W39921   3.038  11.093   2.013 -0.1633 -0.0589  0.1307
24113W        W39922   8.501  11.051  13.439  0.2903 -0.2914  0.0511
24114W        W39923  16.574   3.813  11.094  0.1491  0.0984 -0.2805
24115W        W39924  12.669  12.970   5.366  0.0089 -0.1194 -0.0338
24116W        W39925  18.197   5.193  13.957 -0.0505  0.2575  0.3920
24117W        W39926   0.393   8.490   1.330  0.0251 -0.1951  0.1172
24118W        W39927   7.731   6.721   1.690  0.3818 -0.1093 -0.5450
24119W        W39928  13.780  11.776  13.046 -0.3705  0.2912  0.2894
24120W        W39929   5.743  11.437  14.947  0.0469  0.0882 -0.0718
24121W        W39930  10.417   8.780   0.307  0.1114  0.1420  0.0683
24122W        W39931   5.066   1.903   3.981  0.0999 -0.0234 -0.0844
24123W        W39932   3.770  14.612   1.711  0.0691 -0.1113  0.0514
24124W        W39933   1.707   4.402   2.766  0.3687 -0.4074 -0.0181
24125W        W39934  13.469   5.519  14.969  0.0196 -0.0040 -0.2139
24126W        W39935  11.625   5.058  11.989  0.1303  0.1742 -0.1302
24127W        W39936  12.394   7.872   3.267  0.0770  0.0912  0.1735
24128W        W39937   1.806   4.162  14.719  0.0468  0.0525  0.2951
24129W        W39938  11.189   3.622   4.325  0.0779  0.0537 -0.1230
24130W        W39939  17.291  10.784   4.364 -0.1871  0.1032  0.3091
24131W        W39940  14.561  15.270  11.671 -0.1142 -0.0184  0.1201
24132W        W39941   9.779   8.191   1.480  0.0544 -0.1860  0.1201
24133W        W39942  18.303  17.474  10.575  0.0178 -0.1302 -0.0725
24134W        W39943   5.473   7.575   1.417  0.0394  0.2494  0.0742
24135W        W39944  11.220   0.742  13.613  0.2137  0.0492 -0.0312
24136W        W39945  16.272   7.195  14.968 -0.0191  0.2292  0.3792
24137W        W39946  18.338   2.902  13.300  0.1400 -0.2144 -0.1055
24138W        W39947   2.645   6.168  12.217 -0.3431 -0.1307  0.1205
24139W        W39948   4.752   0.775   4.640  0.0756 -0.0670 -0.0713
24140W        W39949   1.157   4.237   2.681 -0.2197 -0.0820  0.0107
24141W        W39950  11.812  10.906  11.367 -0.0387 -0.1341 -0.0421
24142W        W39951   8.324   2.857  13.996  0.6444  0.0583 -0.0894
24143W        W39952   7.610   3.060  12.586 -0.2507 -0.0038 -0.2104
24144W        W39953   2.221   4.515   0.327 -0.0234  0.0064  0.3454
24145W        W39954  12.513   7.862  14.230  0.0551 -0.0340 -0.1290
24146W        W39955  14.795   7.201  13.769 -0.3438  0.2635  0.1410
24147W        W39956   8.861  17.759   2.270  0.0450 -0.0262  0.1667
24148W        W39957  18.659   0.528   1.565  0.0931 -0.1955 -0.0625
24149W        W39958  11.328  15.264   0.873 -0.0404 -0.2310 -0.2638
24150W        W39959  12.809  14.324   1.645  0.1946  0.2278 -0.0010
24151W        W39960  15.013  17.641   2.030  0.0741 -0.0153 -0.0491
24152W        W39961  10.789   6.909   0.283  0.1018 -0.1568  0.1607
24153W        W39962   7.882   5.987   3.739  0.1800 -0.1553 -0.2013
24154W        W39963  10.417   0.694   3.352  0.2365 -0.0946  0.1020
24155W        W39964  10.858  15.056  14.064 -0.2500  0.0019  0.0418
24156W        W39965  13.605  16.757  11.288  0.2092  0.1915  0.1782
24157W        W39966  13.126  11.932  13.750 -0.1016 -0.1177 -0.3091
24158W        W39967  18.488  18.643   2.250 -0.2716 -0.4103  0.0990
24159W        W39968  14.883   2.135  13.759  0.1690 -0.0402  0.2822
24160W        W39969  10.915   4.871   1.609  0.1276 -0.2577 -0.0309
24161W        W39970   0.179  13.346  14.835 -0.0761 -0.2920 -0.0539
24162W        W39971  14.598   8.850   2.146 -0.1577  0.0109  0.1767
24163W        W39972  10.459   6.518   5.003  0.0054 -0.0360  0.0044
24164W        W39973   6.924   4.333  14.832 -0.0356  0.1906 -0.0688
24165W        W39974  12.255   6.035   1.578  0.0647  0.3239 -0.1283
24166W        W39975  16.893   2.280   5.080 -0.0691  0.0755  0.0850
24167W        W39976   6.884  14.662   4.505 -0.2737  0.0496 -0.4367
24168W        W39977  10.626  11.473   1.872 -0.1108  0.2258 -0.3120
24169W        W39978   5.771   4.549  13.185  0.1868 -0.1875  0.0954
24170W        W39979   7.391   3.599   2.316  0.0439  0.0154  0.2503
24171W        W39980   1.023   9.194   0.015 -0.0335 -0.2846 -0.2521
24172W        W39981  14.193   7.471   0.686  0.3022  0.2562 -0.1777
24173W        W39982  12.298  12.811  11.378  0.1422 -0.1804 -0.0783
24174W        W39983  12.858   6.067  11.718 -0.0350 -0.1538  0.3166
24175W        W39984  12.375  16.432   2.347  0.2019 -0.4029 -0.0403
24176W        W39985   4.703  14.803   0.651  0.1668 -0.0880 -0.1028
24177W        W39986   2.079   4.557   2.478  0.2596  0.1919 -0.1560
24178W        W39987   6.874  10.754  12.775 -0.2905 -0.1306  0.2211
24179W        W39988   0.766   2.831   4.402 -0.0693 -0.1005  0.1583
24180W        W39989   2.737   7.298   4.430 -0.1170 -0.1315 -0.3637
24181W        W39990   8.134  18.922   5.433  0.0106 -0.0394  0.2177
24182W        W39991   0.479   3.188  15.006  0.1929 -0.0938 -0.1095
24183W        W39992   0.306  13.222   3.344  0.1382  0.1734  0.2010
24184W        W39993  14.379   5.066   0.633 -0.1212 -0.0784  0.1326
24185W        W39994   4.858  18.083   1.073 -0.0883 -0.4379  0.1502
24186W        W39995  11.675   8.106  13.872 -0.2279  0.1634  0.0462
24187W        W39996  16.616   6.343   9.459 -0.2191  0.0062 -0.1906
24188W        W39997  13.070   2.570  10.694 -0.0732  0.0811  0.1460
24189W        W39998   4.901  17.688  15.243 -0.1990  0.1751 -0.0810
24190W        W39999   1.011   1.523  14.588  0.2052 -0.4344 -0.0786
24191W        W40000   8.753   2.314  11.185  0.0322  0.0460  0.0858
24192W        W40001  15.175  13.731   5.369  0.1633 -0.0901 -0.1473
24193W        W40002   8.624   6.631  11.765 -0.1489  0.0738 -0.4626
24194W        W40003  16.046  12.597  13.961  0.5354  0.0197 -0.0010
24195W        W40004  12.830  17.529   0.205  0.2089 -0.0338 -0.2189
24196W        W40005  11.914   1.329   1.998 -0.2637 -0.3809 -0.2209
24197W        W40006   5.847   3.342  10.666 -0.1758 -0.3948  0.1434
24198W        W40007   5.960  18.465   2.280 -0.1854  0.0405  0.0571
24199W        W40008   3.658  10.757  12.000 -0.0643  0.1699  0.0540
24200W        W40009  18.987  11.355   5.040  0.1145  0.2551  0.1186
24201W        W40010  17.134   4.408   1.075 -0.1532 -0.2257 -0.3338
24202W        W40011   5.853  14.060  12.473 -0.1726  0.3202 -0.1085
24203W        W40012  11.928   7.456  12.560 -0.0102  0.1778  0.1056
24204W        W40013   4.577  14.488   4.036 -0.1072 -0.2022 -0.2009
24205W        W40014   7.646  12.441  12.126 -0.1287  0.1649 -0.1772
24206W        W40015  17.997   8.009   3.084  0.0398 -0.2763 -0.0631
24207W        W40016   5.581  18.406  14.835 -0.2796 -0.4424 -0.0132
24208W        W40017  17.917   9.482  15.082 -0.0249  0.2875 -0.0252
24209W        W40018  15.018   4.015   4.867  0.1576 -0.1305 -0.4237
24210W        W40019   8.083   4.157   0.169 -0.0393 -0.2956 -0.2575
24211W        W40020   7.942  15.821   4.042 -0.1390  0.0557  0.1311
24212W        W40021   0.034  15.206  10.642 -0.1322  0.2433 -0.0091
24213W        W40022  19.062   4.599  12.445 -0.0172 -0.0865  0.0706
24214W        W40023   4.444  12.297  15.181  0.1242  0.0228 -0.0100
24215W        W40024  13.785  15.517  15.055  0.2691  0.0881 -0.0996
24216W        W40025   6.611   8.779  12.774 -0.2179  0.4123  0.1829
24217W        W40026   1.552   6.925   2.903 -0.0668  0.2349  0.2469
24218W        W40027  12.087   6.159  14.659  0.2722  0.1635 -0.1383
24219W        W40028  18.358  18.073  13.461 -0.2222 -0.0755 -0.3312
24220W        W40029  11.250   8.357  13.508 -0.4299 -0.2737 -0.2258
24221W        W40030   7.014  18.522  12.362 -0.2085 -0.0833 -0.3122
24222W        W40031   5.780   4.934  11.899 -0.1720  0.0953  0.1858
24223W        W40032  16.258   2.043   4.364  0.3141 -0.1843 -0.0698
24224W        W40033  18.734   2.998   4.881  0.3132  0.0565 -0.2697
24225W        W40034  12.596  17.431  13.935 -0.2456  0.1569 -0.0513
24226W        W40035  12.276   6.595  14.502 -0.1844 -0.1405  0.2725
24227W        W40036   6.497   2.373   1.681  0.1060 -0.2313 -0.7051
24228W        W40037   4.036   5.388   4.436 -0.1864 -0.1519 -0.1096
24229W        W40038   2.533  14.853   1.892  0.1864 -0.0622 -0.1022
24230W        W40039   0.703  15.614   2.637 -0.0564  0.0970 -0.0494
24231W        W40040   8.485  13.338   4.127 -0.0194  0.1278 -0.0288
24232W        W40041  18.952  18.235   2.399 -0.1916  0.2676 -0.2362
24233W        W40042   5.564  12.393   5.598  0.1578 -0.4461  0.0349
24234W        W40043   6.003  10.874  11.987 -0.2547  0.0764  0.0012
24235W        W40044  11.620   7.585  13.792 -0.1104  0.5473 -0.0247
24236W        W40045  18.833  17.080   0.158 -0.1435  0.2805 -0.0575
24237W        W40046   9.868  12.336  11.181 -0.1952 -0.0313  0.1930
24238W        W40047   7.619   3.591   4.981 -0.2574  0.1900  0.0638
24239W        W40048  13.684   0.711  12.671  0.4620  0.0766  0.0503
24240W        W40049  12.868  11.245   0.022 -0.1684  0.2322 -0.3328
24241W        W40050  15.095   7.990   1.645  0.1367  0.1135  0.2123
24242W        W40051   0.269   8.798   6.045  0.0895 -0.2650 -0.0732
24243W        W40052  18.422  14.747  10.938  0.0371 -0.4714  0.2728
24244W        W40053  17.781   0.974   3.044  0.3243  0.2559 -0.1028
24245W        W40054   2.362   0.591   0.853 -0.1114 -0.2303  0.0725
24246W        W40055  17.165   8.789  13.543  0.2510  0.0088  0.0829
24247W        W40056   5.269   8.330  12.562 -0.0912 -0.1045 -0.1449
24248W        W40057  15.661   5.026   1.548 -0.1004 -0.0747 -0.2692
24249W        W40058   4.881  15.550  11.773  0.1842 -0.1544 -0.0793
24250W        W40059  13.386   5.458   2.576  0.0904 -0.2554 -0.4169
24251W        W40060  15.328  18.658  14.379 -0.2947  0.4503  0.0918
24252W        W40061   8.424   6.670  14.791 -0.0511  0.2291  0.0701
24253W        W40062   2.181  15.187   1.489 -0.1765  0.1397 -0.2029
24254W        W40063  13.622   1.429  12.009  0.0829  0.1866 -0.2647
24255W        W40064  13.858  10.020  10.239  0.2843  0.0113 -0.0721
24256W        W40065   0.039   7.054  14.066  0.2689  0.0086  0.1543
24257W        W40066   3.522   4.843   2.200  0.2002  0.1250 -0.0447
24258W        W40067   3.309   5.540  12.763  0.0564 -0.2019  0.2132
24259W        W40068   8.599  15.436   0.659 -0.1355  0.0112  0.1923
24260W        W40069   0.165   4.271  12.206  0.1912  0.0627 -0.2599
24261W        W40070   1.971   3.591   4.471 -0.1812  0.6370 -0.1621
24262W        W40071  18.965   7.794  14.808 -0.0198 -0.2004 -0.0174
24263W        W40072   5.075  18.390  11.043 -0.0862 -0.0554 -0.4276
24264W        W40073   1.261   5.032  12.598  0.0983 -0.2411 -0.1619
24265W        W40074   4.450   0.690   0.639 -0.0168  0.1040  0.0143
24266W        W40075  11.078  10.291   3.855  0.0622 -0.2025 -0.2714
24267W        W40076  14.753   1.730  13.362  0.3824 -0.0487  0.0015
24268W        W40077  17.343   1.178   0.527  0.5206  0.1859 -0.3980
24269W        W40078   1.103   4.736   1.939  0.1413  0.0029  0.0872
24270W        W40079  18.566  14.250   2.605  0.2983 -0.1318  0.0677
24271W        W40080   7.781  13.901  13.509  0.0167  0.3442  0.0767
24272W        W40081   0.075  14.384  14.666 -0.2753 -0.2781 -0.1264
24273W        W40082  18.141   9.205   1.214 -0.0472 -0.0753 -0.0860
24274W        W40083  14.577  14.424  11.997 -0.0709  0.1696 -0.0395
24275W        W40084  15.999   1.055  11.779  0.4028  0.1932 -0.1073
24276W        W40085   8.055  11.910  13.928  0.1740  0.0303 -0.0811
24277W        W40086  13.065  13.587  14.066  0.0836  0.0656 -0.1567
24278W        W40087  14.220   5.727   5.336 -0.2354  0.1290 -0.3269
24279W        W40088   8.207  11.592  10.425  0.1351  0.1298  0.2463
24280W        W40089   7.729   6.380  11.678 -0.4522  0.1854 -0.2218
24281W        W40090  19.034  16.618   0.218  0.0875  0.3330 -0.1835
24282W        W40091  14.136   3.194  15.077  0.2592 -0.5934  0.0382
24283W        W40092   9.748  13.162  13.090  0.1991  0.1516  0.1507
24284W        W40093  11.520   2.538  10.917  0.0237  0.1172  0.0302
24285W        W40094   3.819   8.444   3.933 -0.0327 -0.0373 -0.0795
24286W        W40095  15.797   9.782  14.649  0.2442  0.2913 -0.1134
24287W        W40096  13.638  10.484   3.157  0.2269 -0.1584  0.2112
24288W        W40097   8.727  10.200  14.111 -0.2074  0.0475 -0.1535
24289W        W40098  15.082  12.825  13.605  0.2987  0.0462 -0.1167
24290W        W40099  16.175   7.905   2.347  0.0213 -0.1716 -0.0005
24291W        W40100  10.690   1.166   1.133 -0.0106 -0.3009  0.0596
24292W        W40101  13.983   4.337  11.902  0.0959 -0.3971 -0.0639
24293W        W40102  11.914  18.130   3.146 -0.2205 -0.3341 -0.3429
24294W        W40103  18.438   3.524  13.764  0.1517 -0.0662 -0.1127
24295W        W40104   5.543  10.436   0.365 -0.1210  0.1187 -0.1628
24296W        W40105   1.682  16.590   4.668 -0.0289 -0.2590 -0.1864
24297W        W40106   0.922  14.383  14.014 -0.0727 -0.0438 -0.0066
24298W        W40107  12.787   0.836   1.664 -0.1802  0.0113 -0.1788
24299W        W40108   1.455  13.123   0.165 -0.4865 -0.0926 -0.0738
24300W        W40109   1.526  13.865   2.010 -0.1830 -0.1327 -0.2979
24301W        W40110  14.609   6.533   1.129  0.1201  0.2365 -0.0490
24302W        W40111  19.103   1.710   3.733  0.1221 -0.1153 -0.1901
24303W        W40112   4.600   5.680   3.011 -0.1274  0.1086 -0.5372
24304W        W40113  10.520   8.352  15.175 -0.1025  0.2528  0.0967
24305W        W40114   1.938  18.476  12.228 -0.2304  0.4487  0.2333
24306W        W40115   0.535  15.255   4.287  0.1859  0.3328  0.1229
24307W        W40116   8.879   2.057  12.644  0.1823  0.0086 -0.1722
24308W        W40117   1.675   0.354   1.464 -0.2670  0.0857 -0.0934
24309W        W40118   9.968  16.930  13.388 -0.1034  0.0145 -0.0698
24310W        W40119   8.280  14.531  13.183  0.0353 -0.0869  0.1796
24311W        W40120  18.253  17.034   0.425 -0.0247  0.0202 -0.1255
24312W        W40121  19.041   3.324  13.965 -0.4759 -0.0884 -0.0289
24313W        W40122  14.800  16.988   0.346 -0.1878  0.0201 -0.1566
24314W        W40123   5.590   2.025  11.032 -0.4139 -0.0574  0.1379
24315W        W40124   7.385   3.148   2.695 -0.0300  0.1225 -0.1919
24316W        W40125  10.603   9.900  14.797 -0.2793 -0.0433 -0.3116
24317W        W40126  17.388   7.472   0.631 -0.0804 -0.2108  0.1198
24318W        W40127  11.500   7.178   2.478 -0.0253  0.0536 -0.5619
24319W        W40128   3.967   2.245  11.574  0.0282  0.0326  0.0418
24320W        W40129   6.616   6.365   4.448  0.0505  0.3583  0.0572
24321W        W40130   7.497   7.855   3.715  0.3454  0.1670 -0.0205
24322W        W40131  13.309  16.605   6.074 -0.2021 -0.0663 -0.4252
24323W        W40132   4.811  14.911   1.304  0.0241 -0.2368  0.0108
24324W        W40133  12.901   3.234  13.878  0.2382  0.1151  0.1509
24325W        W40134  17.363  17.148   5.512 -0.0949  0.0763 -0.3138
24326W        W40135  16.188  17.516  14.909 -0.0807 -0.1175 -0.1482
24327W        W40136   9.536   6.003  13.348  0.3122 -0.3439  0.0664
24328W        W40137   8.850   6.024  12.212  0.0705 -0.0338  0.0469
24329W        W40138   2.733   4.554   0.290  0.0635 -0.0098  0.0625
24330W        W40139   5.107  15.396  12.332  0.4554 -0.0324  0.0720
24331W        W40140  17.180   0.576  14.422 -0.1164  0.0245 -0.2955
24332W        W40141   8.325   0.905   0.022  0.0085  0.1179 -0.1213
24333W        W40142   6.488  11.666   1.093 -0.1101 -0.0675  0.1645
24334W        W40143   6.017  12.212  11.482 -0.2756  0.5191 -0.2345
24335W        W40144  14.347  12.527  12.189 -0.1562 -0.1563  0.0233
24336W        W40145   9.689   7.783  15.153 -0.0836  0.0104  0.3157
24337W        W40146  17.544  16.328  10.874  0.2105 -0.0620  0.0502
24338W        W40147  16.793   5.268  11.305 -0.2179  0.3094  0.0434
24339W        W40148  18.709   5.643  10.275  0.0084  0.4551 -0.1381
24340W        W40149   4.331  10.684   4.566 -0.1619 -0.2975 -0.0424
24341W        W40150   2.174   7.128  15.028 -0.2389  0.1256  0.1537
24342W        W40151   4.272  18.261  10.655 -0.1892 -0.1900  0.2160
24343W        W40152   7.122  10.114   7.115 -0.1275  0.0154 -0.0259
24344W        W40153  12.292   8.017   9.541 -0.0380  0.0980  0.0842
24345W        W40154  17.962  17.541  15.226  0.0511  0.2260  0.0831
24346W        W40155  18.465  14.502  14.146 -0.0519  0.2115 -0.2795
24347W        W40156   6.426   3.171  13.424  0.0661  0.3265 -0.1728
24348W        W40157   4.661   9.214  11.567  0.0271  0.0500 -0.0295
24349W        W40158   2.115  14.007   3.566  0.2181 -0.1461  0.0802
24350W        W40159  16.755  13.141  13.025  0.1242 -0.1082  0.1056
24351W        W40160   2.579  13.137  14.567 -0.2635 -0.1743 -0.1586
24352W        W40161   7.180   7.982  14.952  0.0055  0.0158 -0.0057
24353W        W40162  11.290   9.245   0.086  0.1449 -0.0199 -0.0615
24354W        W40163   8.889   7.816  11.907  0.1937  0.0200  0.0301
24355W        W40164   2.477   4.217   0.009  0.0637  0.0837  0.4349
24356W        W40165   9.009   3.904   2.066  0.1621 -0.0723  0.0732
24357W        W40166   5.027  12.164   0.958  0.3183 -0.0061 -0.0660
24358W        W40167   4.609  11.859  11.263  0.2182  0.1762 -0.0309
24359W        W40168  12.292  15.575   4.588 -0.1331  0.1390  0.0658
24360W        W40169  13.965  13.847  13.727  0.1250 -0.2023 -0.4582
24361W        W40170   0.467   4.992  11.778 -0.1419  0.2749  0.1511
24362W        W40171  17.059   7.001   0.364 -0.2866  0.3370  0.2538
24363W        W40172  14.599   1.686  11.186  0.2181 -0.0173 -0.0777
24364W        W40173  15.164   9.763  13.162  0.3341 -0.0991 -0.2022
24365W        W40174   0.461  16.069   0.362 -0.0760  0.0939  0.1883
24366W        W40175  14.250   0.826  11.390  0.1008 -0.2394  0.0874
24367W        W40176   5.682   0.682  13.341  0.2528  0.3645 -0.0667
24368W        W40177   4.515   1.560  10.751 -0.2306  0.1448  0.0036
24369W        W40178   2.236   6.029   3.523  0.0214 -0.1632  0.1294
24370W        W40179  10.577  13.599  13.914 -0.1360  0.0489 -0.1702
24371W        W40180   8.304  17.420  12.953 -0.1359 -0.0209 -0.0813
24372W        W40181   1.326   5.885  11.410  0.0308  0.3464  0.3972
24373W        W40182   3.686   8.454   2.509 -0.3072 -0.0510 -0.0765
24374W        W40183   2.736  10.954   6.359 -0.5657 -0.0753  0.2408
24375W        W40184  14.903   3.551   1.805 -0.1442 -0.0962 -0.0532
24376W        W40185   2.168   3.232  12.977  0.1717  0.2112  0.0605
24377W        W40186   3.123  18.423  11.993 -0.1291 -0.0947  0.2268
24378W        W40187   8.989  13.391   0.716 -0.1220 -0.1540 -0.0472
24379W        W40188  14.207   3.001   2.909 -0.3532  0.0570 -0.0814
24380W        W40189   4.795  11.028  12.236  0.1634 -0.0924  0.1249
24381W        W40190   2.212  10.156  11.227  0.2927 -0.0275  0.0226
24382W        W40191   5.030  11.162  13.949  0.0171  0.4202 -0.1037
24383W        W40192  15.669  12.656   2.535  0.0598  0.2637 -0.2495
24384W        W40193  18.613  11.902  14.701  0.1168 -0.0303  0.0399
24385W        W40194   3.629   5.733  11.702 -0.0588 -0.2102  0.2770
24386W        W40195   3.363  18.243   4.954  0.2234  0.2822 -0.2092
24387W        W40196   5.799   4.527   1.582  0.1613  0.0045  0.0797
24388W        W40197  12.274  13.829  10.631 -0.0422  0.0951 -0.0790
24389W        W40198   1.085  12.657   3.132  0.1926 -0.1171 -0.2559
24390W        W40199  18.625   3.502   1.832 -0.1545 -0.0133  0.3154
24391W        W40200  16.494   9.630   1.484 -0.2090 -0.1947 -0.0882
24392W        W40201  16.140   7.362   0.626 -0.0013 -0.1801 -0.2969
24393W        W40202   4.578   4.962   4.327  0.0647 -0.2909  0.0768
24394W        W40203   6.331  10.568  13.929 -0.2243 -0.0753  0.1132
24395W        W40204   7.439   4.890   5.202  0.3218  0.0408 -0.0933
24396W        W40205  17.263   4.754   3.279  0.0486  0.2371  0.0441
24397W        W40206  16.347  15.832   2.050  0.0626 -0.1455 -0.0836
24398W        W40207  17.688  13.536   0.669 -0.0893  0.1111 -0.1898
24399W        W40208  16.553  16.360   5.448  0.0160 -0.0704  0.0955
24400W        W40209   6.767  12.378   2.062 -0.1571  0.0822 -0.0350
24401W        W40210   7.374   6.236   0.837 -0.2750  0.3598  0.1606
24402W        W40211   8.026  15.886   2.354 -0.1410  0.4216  0.1234
24403W        W40212   2.360  17.712   1.608 -0.2567 -0.0109 -0.0311
24404W        W40213  17.144  16.139   2.286  0.1242  0.1495 -0.4673
24405W        W40214  11.481   1.506   2.164  0.1837  0.0974 -0.2239
24406W        W40215   2.665  12.340  13.239 -0.0510 -0.1467 -0.2794
24407W        W40216  10.111   7.677  14.957  0.0776  0.0565  0.1119
24408W        W40217   6.380   0.712  13.032  0.1119 -0.2442  0.1178
24409W        W40218   6.873  11.054  15.172 -0.0912  0.2004  0.2368
24410W        W40219  15.938  18.700   2.615  0.1351 -0.1219  0.0012
24411W        W40220  14.852  12.569  11.303 -0.1356 -0.0599 -0.2351
24412W        W40221  12.709  11.390   5.768  0.1132 -0.3131 -0.2370
24413W        W40222   0.161  16.450  10.357  0.0272 -0.2852  0.1370
24414W        W40223   6.882   7.785  10.869 -0.1205  0.1344  0.2026
24415W        W40224  15.695  10.288  14.635  0.1217  0.2208 -0.1221
24416W        W40225  11.190  10.073  10.487 -0.2536  0.1151 -0.0803
24417W        W40226  12.610  13.825   4.105 -0.2318  0.0427 -0.0164
24418W        W40227  10.653   1.047  11.259 -0.3327 -0.1598  0.1476
24419W        W40228   1.870   2.507   3.246 -0.0484 -0.2209 -0.0364
24420W        W40229   1.818  11.202   2.598 -0.0223 -0.4603  0.0248
24421W        W40230  14.711   7.188   2.213 -0.0781 -0.0620  0.1446
24422W        W40231   7.824   5.418  13.430 -0.1310 -0.1011 -0.0726
24423W        W40232  13.216  12.463  11.418 -0.0913 -0.1611 -0.0990
24424W        W40233  11.528  11.535  14.929 -0.1072  0.4472  0.0332
24425W        W40234  10.046  11.866  11.382 -0.2147 -0.2393 -0.6021
24426W        W40235   4.947   6.015  11.927  0.1208 -0.0272 -0.1845
24427W        W40236  18.616   1.795  11.998  0.0578  0.0829  0.2321
24428W        W40237   5.348  13.192   3.925  0.2530 -0.1287 -0.1945
24429W        W40238  15.959  13.886   1.090 -0.3704 -0.0593  0.3975
24430W        W40239   8.548  12.744  11.116  0.1110 -0.1198 -0.0529
24431W        W40240  12.869   3.567   2.722 -0.0228  0.1211  0.3560
24432W        W40241  16.300   9.387   0.505  0.0547  0.0820  0.2619
24433W        W40242  11.923   5.498   2.520  0.2270 -0.0542 -0.3363
24434W        W40243  17.723   0.714   2.476 -0.0415  0.1038  0.0341
24435W        W40244  10.716  16.758  13.538  0.4538 -0.1705 -0.1929
24436W        W40245   3.441  14.938   2.430 -0.3768  0.0042  0.0149
24437W        W40246  13.883   7.215   3.610 -0.2526  0.0271  0.1731
24438W        W40247   5.950  10.076  14.911  0.3303 -0.1754  0.1499
24439W        W40248   0.606   2.054  11.508 -0.2715  0.2534  0.1670
24440W        W40249   0.610   0.458  10.577  0.2157 -0.1413 -0.1326
24441W        W40250   9.501   4.287  11.133 -0.0407 -0.1142 -0.0094
24442W        W40251  15.549   5.139  13.722 -0.0013  0.3495  0.1043
24443W        W40252  16.448   7.643   4.318 -0.1387 -0.0553  0.0659
24444W        W40253   1.702   8.584  11.818 -0.0062 -0.2128  0.2010
24445W        W40254  15.311  12.129  11.340  0.0073  0.1325  0.0594
24446W        W40255   3.545  11.721  12.962 -0.0978 -0.4721  0.1842
24447W        W40256   1.416  10.235   6.139 -0.0239 -0.4477  0.0634
24448W        W40257  16.620   4.316  10.400 -0.0846  0.1192 -0.0559
24449W        W40258   5.669   3.286  12.099 -0.2177 -0.3041  0.1259
24450W        W40259  17.884  14.962  15.222 -0.0866 -0.0500  0.0843
24451W        W40260  14.484  16.147   0.874 -0.3400 -0.2002  0.0243
24452W        W40261   6.740   9.784  13.674  0.0492  0.1681 -0.0782
24453W        W40262  13.376   1.465   3.022 -0.3753 -0.0310  0.3209
24454W        W40263  15.837  10.972  11.079  0.1143  0.0981  0.3176
24455W        W40264  12.879  11.409  12.603  0.0093 -0.0814  0.0569
24456W        W40265  12.425   8.780  14.775 -0.2131 -0.3603 -0.0382
24457W        W40266   7.929  16.350  13.617  0.3288  0.0383 -0.2874
24458W        W40267   6.571  12.861   4.254 -0.1140 -0.0915 -0.0755
24459W        W40268   2.996   3.810   2.160  0.0738  0.2154 -0.0268
24460W        W40269  18.217   9.919  13.503  0.0555 -0.0777  0.0710
24461W        W40270   2.230   5.208  13.856  0.0331  0.0430  0.1001
24462W        W40271  16.925  18.994   5.064 -0.0765  0.0722 -0.1249
24463W        W40272  10.996   8.650   5.892 -0.2618  0.1008  0.1171
24464W        W40273   5.866  15.060  11.942  0.0811  0.2360 -0.4225
24465W        W40274   3.830  16.578   3.486 -0.3286  0.0869 -0.1998
24466W        W40275  11.350  10.152   9.969 -0.5893 -0.1066 -0.1553
24467W        W40276  17.779   0.774   5.494 -0.1630 -0.1052  0.0602
24468W        W40277  17.090   0.011   1.867 -0.1125  0.3814 -0.3441
24469W        W40278   7.371   5.149  13.146  0.1266  0.0118 -0.2838
24470W        W40279   3.251   4.461  11.790  0.0248 -0.0472 -0.0328
24471W        W40280   9.839   8.448  12.652  0.0199 -0.1362  0.1761
24472W        W40281  14.148  13.059   1.143 -0.1222 -0.0339 -0.0660
24473W        W40282   7.931  10.178   5.725  0.1066 -0.0712 -0.0196
24474W        W40283  10.756  12.853  11.036 -0.2678  0.0034  0.0724
24475W        W40284  17.302  19.051   3.187  0.2866 -0.1259 -0.2140
24476W        W40285  12.054  18.515  14.479 -0.2345 -0.4910 -0.2785
24477W        W40286  12.255  14.675   3.464 -0.2921 -0.1781 -0.1968
24478W        W40287  18.670   2.814  12.354  0.3303  0.0294  0.3202
24479W        W40288   2.753  11.504   3.170  0.3813  0.2203  0.2988
24480W        W40289  13.097  10.151   2.419 -0.0449  0.3201  0.0448
24481W        W40290   8.113   6.071  11.517  0.0165 -0.1550 -0.1414
24482W        W40291   5.949   9.941   3.947 -0.0736 -0.6890  0.1349
24483W        W40292   3.428   8.641   4.966  0.3241  0.0243 -0.1166
24484W        W40293   1.801  17.678   2.596  0.1435 -0.2491 -0.2040
24485W        W40294   6.437   6.321   2.150 -0.0927 -0.2075  0.2741
24486W        W40295  15.332  17.146  14.494  0.2968 -0.1368  0.2366
24487W        W40296   5.589  16.311   0.039  0.1852  0.0600 -0.1615
24488W        W40297  12.670   4.106   3.937  0.0801 -0.1358  0.0657
24489W        W40298   8.883   8.913   2.097 -0.2567  0.1928  0.0196
24490W        W40299   5.040  13.535  12.326 -0.0354 -0.1152 -0.3851
24491W        W40300  17.742   0.222  13.179  0.2634  0.2854  0.1208
24492W        W40301   8.976   9.431  13.828  0.2293 -0.2423  0.2607
24493W        W40302   0.190  13.015   2.876  0.1005 -0.1441  0.1735
24494W        W40303   8.678  16.182  13.155  0.1165  0.0646 -0.0099
24495W        W40304   0.081   7.624   6.097 -0.3127  0.0095 -0.1061
24496W        W40305  13.589   4.123   1.543  0.1496 -0.0570  0.2153
24497W        W40306  15.634  11.719  11.622 -0.3064  0.3936 -0.3653
24498W        W40307  17.870  11.828  13.299 -0.1431 -0.3075  0.2058
24499W        W40308  15.626  13.895  11.817  0.0716 -0.0136 -0.0416
24500W        W40309   0.701   0.473   3.377  0.0038 -0.0459  0.0394
24501W        W40310   7.470   0.407  15.030  0.0446  0.2310 -0.0491
24502W        W40311  17.447   9.580   4.224  0.1028 -0.1335 -0.2474
24503W        W40312  16.093   1.477  10.773 -0.0452 -0.0233 -0.3289
24504W        W40313   1.574   6.871  14.036  0.0665  0.2303  0.0689
24505W        W40314   5.778  18.578   1.079  0.2460  0.1289  0.0979
24506W        W40315  12.925   4.648   2.102 -0.0695 -0.1987 -0.2778
24507W        W40316  16.778  16.065  11.467  0.1486 -0.1074 -0.2490
24508W        W40317   3.646   5.595   0.664 -0.0881  0.0419 -0.1758
24509W        W40318  18.833  10.521  12.395 -0.0791  0.1570 -0.0454
24510W        W40319  17.767   8.230   2.263  0.1478  0.4834  0.0323
24511W        W40320   2.509   3.982  13.726  0.0543  0.0459  0.1147
24512W        W40321   9.459  12.249   0.492 -0.2632 -0.1943  0.1598
24513W        W40322  17.026  14.930  11.197  0.0192 -0.3595 -0.0730
24514W        W40323   8.082   0.749   1.139  0.0604  0.2051  0.2022
24515W        W40324   9.761   9.730  13.431 -0.4526 -0.3084 -0.0958
24516W        W40325   7.894   0.489  10.067 -0.2163 -0.0605  0.1495
24517W        W40326   0.614  17.237   4.072  0.0962 -0.1443 -0.2897
24518W        W40327   6.459   7.620  12.387 -0.2112  0.4431  0.0053
24519W        W40328  10.475   7.840   3.066  0.1624  0.3162  0.0895
24520W        W40329   4.886  10.088  12.671  0.0735  0.4090  0.4387
24521W        W40330   1.938  13.099   5.161 -0.3092  0.0392 -0.2534
24522W        W40331  15.822   2.241   2.437 -0.1194  0.1517 -0.1929
24523W        W40332  15.121   5.458   3.649  0.2184 -0.1389 -0.2297
24524W        W40333  12.347   4.205   0.409 -0.3502  0.0955  0.0377
24525W        W40334  16.577   1.225  10.648 -0.1317 -0.2668 -0.2769
24526W        W40335   8.885   7.858   0.517 -0.2671 -0.0544 -0.0576
24527W        W40336  12.054   4.417   0.874  0.0553 -0.1649 -0.0957
24528W        W40337   1.965   7.578  15.266  0.2631  0.0189 -0.2010
24529W        W40338   3.940  14.863  13.690 -0.2562 -0.1675  0.1075
24530W        W40339  18.196  12.109  13.515  0.0360  0.2843  0.2354
24531W        W40340  18.014  17.136  14.283 -0.1826  0.1215 -0.0798
24532W        W40341  10.250   7.146   1.702  0.1215 -0.0095 -0.0330
24533W        W40342  10.302  10.167   3.432  0.0868 -0.0201 -0.0306
24534W        W40343   6.269  10.429  10.752  0.1057  0.1667  0.0470
24535W        W40344  13.980   5.586   2.588  0.0512  0.1549  0.1302
24536W        W40345   2.801   8.190  13.273  0.2005  0.2532 -0.2750
24537W        W40346   1.870  12.410  12.875 -0.1442 -0.0776  0.0721
24538W        W40347  10.463   5.548  13.691 -0.2490 -0.2316  0.0195
24539W        W40348  13.055   8.788  10.879  0.1389 -0.4456  0.1877
24540W        W40349  17.424   2.122  12.599  0.1784 -0.2579 -0.0171
24541W        W40350  14.177  12.441   0.055  0.1969  0.0494  0.2326
24542W        W40351  12.589   0.871  11.296 -0.3614  0.2583 -0.0973
24543W        W40352  16.509   0.034  13.206 -0.0706 -0.1456  0.0211
24544W        W40353   9.327  15.993  10.682  0.1001 -0.0458  0.3256
24545W        W40354  15.386   8.170  13.257 -0.0795  0.1739  0.1774
24546W        W40355   8.307   0.215   2.430 -0.1086  0.0622  0.1426
24547W        W40356   2.562  17.792  11.892 -0.0130 -0.2704  0.2894
24548W        W40357  17.957   9.865  14.793  0.1726  0.3101  0.2504
24549W        W40358   1.933   8.950  13.377 -0.1216 -0.0280  0.0079
24550W        W40359  11.780  13.544  14.884 -0.0366  0.0585  0.2832
24551W        W40360  14.848  11.439  13.350 -0.0654 -0.1910  0.4654
24552W        W40361   4.462   1.224  14.741 -0.1482  0.4352  0.0554
24553W        W40362  12.499  13.566  13.388  0.1905 -0.0236  0.0130
24554W        W40363  16.954   1.455  11.438  0.4000 -0.1370 -0.0366
24555W        W40364  12.123  18.638  14.004 -0.1891  0.0030  0.0881
24556W        W40365  14.684  15.110   1.661 -0.5109  0.0842 -0.1233
24557W        W40366  17.581  14.728  14.355  0.0715 -0.0672  0.1534
24558W        W40367  16.460  13.041   4.496 -0.0445 -0.3726  0.2905
24559W        W40368  15.327   4.517   4.460 -0.3019  0.0974  0.0945
24560W        W40369   0.999   5.476  15.036 -0.0610  0.0073 -0.1019
24561W        W40370   2.007  10.634   4.876  0.1046  0.0279  0.0123
24562W        W40371  13.398   0.420   0.768 -0.1531  0.0567  0.0742
24563W        W40372  16.462  16.142   4.648  0.2587  0.0375  0.3523
24564W        W40373   4.789  14.552  11.379  0.1099 -0.0818  0.0480
24565W        W40374   7.454  16.967  11.725 -0.3166  0.0428 -0.2341
24566W        W40375   4.872   6.722   2.556 -0.3186  0.2325  0.2994
24567W        W40376  12.203  11.292   0.869  0.1334  0.3873 -0.0610
24568W        W40377   6.856  16.683  14.895  0.0639  0.2198  0.2884
24569W        W40378  18.006  11.391  12.435 -0.1784 -0.1120  0.0753
24570W        W40379  17.390   8.519  10.261 -0.0108  0.2187  0.0069
24571W        W40380  12.710  16.314  12.541 -0.0058 -0.2241 -0.2984
24572W        W40381  17.689  17.637   1.963 -0.0136 -0.0702  0.0652
24573W        W40382   3.710   4.458   0.110 -0.0864 -0.4140  0.2461
24574W        W40383   2.335  18.179   3.184 -0.0282 -0.4719  0.0062
24575W        W40384  12.312  15.858   5.458  0.3639  0.4748  0.0415
24576W        W40385  10.052  14.089  11.867 -0.0586 -0.3344  0.0671
24577W        W40386   6.073  15.830   4.548  0.1064  0.0639 -0.1437
24578W        W40387  15.808   8.184  12.882  0.0247 -0.1626 -0.2959
24579W        W40388   7.093  18.929  10.814 -0.2591  0.2106  0.0039
24580W        W40389  15.135  16.460  13.875 -0.0807  0.1420  0.0682
24581W        W40390   1.043  14.594  12.370  0.1255 -0.2027 -0.0920
24582W        W40391  17.145  11.403   3.485 -0.3631  0.1209  0.2515
24583W        W40392  13.152   1.006   3.952 -0.1547  0.0314 -0.1573
24584W        W40393   6.279  15.727  11.104  0.0006  0.4892  0.0347
24585W        W40394  18.038  14.818  13.487 -0.0558 -0.3335  0.2118
24586W        W40395   1.200  13.983  10.142  0.1037  0.1351  0.1177
24587W        W40396   4.838  10.042   3.504 -0.1052 -0.0413 -0.2485
24588W        W40397   0.277   4.662   4.546  0.2057  0.1172  0.0481
24589W        W40398  10.512  15.908   4.917  0.0424 -0.0847 -0.0174
24590W        W40399  11.856  12.657   1.364  0.1161 -0.2124  0.0016
24591W        W40400  11.998  17.415  12.400  0.0937 -0.1191  0.1527
24592W        W40401  13.499   3.153   3.793 -0.0055 -0.0022 -0.0272
24593W        W40402   6.130  18.103   4.565  0.0835  0.0332  0.1002
24594W        W40403  14.777   7.473  11.469 -0.0674 -0.0359  0.3009
24595W        W40404  14.252  18.903   2.236 -0.0842 -0.2296  0.0033
24596W        W40405  12.056   9.221  12.371  0.1172  0.1066 -0.1899
24597W        W40406   0.052   7.833  10.769  0.1233  0.1260 -0.2958
24598W        W40407  12.555   0.455  15.150  0.1111  0.1200  0.0847
24599W        W40408   9.869  18.842  13.722 -0.3267  0.1463  0.3155
24600W        W40409   1.498   5.282  10.508  0.3079 -0.3279  0.0042
24601W        W40410  18.793   1.753  12.588 -0.0649 -0.3114 -0.0041
24602W        W40411  13.414  18.110   2.360  0.0279  0.0390 -0.0230
24603W        W40412  15.527   8.950  12.654 -0.1311 -0.1013  0.1052
24604W        W40413   5.719   5.100   1.135  0.1060  0.0930  0.0091
24605W        W40414  19.059  11.427  11.813 -0.0293  0.0863  0.0455
24606W        W40415   9.238  10.332  11.065 -0.4359  0.1413 -0.1964
24607W        W40416  14.856   0.051  11.249  0.1012 -0.0380  0.1252
24608W        W40417  15.851   5.129  14.184 -0.1705  0.2194  0.0098
24609W        W40418   4.704   8.565   1.462  0.0740  0.0530  0.1366
24610W        W40419  11.366  18.930   3.579  0.3518 -0.2076 -0.0752
24611W        W40420   7.091  10.720  11.210  0.0551  0.1630 -0.0729
24612W        W40421  13.776   1.657  12.466  0.1424 -0.0941  0.1285
24613W        W40422   9.753  13.548   3.669  0.2749  0.6186  0.0656
24614W        W40423   3.510   2.431  12.793 -0.2016  0.1101  0.2028
24615W        W40424   2.513  15.608   2.943  0.2649  0.0224 -0.1212
24616W        W40425  11.088  16.577   5.296  0.0251  0.1138 -0.1210
24617W        W40426  13.797  15.157  13.991 -0.0719  0.0810 -0.3502
24618W        W40427   1.683   9.007   1.740 -0.0046  0.1951  0.0244
24619W        W40428   0.297  14.418   4.187 -0.3412 -0.1561 -0.0290
24620W        W40429   9.806   2.669   3.816  0.1992 -0.4146  0.1337
24621W        W40430  16.155   8.560   0.883 -0.1448  0.4624  0.1495
24622W        W40431   9.623   4.694   3.096 -0.2099  0.0861  0.2178
24623W        W40432  10.923   5.297  10.694  0.1334 -0.2339 -0.3202
24624W        W40433   1.818   2.142   3.541 -0.1080  0.0760 -0.0626
24625W        W40434   5.746   2.822  10.026 -0.0587  0.2330 -0.1173
24626W        W40435   3.508  13.846  13.403  0.1071 -0.0841  0.0121
24627W        W40436  12.173  16.432   3.416  0.0621 -0.0315 -0.4857
24628W        W40437   0.899  11.248  10.053  0.2367 -0.1089  0.2760
24629W        W40438  17.199  15.907  13.555  0.2964  0.0848 -0.0396
24630W        W40439  18.045  17.534  11.299 -0.0700 -0.1097 -0.1645
24631W        W40440   2.135   0.345   3.975 -0.0148 -0.0984  0.1230
24632W        W40441   0.456   9.886  13.924 -0.4236  0.1359 -0.0100
24633W        W40442   7.870   4.290  10.377  0.0361  0.3596 -0.0054
24634W        W40443   9.286  17.232  11.698  0.5462  0.2219  0.2926
24635W        W40444   9.268  11.247  13.611 -0.0174 -0.0309  0.0301
24636W        W40445   4.410  16.243   4.888 -0.1878 -0.2289 -0.1456
24637W        W40446  16.991  12.243   0.036 -0.0392  0.2164  0.0736
24638W        W40447  17.445  17.370   5.039 -0.2226  0.0981  0.0907
24639W        W40448  12.782   7.863  13.830 -0.0517 -0.0591  0.2046
24640W        W40449  12.714  17.284   2.489 -0.0432  0.0766 -0.1143
24641W        W40450  11.729  10.027   1.531  0.2526 -0.1048 -0.0131
24642W        W40451  14.800   7.242  13.301  0.4468  0.0602 -0.1466
24643W        W40452   6.758  13.000   2.111 -0.0671 -0.0561 -0.0469
24644W        W40453   3.101  16.557   1.053  0.0498 -0.0710  0.0699
24645W        W40454   8.659  18.303  12.218  0.0049  0.3509 -0.1628
24646W        W40455   9.896   5.181   5.257  0.0096 -0.0697  0.0918
24647W        W40456   4.895   0.974   3.636 -0.0232  0.0754  0.0706
24648W        W40457   0.374   8.801   2.349 -0.3471  0.3360  0.1714
24649W        W40458  16.922   4.917   1.611 -0.1585  0.2357  0.4689
24650W        W40459   5.314  18.052   1.524 -0.1873  0.2000 -0.0296
24651W        W40460  18.382  19.124  14.307 -0.4830  0.0911  0.0808
24652W        W40461   5.126  16.819  13.838 -0.3206  0.3065  0.1102
24653W        W40462  14.969  12.099   4.538  0.0002 -0.1357  0.1171
24654W        W40463   6.427  15.320   0.282 -0.0148  0.3270  0.0177
24655W        W40464   5.903   3.512  14.050 -0.1777 -0.1740 -0.0704
24656W        W40465  13.724   0.944   3.946  0.0518  0.2565 -0.0113
24657W        W40466   3.756  14.554  14.171 -0.2143 -0.0507  0.1484
24658W        W40467   2.801   5.632   1.844  0.3138 -0.1800  0.1845
24659W        W40468   6.358  11.776  13.531 -0.1908 -0.0820 -0.0124
24660W        W40469  18.815   1.107   5.622 -0.1847  0.4545 -0.3080
24661W        W40470  10.776  11.064   4.325  0.1223  0.0522  0.0652
24662W        W40471  18.172  15.204  10.388  0.0134  0.0273 -0.4116
24663W        W40472   1.973  16.303   4.125 -0.0835  0.1065 -0.1773
24664W        W40473   7.484   1.132   4.354 -0.2584  0.0828  0.0152
24665W        W40474  17.102  18.196   1.405  0.0312  0.2904 -0.3676
24666W        W40475   2.692  10.453   6.347 -0.1190 -0.2656 -0.0854
24667W        W40476  19.087  10.085  10.945  0.2299  0.2117 -0.1398
24668W        W40477   8.801   3.155   0.955  0.0474 -0.2614  0.0193
24669W        W40478  10.653  18.713  12.583 -0.2662 -0.1280  0.1516
24670W        W40479   3.109  13.631   2.311  0.2022  0.2228 -0.4133
24671W        W40480  11.454   2.878   9.361  0.0205  0.2211 -0.1142
24672W        W40481   6.377   9.134  12.075 -0.0389  0.1880 -0.0951
24673W        W40482   2.639   9.341   6.210 -0.4163 -0.3150  0.1710
24674W        W40483  15.621   3.295   3.472  0.1505  0.2091  0.0440
24675W        W40484  14.350   7.301  13.023  0.0268 -0.1773 -0.1789
24676W        W40485  14.760  16.927  10.318  0.2221  0.0920  0.1939
24677W        W40486   1.944   0.396   0.413  0.3636 -0.4732 -0.2050
24678W        W40487  12.087  10.827  12.794 -0.1111 -0.0496 -0.1562
24679W        W40488   7.529   9.985   4.987  0.0380  0.0213 -0.0082
24680W        W40489  18.057  14.850   2.438  0.1003  0.5364  0.2866
24681W        W40490   2.560  12.229   0.623  0.3370 -0.1559 -0.0880
24682W        W40491   1.055   9.031  12.190 -0.0758  0.1322 -0.2282
24683W        W40492  15.441   4.796  14.957  0.2319 -0.1598 -0.1229
24684W        W40493   0.274   2.814   2.030 -0.0810 -0.2008  0.0614
24685W        W40494  19.110  15.775  11.237  0.2161 -0.1444  0.2092
24686W        W40495  17.107  13.687   1.858 -0.3338 -0.2949  0.1625
24687W        W40496   6.504  18.667  12.222  0.1483 -0.0960 -0.3022
24688W        W40497   6.907   0.274  10.809  0.1250  0.2599 -0.0329
24689W        W40498  15.977  16.179  12.812  0.5221  0.3893 -0.3564
24690W        W40499  16.359   2.457  10.674 -0.1478 -0.1656 -0.1541
24691W        W40500   9.599  18.374  11.933 -0.4145  0.2320 -0.3799
24692W        W40501  12.533   7.331   0.388  0.0177 -0.1378  0.1485
24693W        W40502   8.556   7.978  11.230 -0.2238  0.3284 -0.2274
24694W        W40503  15.117  14.486   3.853  0.3632  0.1287 -0.3201
24695W        W40504   0.104  10.874   0.240 -0.0274  0.0824 -0.1320
24696W        W40505   4.084   9.075  13.605  0.1981 -0.1769 -0.0651
24697W        W40506   4.803   5.710  12.410  0.2379 -0.1405  0.1149
24698W        W40507  10.873   2.314   2.149 -0.1025  0.0490  0.0946
24699W        W40508   1.715   1.349   2.476  0.0435 -0.1435  0.0213
24700W        W40509  11.716  17.363  11.938  0.0051 -0.0889  0.0037
24701W        W40510   9.114   2.473  10.326  0.4283 -0.0193 -0.2762
24702W        W40511  16.550   1.881   5.075 -0.1640 -0.1509  0.1836
24703W        W40512  16.080   3.375  12.669  0.0650 -0.0929  0.1053
24704W        W40513   8.087  16.764  11.597  0.1014 -0.2241  0.2668
24705W        W40514   2.435  10.300  13.127 -0.2306 -0.3002 -0.1059
24706W        W40515   1.123   3.799   4.489  0.1783  0.2736  0.1032
24707W        W40516  13.821  13.007   0.214 -0.1400  0.1596  0.1361
24708W        W40517  17.733  14.814  13.080  0.2757  0.0574  0.0092
24709W        W40518  15.829   9.995   2.963 -0.1591 -0.2412  0.0037
24710W        W40519  15.548   7.918  13.774 -0.0447  0.0386  0.2659
24711W        W40520   6.826  13.024   3.567 -0.0931  0.2111  0.4500
24712W        W40521   7.662   1.670  10.914  0.2102 -0.0467  0.1808
24713W        W40522  19.010  10.571   3.641 -0.1926 -0.1091 -0.1923
24714W        W40523   1.623   5.843  14.971  0.1135 -0.2276  0.3594
24715W        W40524   4.134   3.190   3.594 -0.0628  0.0653  0.2647
24716W        W40525  11.245   6.058  13.711 -0.3271  0.0190 -0.1301
24717W        W40526  14.141  18.166   5.985 -0.2699 -0.0023  0.1349
24718W        W40527   3.786   6.351   2.267  0.0329 -0.0097  0.1785
24719W        W40528   4.194  16.688   1.606  0.1667  0.3004  0.0661
24720W        W40529   6.541   3.494  12.579 -0.1479 -0.0362  0.0494
24721W        W40530   4.549  15.374  12.422 -0.0004  0.4167  0.2722
24722W        W40531  16.839  12.737   3.754  0.0576 -0.2140  0.0859
24723W        W40532  17.787  18.649   4.090 -0.0680 -0.0811 -0.1371
24724W        W40533   2.411  15.125   2.977  0.1120 -0.0347 -0.1808
24725W        W40534   1.040  18.111   1.767 -0.2421 -0.1915 -0.2407
24726W        W40535  12.490   0.630  13.679 -0.2859  0.0047 -0.1631
24727W        W40536   0.058  18.029   2.789 -0.1634  0.1648  0.0524
24728W        W40537   4.943  14.018  12.511 -0.0629 -0.1915  0.1739
24729W        W40538  13.715   5.067  13.178 -0.1068 -0.0547 -0.1212
24730W        W40539   4.750   2.854   3.484  0.0597  0.1423  0.0261
24731W        W40540  16.736  11.065   0.784 -0.0042  0.0878  0.0191
24732W        W40541  10.273  13.243  14.283  0.0089 -0.2242 -0.0035
24733W        W40542  16.309  10.512  14.553  0.0353 -0.0899  0.0398
24734W        W40543   4.888   7.104   0.360  0.0987 -0.1221 -0.1494
24735W        W40544  17.444  11.435  13.385  0.1763  0.0856 -0.1126
24736W        W40545   2.136   9.083   9.843 -0.1720  0.4469 -0.3056
24737W        W40546   2.161  16.807   0.583 -0.2608 -0.1216 -0.1287
24738W        W40547   5.105   3.211  14.811 -0.0519  0.1044 -0.2715
24739W        W40548   8.410  13.135  14.030 -0.2015  0.2022  0.1680
24740W        W40549  17.577   8.451  13.704  0.2031 -0.2921 -0.2458
24741W        W40550  11.626  10.356   9.499  0.2302 -0.0314  0.0075
24742W        W40551   6.776  17.699   0.779 -0.0688 -0.0884 -0.2706
24743W        W40552   4.406   2.752  14.674  0.1044  0.0748 -0.2515
24744W        W40553   4.982   3.653  14.436  0.0156 -0.0444  0.1530
24745W        W40554  11.917  12.616  14.172  0.1263 -0.0393  0.2796
24746W        W40555  18.209   7.412  12.410 -0.0455  0.2824  0.0061
24747W        W40556  15.922  10.924   1.392 -0.1043 -0.2912 -0.0795
24748W        W40557   1.012   2.044  14.621  0.2528 -0.0957  0.2184
24749W        W40558   9.249   7.671  14.974 -0.1516  0.4001  0.4102
24750W        W40559   8.016   8.845   2.376  0.2435 -0.3499  0.2872
24751W        W40560   7.696  18.527  11.800 -0.2457  0.0911 -0.0910
24752W        W40561  13.868  17.269   1.185 -0.0632  0.1387  0.0524
24753W        W40562  10.478   1.691   0.939 -0.1353 -0.0246  0.0750
24754W        W40563   4.614   1.140   2.876  0.4665 -0.0930  0.0005
24755W        W40564   8.142  15.706  14.940  0.4612 -0.1680 -0.2149
24756W        W40565   0.777  17.601   4.439 -0.1264 -0.2889 -0.0634
24757W        W40566   8.378   5.911   9.882  0.0959 -0.2120 -0.1580
24758W        W40567  18.064  15.151  11.145  0.6677  0.2913  0.2493
24759W        W40568  11.805   7.032   4.753 -0.3151  0.0534 -0.2164
24760W        W40569  17.774  13.602  12.561  0.1617  0.0655 -0.2656
24761W        W40570   6.814   1.260  11.396 -0.0679  0.1961 -0.0112
24762W        W40571   6.445   4.148   2.651 -0.1985  0.2308  0.1385
24763W        W40572   9.476   1.864   5.292  0.4632 -0.0041  0.0602
24764W        W40573  14.354  17.906  14.706  0.4609  0.2940  0.0694
24765W        W40574   6.277   4.918   1.942 -0.3203  0.1433  0.0621
24766W        W40575  10.657   8.798   3.106 -0.1265 -0.2424 -0.2068
24767W        W40576  17.514   1.641   1.169  0.0116 -0.2581 -0.0956
24768W        W40577   7.021   7.900   2.736 -0.1161  0.0341  0.1415
24769W        W40578  10.800  11.361   1.335  0.0152 -0.2691  0.1885
24770W        W40579   1.801  12.158   4.977 -0.0060 -0.2780  0.1083
24771W        W40580  13.160   8.457   3.662 -0.0778 -0.1204  0.1878
24772W        W40581   7.441   5.742   2.692 -0.6415  0.0513  0.0031
24773W        W40582   6.903   7.666   4.525 -0.2043  0.2343  0.2740
24774W        W40583   4.007   6.324  10.523 -0.3086 -0.0181 -0.2182
24775W        W40584  19.041  14.577   2.215 -0.4162 -0.1258 -0.2184
24776W        W40585  13.315   5.117   4.609  0.2889 -0.0967  0.2636
24777W        W40586   4.065  17.972  11.975  0.1601  0.1718 -0.0972
24778W        W40587   1.041   0.786  15.011 -0.0673  0.1989  0.1578
24779W        W40588  16.639  15.065  13.989  0.0883  0.1956 -0.2184
24780W        W40589  13.287   2.818  14.599  0.0825 -0.0262  0.1214
24781W        W40590  14.016   4.237   1.879  0.0537  0.3084 -0.1682
24782W        W40591   6.706  11.925   0.152  0.0444 -0.5337 -0.2000
24783W        W40592  18.749  16.338  13.024  0.0496 -0.1782  0.0202
24784W        W40593   1.493   3.719  13.618 -0.0186  0.0488 -0.0128
24785W        W40594  11.635   8.205   2.708 -0.1310  0.0255  0.0812
24786W        W40595   0.588  10.977  11.481 -0.1139 -0.0374  0.2235
24787W        W40596   7.781   4.432   0.552  0.1231  0.0753 -0.1757
24788W        W40597  15.416  15.360  10.488 -0.2366 -0.2122 -0.1364
24789W        W40598  10.708   1.573   2.112  0.2757 -0.2129  0.0509
24790W        W40599  14.068  15.007  11.816 -0.1418 -0.1355  0.2625
24791W        W40600  16.870  16.307  14.402 -0.0244  0.3224 -0.0348
24792W        W40601  10.194   1.410  13.536  0.0150 -0.0169 -0.1021
24793W        W40602  17.909  16.933  14.766 -0.1162 -0.4983  0.1532
24794W        W40603   2.479  13.254  12.117 -0.0492  0.2638 -0.0156
24795W        W40604   3.755   8.034  14.866  0.1069 -0.1871  0.3733
24796W        W40605  18.607  18.056   4.024 -0.0573 -0.0955 -0.2798
24797W        W40606  13.624  13.926  12.375  0.0651 -0.2480 -0.3504
24798W        W40607   3.258   1.626  13.758 -0.0646 -0.1967  0.0916
24799W        W40608   5.568  11.859  15.215 -0.2021  0.2385  0.0295
24800W        W40609   4.976  15.787   4.669 -0.1649  0.2223 -0.0452
24801W        W40610   1.452  14.725   3.510 -0.1252  0.4515 -0.0868
24802W        W40611   0.019  13.726   2.075  0.0334 -0.1364  0.2551
24803W        W40612  14.895   5.401   4.622 -0.1228  0.0204  0.2701
24804W        W40613   3.014   0.018   1.158 -0.1201 -0.1216 -0.1617
24805W        W40614  13.417  15.228  14.800 -0.1490 -0.0825 -0.2102
24806W        W40615  12.598  18.037   3.765  0.1607  0.0171  0.2956
24807W        W40616  17.713  13.436  15.027  0.1220  0.0731 -0.0334
24808W        W40617  13.144  10.140  13.349  0.0994 -0.5954  0.2004
24809W        W40618   0.948  14.660   3.557 -0.4482  0.0249 -0.0785
24810W        W40619  12.515   0.294   2.273 -0.0335  0.0600 -0.1453
24811W        W40620  12.927   3.714   3.742  0.2692 -0.0958  0.1881
24812W        W40621  16.978   0.783  13.336  0.2132  0.1255  0.0663
24813W        W40622   7.304   3.478  11.269 -0.3007 -0.1933  0.2711
24814W        W40623  12.651   2.406   4.345 -0.0304 -0.2195 -0.2355
24815W        W40624   8.960  10.213  12.189  0.0858 -0.0037  0.2254
24816W        W40625  11.128   0.572  11.919  0.3464  0.0416  0.0537
24817W        W40626   9.255   2.710   3.633 -0.1703  0.2697 -0.1548
24818W        W40627   2.467   5.923   2.117 -0.1387  0.0447  0.0075
24819W        W40628  13.859   9.743   3.519  0.1394  0.0775 -0.2153
24820W        W40629   9.597  11.680  11.400 -0.4227 -0.0698  0.2388
24821W        W40630  11.128   9.650   3.250 -0.1159  0.0024  0.0498
24822W        W40631   9.065   2.837  14.550 -0.0761  0.2091  0.1233
24823W        W40632  12.503   4.752  11.294  0.3769  0.1341 -0.1599
24824W        W40633  11.051   1.244   2.963 -0.1610 -0.1997  0.1265
24825W        W40634   9.485   3.103  13.809  0.1363  0.0709 -0.0104
24826W        W40635   8.360   2.979   3.280  0.2708  0.1377  0.0217
24827W        W40636  18.720   1.321   3.882  0.1213  0.3043  0.4879
24828W        W40637   1.862  11.098  13.085  0.2043 -0.0355 -0.0450
24829W        W40638   4.200   1.349   3.557  0.0160 -0.0798  0.1440
24830W        W40639  18.376   6.169  11.941 -0.1620 -0.3406 -0.0198
24831W        W40640  16.660   0.506  13.013  0.0988 -0.0532 -0.0259
24832W        W40641   5.195  10.070   0.334  0.1381 -0.1379 -0.2500
24833W        W40642   6.276   9.621   4.055  0.3094  0.0572 -0.0180
24834W        W40643  10.765  13.131  14.194  0.0100  0.0690  0.4660
24835W        W40644   5.657   0.947   0.378 -0.2871 -0.1571  0.0478
24836W        W40645  13.989   7.717   4.436 -0.0625 -0.2774 -0.0413
24837W        W40646   1.841  14.903   1.861 -0.1862  0.1810  0.1565
24838W        W40647  11.976  10.623   1.940  0.3503  0.2860 -0.0417
24839W        W40648  17.859  16.919   2.787  0.0609  0.0118 -0.0576
24840W        W40649  18.060   3.336  12.788  0.4339  0.1237 -0.2586
24841W        W40650  14.970   9.174   0.692  0.0893  0.2770  0.0702
24842W        W40651   5.065   5.393   4.161 -0.0596 -0.2602  0.0018
24843W        W40652   6.465  16.150  11.415  0.3833  0.0301  0.3599
24844W        W40653  12.422   9.106   5.907 -0.0963  0.3494  0.1298
24845W        W40654   3.409  13.630   4.303  0.0542  0.0354  0.2113
24846W        W40655  15.720  17.771   4.217 -0.1342  0.2375  0.2038
24847W        W40656   0.074   6.174  13.704 -0.2893 -0.1824 -0.1847
24848W        W40657   4.151   7.062  14.154  0.1724 -0.0058 -0.2777
24849W        W40658  11.489   2.848   2.935 -0.0285  0.2592  0.0327
24850W        W40659   4.099   4.388   4.551  0.2853 -0.0931  0.1381
24851W        W40660  11.553  13.063   3.553  0.1720 -0.0284  0.1784
24852W        W40661  10.394  13.139  12.104  0.1406 -0.0271 -0.3235
24853W        W40662   0.791   8.534   1.679  0.2536 -0.2163 -0.1689
24854W        W40663   5.591  15.359  12.191 -0.1824 -0.2757 -0.1141
24855W        W40664  17.543   1.420  14.354 -0.1013  0.0176  0.0495
24856W        W40665   3.017   3.824   3.303 -0.1379  0.1259  0.1034
24857W        W40666   0.175  14.212   3.403  0.0165  0.2039 -0.2172
24858W        W40667  15.343   0.837   1.570  0.1148 -0.1160  0.0588
24859W        W40668  15.415   1.097  15.062  0.2998 -0.2774  0.0932
24860W        W40669  15.770   6.536  14.230  0.5397 -0.1960  0.0755
24861W        W40670   9.970   2.602  10.220 -0.0905 -0.3918  0.1559
24862W        W40671  10.504   1.832  14.497 -0.0144  0.2062 -0.0016
24863W        W40672  18.654   1.302  12.386  0.3191 -0.0803  0.0517
24864W        W40673  18.742   7.438   0.220 -0.2421  0.1764  0.1250
24865W        W40674  13.916   4.879   0.211 -0.0078 -0.2070  0.0214
24866W        W40675   7.746  16.741   4.661 -0.2551 -0.2046 -0.0857
24867W        W40676   2.318   4.601   4.252 -0.0067  0.3667 -0.0514
24868W        W40677  12.634  10.212   2.681 -0.1394  0.0494  0.0527
24869W        W40678   8.541  12.584  10.085 -0.3244  0.0489  0.0738
24870W        W40679  10.169   3.645   5.249 -0.0814 -0.4461 -0.0885
24871W        W40680   2.990   8.410   0.447 -0.3246 -0.2209  0.1398
24872W        W40681   4.148   6.168   4.186  0.1479 -0.0579  0.2481
24873W        W40682  18.276   7.502   1.317  0.1183 -0.2037 -0.2801
24874W        W40683  11.729   9.452   5.618 -0.0663 -0.0811 -0.3194
24875W        W40684   6.039   9.560   2.434 -0.1169 -0.1495 -0.0688
24876W        W40685   0.472   6.242  12.320  0.1655  0.1710 -0.1102
24877W        W40686  16.302  10.169   9.737  0.0064  0.0791  0.1687
24878W        W40687  17.697  18.306  12.721 -0.0609  0.0617 -0.0300
24879W        W40688  12.793  15.622   4.740  0.1933  0.0359  0.0661
24880W        W40689   2.177   9.477  12.372  0.1921 -0.0857  0.1238
24881W        W40690  18.867   3.963  13.065  0.6664  0.0013  0.0065
24882W        W40691   3.676   1.117   1.333  0.0695  0.3397 -0.0470
24883W        W40692   7.262  17.420  11.657 -0.3220  0.0832 -0.1186
24884W        W40693   7.866  13.368   1.664 -0.0811  0.2451  0.0195
24885W        W40694   3.649   3.117  10.505  0.0079  0.0254 -0.0675
24886W        W40695   3.758   7.972  13.019 -0.1538 -0.0127  0.1982
24887W        W40696  16.931  17.382   3.309 -0.0443  0.0185 -0.1673
24888W        W40697   3.959   4.715   1.024  0.0768 -0.3065 -0.0070
24889W        W40698  17.043  16.626   2.539 -0.3744 -0.2310  0.1291
24890W        W40699  16.905   5.358  10.578 -0.3428 -0.0593  0.3121
24891W        W40700  16.280  15.844   3.743  0.1485  0.2582 -0.0220
24892W        W40701   6.680   1.601   1.416  0.1402 -0.1034  0.3791
24893W        W40702  15.040  14.761  14.169  0.2443  0.2062 -0.0317
24894W        W40703   2.558   8.290  14.060 -0.2466  0.0404  0.1486
24895W        W40704  17.059  15.890   2.871  0.0802 -0.0283  0.0138
24896W        W40705   5.429  13.204   1.842 -0.0347  0.0452  0.0542
24897W        W40706  12.038   5.908   2.918  0.3820 -0.1195 -0.0638
24898W        W40707  18.555   3.162  12.906  0.2983 -0.2332 -0.1670
24899W        W40708   1.649   9.991   2.971 -0.1005  0.0755  0.3192
24900W        W40709   4.689   9.913  13.140  0.2401 -0.1500 -0.4949
24901W        W40710   5.224   0.966  11.502 -0.0684  0.0899 -0.2835
24902W        W40711   0.721   7.186  13.335  0.2905  0.2287 -0.1855
24903W        W40712   8.036  12.089   3.146 -0.1920 -0.1440 -0.0250
24904W        W40713  19.124  18.792  11.491 -0.0429  0.4217  0.3260
24905W        W40714   8.973  10.388  11.666  0.1725  0.2212 -0.1108
24906W        W40715  16.470  11.080   4.774  0.1211 -0.3792  0.0509
24907W        W40716  15.954  16.004   1.695 -0.1495 -0.3007  0.1924
24908W        W40717  16.271  17.809   9.711  0.1167  0.1768 -0.3646
24909W        W40718  13.836  11.112   3.040 -0.1066  0.2699  0.3318
24910W        W40719  13.746  18.720  12.673 -0.3027  0.0852  0.4726
24911W        W40720  17.913   0.351  11.347 -0.1534  0.3484 -0.1110
24912W        W40721  13.068  10.785   3.256 -0.1216 -0.2229 -0.0278
24913W        W40722   0.795  11.924  14.677 -0.0361 -0.0546 -0.1189
24914W        W40723   8.292   4.460   5.278  0.3372  0.0717  0.1921
24915W        W40724   3.249   6.499   2.135 -0.1530  0.3842  0.1219
24916W        W40725   1.452  16.975   9.830  0.1864  0.0881 -0.1013
24917W        W40726  11.340  16.240   0.173  0.0208 -0.4458 -0.0585
24918W        W40727   0.172  10.888  14.399 -0.2885  0.0050  0.1170
24919W        W40728   6.960   4.825   0.876 -0.0039  0.3757  0.2693
24920W        W40729   1.738   8.649   4.433 -0.0204 -0.0182  0.0048
24921W        W40730   6.518  16.717   1.373 -0.0288 -0.2372 -0.1227
24922W        W40731   4.093  14.585   1.281 -0.0085 -0.0234  0.1035
24923W        W40732  18.731  12.086  13.542 -0.0615  0.1801 -0.1812
24924W        W40733   4.957   0.440   3.918 -0.2585 -0.1366 -0.0123
24925W        W40734   5.057  12.640   5.654  0.5124 -0.0195  0.1188
24926W        W40735   0.350  13.996  11.563  0.0197  0.2787 -0.1659
24927W        W40736   5.952  13.245  12.396  0.0618 -0.2839  0.1045
24928W        W40737   5.876   4.877   5.161 -0.0225  0.1192 -0.2238
24929W        W40738  13.509   8.269   0.357 -0.0713 -0.1951  0.2625
24930W        W40739   8.860   1.144  10.765  0.3415  0.1263 -0.1667
24931W        W40740  12.586  13.838  12.161 -0.1307 -0.0342  0.4896
24932W        W40741  13.390  18.910  11.560 -0.1065 -0.2487 -0.2692
24933W        W40742   5.897   6.184  13.266 -0.4703 -0.0247  0.1868
24934W        W40743   2.893  11.603   2.725  0.2405 -0.0940  0.1198
24935W        W40744  11.815   0.192   5.193  0.0497  0.0451  0.1775
24936W        W40745  12.774  17.050   0.739 -0.1513  0.4402 -0.1288
24937W        W40746  13.783   8.189   4.410  0.2635 -0.2443  0.2324
24938W        W40747  15.563  10.653   3.407 -0.0354 -0.1200  0.3799
24939W        W40748  10.265  14.582  13.218 -0.1183  0.2274 -0.2416
24940W        W40749  18.356  12.044  11.253  0.1401 -0.0223 -0.0799
24941W        W40750  12.468  13.898   0.715 -0.1192 -0.1827 -0.0579
24942W        W40751   5.638  11.284  10.587  0.2055  0.2496  0.1210
24943W        W40752   4.120   2.528   2.719 -0.0831  0.0651  0.0641
24944W        W40753   7.837   5.336  14.002 -0.1005 -0.2088  0.1004
24945W        W40754   3.694   7.578   2.385  0.1610 -0.1122  0.1164
24946W        W40755  11.178  12.237  14.604  0.2141 -0.2953  0.1533
24947W        W40756  10.976  16.215   3.081 -0.1463 -0.1359 -0.3439
24948W        W40757   7.979  12.286   3.694  0.0173  0.2309 -0.1078
24949W        W40758   4.278  14.673   0.333 -0.5353  0.2318  0.1604
24950W        W40759  10.474  13.623  10.811  0.0984 -0.2188  0.0238
24951W        W40760  12.626   9.249  13.198 -0.1127  0.0842 -0.1363
24952W        W40761  18.837  18.184  14.279  0.0399  0.1538  0.0266
24953W        W40762   1.447   7.632  10.202 -0.2042 -0.0821  0.2131
24954W        W40763   6.208  11.460   3.796 -0.0261 -0.3434  0.4005
24955W        W40764   7.857   0.903  12.685  0.2927 -0.3375 -0.4285
24956W        W40765  13.259  14.659  14.925 -0.2149  0.0918 -0.2044
24957W        W40766  13.230   6.195   0.998  0.5607  0.1878 -0.1809
24958W        W40767   3.415   4.878   1.700 -0.0820  0.2057  0.2107
24959W        W40768   7.649   2.733  14.217 -0.1068  0.0773 -0.2487
24960W        W40769   7.254  14.385   0.839 -0.0113  0.0391 -0.0043
24961W        W40770   0.334   3.131   1.630  0.0704  0.1726  0.0311
24962W        W40771   3.735  10.731   3.052 -0.3653  0.2092 -0.2224
24963W        W40772   6.464  18.451   2.187  0.1507 -0.3256  0.3416
24964W        W40773  15.659   8.005   5.378 -0.0117  0.1483  0.0652
24965W        W40774   8.183  17.977   9.713  0.1409 -0.0274 -0.2499
24966W        W40775   1.670  17.095  12.061  0.3413  0.1131  0.0578
24967W        W40776  13.983   7.709  12.927  0.1179 -0.1022  0.0356
24968W        W40777  13.530   4.442   4.115 -0.1467 -0.0527 -0.1460
24969W        W40778   8.706  13.174   2.075 -0.0709  0.0046  0.0672
24970W        W40779  14.665   8.455  13.681 -0.0097 -0.7289 -0.1725
24971W        W40780  10.262   0.744  11.029 -0.0141 -0.2606  0.0145
24972W        W40781   5.299  15.361   2.790 -0.0670  0.1263 -0.1686
24973W        W40782   2.517   6.461   2.817 -0.1553 -0.1563 -0.0228
24974W        W40783  10.043  15.139  14.992 -0.3029 -0.4578 -0.0068
24975W        W40784   5.615   8.329   4.676 -0.0915  0.1746  0.0588
24976W        W40785   0.844   2.184  11.971 -0.1031 -0.1679 -0.2219
24977W        W40786  12.296  13.047   4.255  0.0033 -0.1768 -0.0566
24978W        W40787   6.059  11.449   4.717  0.0224 -0.1617 -0.0414
24979W        W40788   4.572   3.983   0.124 -0.2804  0.0994  0.3698
24980W        W40789  18.588   0.690   0.619 -0.0261  0.0534 -0.0149
24981W        W40790  18.020  18.628   0.166 -0.3267 -0.1845 -0.1398
24982W        W40791   9.356  12.434  11.079 -0.2516 -0.0557 -0.3513
24983W        W40792   6.175  18.991  13.400  0.2325 -0.2022 -0.2162
24984W        W40793   6.080  11.604  13.928 -0.0644 -0.0988 -0.0184
24985W        W40794  11.068  18.229  10.489  0.3949  0.0954  0.0712
24986W        W40795   4.778  17.370  14.838 -0.0233  0.3258 -0.1746
24987W        W40796   1.162  16.944  14.906 -0.0088  0.1664  0.1691
24988W        W40797  10.362   9.776   4.436  0.3094  0.2595 -0.1974
24989W        W40798  16.958   7.519  11.866 -0.0365  0.0545  0.0243
24990W        W40799   2.627   1.930   3.847 -0.2162  0.1626  0.2543
24991W        W40800  15.719   8.693   2.111 -0.1342  0.1482 -0.0582
24992W        W40801   5.618   9.236  14.087  0.1266 -0.0764 -0.2606
24993W        W40802  16.365   5.575   3.762 -0.3057  0.4253  0.2664
24994W        W40803  11.266   9.453   4.029  0.6599 -0.1563 -0.4634
24995W        W40804   8.002   9.992   0.412  0.2611  0.1774 -0.2522
24996W        W40805  13.189  18.090  13.092 -0.1623 -0.1016 -0.1338
24997W        W40806   1.545   1.091  12.076  0.0196  0.1920 -0.0151
24998W        W40807  17.960  14.811  10.785 -0.1760  0.0123  0.2274
24999W        W40808   8.544   0.210  10.284 -0.2361 -0.1461 -0.1982
25000W        W40809  11.537   9.122   3.272  0.1026 -0.1002  0.0018
25001W        W40810   3.924   8.170   0.056  0.2718 -0.1474 -0.0637
25002W        W40811   5.579   7.976  13.906  0.4856  0.2819  0.1221
25003W        W40812  13.727  16.948  12.444 -0.1105 -0.1738  0.4200
25004W        W40813   7.542   4.485   1.592  0.1299  0.1663  0.1776
25005W        W40814  12.375   2.267  13.169  0.1292 -0.0365 -0.4430
25006W        W40815  14.223  14.337  14.360 -0.1797  0.1856 -0.2117
25007W        W40816  14.005   5.469  13.276 -0.0810 -0.1614  0.1050
25008W        W40817  14.714   6.534   3.768 -0.2963  0.1400  0.2781
25009W        W40818   1.226   4.396  10.948 -0.2134  0.0870  0.1444
25010W        W40819  15.527  15.449  12.142  0.0560 -0.0455  0.1622
25011W        W40820  16.738   3.704  14.896  0.0686  0.3446  0.0971
25012W        W40821  11.101   8.490   1.002 -0.4042 -0.0595  0.2168
25013W        W40822   2.597   0.965   4.811 -0.1700 -0.2058  0.2657
25014W        W40823   2.838   6.534  13.610 -0.0160 -0.1573 -0.3036
25015W        W40824  17.588   6.852  12.318 -0.0171  0.1675  0.1528
25016W        W40825   6.893   8.498  13.181  0.3632 -0.0086 -0.2763
25017W        W40826  16.430   3.481   1.355 -0.0826  0.1033 -0.3445
25018W        W40827   3.933   3.068  11.227  0.2531  0.0824 -0.1677
25019W        W40828  17.141  16.520  14.001 -0.0216  0.2550 -0.3781
25020W        W40829  10.577   5.747   2.932  0.4104  0.0315 -0.6328
25021W        W40830   1.452  15.318   0.246 -0.3850  0.0754 -0.4010
25022W        W40831   6.073  15.405   1.146  0.2833 -0.0028  0.0076
25023W        W40832   9.775   4.490   2.632  0.1650  0.1081 -0.1046
25024W        W40833  17.608   2.706   3.943 -0.0538 -0.0902 -0.1320
25025W        W40834  16.863  11.843  13.019 -0.3200 -0.0692  0.0667
25026W        W40835   7.542  13.075   4.100  0.2383  0.0572  0.1473
25027W        W40836  11.591  10.175  10.914 -0.0964  0.1106  0.0595
25028W        W40837   5.383  17.678  10.729  0.2286  0.0138  0.0242
25029W        W40838   4.989   2.792   4.445 -0.0061 -0.1876  0.1184
25030W        W40839   1.887   7.557   3.957  0.0448 -0.5619  0.4014
25031W        W40840   2.709   2.856   0.526 -0.1180  0.1050  0.2502
25032W        W40841  17.812  14.065   3.769 -0.0515 -0.1538  0.0223
25033W        W40842   5.467  10.950   0.394 -0.0749 -0.0875  0.1396
25034W        W40843   9.293  15.720  13.455 -0.2971  0.1166 -0.1967
25035W        W40844   9.604   3.899  12.155 -0.0895  0.1146 -0.0964
25036W        W40845  16.653   2.379   0.380 -0.0706  0.0116 -0.3181
25037W        W40846  16.210   8.929  12.029 -0.3894  0.1271 -0.0554
25038W        W40847   6.929   4.293   3.160 -0.2301  0.4468  0.1435
25039W        W40848   4.000  11.761   2.031  0.2159 -0.2670 -0.1054
25040W        W40849   9.211   5.708   1.352  0.2548  0.2157  0.2393
25041W        W40850   9.426   9.102   3.407  0.0593 -0.2627  0.0058
25042W        W40851  11.769   1.296   3.695  0.0728 -0.1141 -0.1805
25043W        W40852   6.087   2.053  11.675  0.0906  0.0492  0.0931
25044W        W40853   8.536   8.992   4.018  0.2640 -0.4703 -0.3324
25045W        W40854   9.630  15.620   0.747  0.0192 -0.3010 -0.2443
25046W        W40855   7.106  18.442   0.584  0.0550 -0.1079  0.4277
25047W        W40856   7.027   2.111  13.792  0.0737 -0.1126 -0.1310
25048W        W40857  15.873   7.194   3.430 -0.0413  0.1404 -0.2710
25049W        W40858   2.215  15.853   2.626  0.1201  0.2019 -0.0817
25050W        W40859   2.375   0.707   1.631  0.0954 -0.2244 -0.1814
25051W        W40860  12.714  10.734   2.452  0.2426  0.4203 -0.3435
25052W        W40861  15.750   3.615  12.955  0.2568  0.0036  0.2528
25053W        W40862   8.072  16.048  10.685 -0.1676  0.1343 -0.0949
25054W        W40863  16.844  12.586  12.212 -0.1272 -0.1665 -0.0572
25055W        W40864  18.202  10.568  11.088  0.1144  0.2492 -0.1181
25056W        W40865   5.079  17.512   0.738 -0.0232  0.2795  0.3075
25057W        W40866   8.796   1.435  13.894 -0.3641 -0.1200 -0.0835
25058W        W40867  12.372   2.563   2.784 -0.3382 -0.2627 -0.1589
25059W        W40868  18.112   5.440   9.996 -0.1607 -0.0306  0.0130
25060W        W40869  14.690  13.700   0.688 -0.1366 -0.4599  0.0380
25061W        W40870  14.134   5.764   4.280  0.0689 -0.3275  0.1788
25062W        W40871   2.306  14.722  12.651 -0.0803 -0.0379  0.2326
25063W        W40872   7.879   4.125  11.656 -0.1259 -0.1238 -0.1407
25064W        W40873   3.243   0.858  14.808  0.0319  0.0703 -0.1390
25065W        W40874   9.355  17.750  11.647  0.2917 -0.1634 -0.1471
25066W        W40875  15.353  15.271  13.321  0.0934  0.0055  0.1615
25067W        W40876   4.314  11.033  10.883  0.1239  0.2176  0.0354
25068W        W40877   1.275  18.811  10.878 -0.0532  0.0670 -0.3131
25069W        W40878  11.913  15.378  11.655 -0.0138 -0.1449 -0.0114
25070W        W40879  11.559  10.785   4.602 -0.0107  0.1587  0.0046
25071W        W40880  17.827  16.783  14.027  0.1239  0.1192  0.1559
25072W        W40881   2.212  16.598   3.798  0.0371  0.0506 -0.0119
25073W        W40882   4.191   5.913   1.294 -0.2425 -0.1020  0.0600
25074W        W40883  10.657   7.597   2.600  0.1297  0.0463  0.4183
25075W        W40884   1.563   4.254  14.305 -0.1894 -0.0509 -0.4482
25076W        W40885   2.074   9.410  13.345  0.1240 -0.2516 -0.1071
25077W        W40886  15.907   1.759  11.168  0.0809 -0.2046 -0.1071
25078W        W40887  12.886  14.005  10.893  0.0394  0.2156  0.2243
25079W        W40888  11.457  10.624  11.133 -0.1347  0.1232  0.0224
25080W        W40889   4.222   9.440  11.751 -0.0844 -0.4053 -0.1645
25081W        W40890  15.171  13.040  12.480  0.2901 -0.0870  0.0180
25082W        W40891  12.220  15.054  12.452  0.2686 -0.0275 -0.2782
25083W        W40892   7.513   3.065  13.504  0.1724  0.2425  0.0525
25084W        W40893   4.294  17.822  13.890 -0.1539 -0.1481 -0.1107
25085W        W40894   3.643   8.473  12.751 -0.2321 -0.1010  0.0424
25086W        W40895   6.350   0.599   9.740 -0.2832  0.3430  0.1254
25087W        W40896  10.423   2.143  13.654 -0.0201  0.2266 -0.0614
25088W        W40897   0.758   9.709   4.492  0.0806 -0.0911 -0.1261
25089W        W40898   7.634   7.605   5.161 -0.0925 -0.2356 -0.1819
25090W        W40899   9.558   3.070   3.901 -0.1093 -0.3070 -0.1268
25091W        W40900   0.378   9.276  13.140 -0.1640 -0.2997 -0.3988
25092W        W40901   8.506  18.650   0.370  0.0514 -0.0214  0.2440
25093W        W40902   4.450  14.742  12.304  0.0686 -0.1129 -0.1524
25094W        W40903  13.690   6.853   5.280 -0.2484  0.1715 -0.2035
25095W        W40904  15.863   9.307  15.071  0.2772 -0.2602  0.3437
25096W        W40905   9.219  14.071  10.750  0.2204  0.1342 -0.1635
25097W        W40906   4.985   3.518  10.889  0.4664 -0.1326  0.0664
25098W        W40907  12.928   1.174   3.509 -0.2849 -0.2703 -0.2173
25099W        W40908  13.316   8.901  14.278  0.0529 -0.1507 -0.0896
25100W        W40909  15.100   9.455   2.226 -0.1763 -0.0058  0.1880
25101W        W40910   1.916  14.087   0.319 -0.2336  0.1702 -0.0911
25102W        W40911  15.530  16.843  13.869  0.3263 -0.2621  0.0553
25103W        W40912   5.503   9.490   1.551 -0.1094 -0.1095 -0.2204
25104W        W40913  10.954   3.925  12.639  0.0949 -0.0826 -0.4477
25105W        W40914   7.544   5.018   2.199 -0.0540 -0.2567 -0.0817
25106W        W40915  16.368   1.111   4.854 -0.1484 -0.2717  0.1039
25107W        W40916   8.077   4.572   0.989 -0.2605 -0.1168  0.0742
25108W        W40917  10.663  17.412   1.104 -0.2063  0.2553  0.4043
25109W        W40918  16.894  17.598  15.226 -0.0335 -0.0909  0.0001
25110W        W40919  10.596   8.445   1.235 -0.0324 -0.0752 -0.0881
25111W        W40920   3.622   2.456  10.702  0.2337  0.0361  0.2094
25112W        W40921   7.663  12.419  10.026  0.2243  0.0597  0.2223
25113W        W40922   3.442   4.344  14.948 -0.2697  0.1821 -0.1123
25114W        W40923   6.918  18.890  12.981  0.2657  0.0251 -0.2188
25115W        W40924   4.728  14.988   3.942  0.0355 -0.1769 -0.0534
25116W        W40925   7.067   0.352  12.383 -0.0404  0.0011 -0.1701
25117W        W40926  11.370  14.781  15.184  0.1986 -0.0587  0.1858
25118W        W40927  18.955   4.589  14.875  0.0555 -0.1265  0.0022
25119W        W40928  15.572   2.383   5.150  0.0770  0.1337 -0.1344
25120W        W40929  16.680  11.132   4.323 -0.2168  0.2299 -0.3834
25121W        W40930   8.492   7.475  10.611  0.0539 -0.0891 -0.0149
25122W        W40931   4.285   7.304   2.237 -0.3368 -0.2701 -0.1300
25123W        W40932   9.167  11.926   0.280 -0.2760 -0.0975  0.1717
25124W        W40933   2.828  11.342  13.347  0.1372 -0.1854 -0.1827
25125W        W40934  13.652   9.591   4.063  0.2736 -0.1627 -0.0853
25126W        W40935   6.366  14.108   3.538 -0.2094 -0.0683 -0.1241
25127W        W40936   1.576   5.224  12.918 -0.0035 -0.2672  0.0735
25128W        W40937  16.022  13.172  10.682  0.3459 -0.0342  0.1868
25129W        W40938  14.601  10.503   2.766  0.2219 -0.1500  0.0768
25130W        W40939   2.215   0.284   1.683 -0.3117  0.0723  0.0114
25131W        W40940  17.597   5.893   4.146 -0.0310  0.1920 -0.0892
25132W        W40941   0.839  17.339  15.005 -0.0501 -0.0001  0.0710
25133W        W40942   0.249   1.990  10.705  0.2439 -0.2830  0.1774
25134W        W40943   3.866   5.901  13.557  0.0268  0.0064  0.0473
25135W        W40944  12.773   5.925  12.209 -0.0027  0.0049 -0.2191
25136W        W40945   0.513  18.712   1.052 -0.0502  0.0721 -0.0861
25137W        W40946   0.242   5.802   9.507 -0.0916 -0.2845  0.0950
25138W        W40947  16.034   9.704   1.630  0.0787 -0.2113 -0.3244
25139W        W40948   5.409   3.120   4.195 -0.1147  0.1845 -0.0938
25140W        W40949  18.124  17.933  11.586 -0.3359  0.5547 -0.1510
25141W        W40950   5.827  11.637  13.414  0.3790  0.0301  0.1426
25142W        W40951   1.439   4.649   2.374 -0.1511  0.0279 -0.1015
25143W        W40952  10.041   8.869  11.280  0.0968  0.0757 -0.0543
25144W        W40953   7.661  13.057   1.995 -0.1294  0.0358  0.0576
25145W        W40954   5.385   6.349   2.843 -0.1315 -0.0876  0.0204
25146W        W40955  13.639  16.216  10.198 -0.0179 -0.0502 -0.1722
25147W        W40956   8.791  18.059  14.507 -0.2807 -0.1267 -0.2109
25148W        W40957  10.651   5.240  13.190 -0.2277 -0.2795 -0.0402
25149W        W40958   3.333   8.191   5.329 -0.0604 -0.0734 -0.0611
25150W        W40959   7.161   1.575  12.636 -0.3577  0.0497 -0.1310
25151W        W40960  18.327   6.508   4.094  0.0040 -0.1745 -0.0679
25152W        W40961   1.562   0.776  12.480  0.0233 -0.2122 -0.0769
25153W        W40962   2.079  11.931  13.608 -0.1328  0.0934  0.0598
25154W        W40963  16.563   8.518   5.397  0.0708  0.2003  0.0271
25155W        W40964   8.675  15.577   4.178  0.6547 -0.2085 -0.1957
25156W        W40965  14.980   5.559  12.162  0.0380  0.2028 -0.1786
25157W        W40966   5.371   6.894  11.693  0.3214  0.0733 -0.2037
25158W        W40967   3.115  17.663   1.550  0.0524  0.0250  0.2408
25159W        W40968  18.966  18.968   5.056  0.1012  0.1481  0.0619
25160W        W40969  13.158  18.664  12.056 -0.2334  0.0172  0.1537
25161W        W40970   6.081   3.264  11.793 -0.1436  0.3993 -0.1089
25162W        W40971  17.028   6.632   3.012  0.0556 -0.2293 -0.1362
25163W        W40972   8.334  12.046   3.977 -0.1983 -0.1320  0.2060
25164W        W40973   2.293   3.568  11.378 -0.0444  0.0422 -0.2504
25165W        W40974   2.659   8.657  12.494  0.0385  0.0739 -0.2219
25166W        W40975  10.106  14.085   9.562 -0.3882  0.3141 -0.1339
25167W        W40976  15.946  13.087  14.448  0.1123 -0.1625  0.1504
25168W        W40977  11.260  17.768  14.688  0.1658  0.0616  0.0006
25169W        W40978  15.876   6.194   3.495 -0.0943  0.0504 -0.1503
25170W        W40979  12.334   1.730  11.650  0.0592 -0.0982  0.2115
25171W        W40980   5.345   7.071   1.372  0.0033 -0.0706  0.2012
25172W        W40981   6.934   5.920  10.523 -0.1235 -0.0552 -0.0920
25173W        W40982   4.859   1.736   9.499 -0.1087 -0.1304 -0.0084
25174W        W40983   4.909   0.804   2.686  0.1996  0.0650 -0.0506
25175W        W40984   8.953  14.274  14.445 -0.0608  0.0222 -0.2782
25176W        W40985  17.068  12.247   0.607  0.1041  0.0961 -0.1452
25177W        W40986   0.254  16.660  13.032  0.0796  0.0892  0.1300
25178W        W40987  10.321  17.736   0.982 -0.3347 -0.0643 -0.3289
25179W        W40988   6.860  14.454   3.498 -0.1864  0.1537  0.2308
25180W        W40989   3.221  10.690   0.930  0.2250 -0.0588  0.0336
25181W        W40990  10.944   0.560  13.256 -0.1398 -0.0670 -0.2253
25182W        W40991  13.208   5.432  13.789 -0.0166 -0.2171  0.1774
25183W        W40992  10.139   2.282   1.442 -0.1957  0.2442 -0.0058
25184W        W40993   6.708   4.571   2.764 -0.1260 -0.1272  0.0196
25185W        W40994  13.259  13.482   2.827 -0.0510  0.1256 -0.1614
25186W        W40995  17.773   5.111  12.324 -0.7113  0.2792 -0.0444
25187W        W40996  14.156   9.290   5.267 -0.1454 -0.1673 -0.0464
25188W        W40997  16.733   7.459  13.356  0.2716 -0.0523 -0.0006
25189W        W40998  12.695   6.837   2.563  0.2164 -0.1928 -0.0709
25190W        W40999  17.096  16.120   0.322  0.1717 -0.1005 -0.1495
25191W        W41000  12.911  10.044   0.069  0.2001 -0.0984 -0.1619
25192W        W41001   5.992   1.029   3.425  0.1919  0.0420  0.1528
25193W        W41002   8.340  12.780  10.625 -0.0274  0.0374 -0.0493
25194W        W41003   8.523  10.809   0.523 -0.5044  0.1015 -0.0543
25195W        W41004  10.875  18.597   4.927  0.0169 -0.1778 -0.1906
25196W        W41005  18.430   6.680  14.919 -0.1225  0.2125  0.2302
25197W        W41006   9.610   2.095   2.184 -0.1315  0.0524  0.1132
25198W        W41007   8.955   1.627   1.662 -0.1909 -0.0619  0.1141
25199W        W41008  13.175  18.328  13.525 -0.0079  0.0377 -0.0281
25200W        W41009  11.949   9.187   1.504  0.3146  0.1886  0.0769
25201W        W41010   4.868   5.779  10.598  0.1724 -0.0267 -0.0206
25202W        W41011   0.488  17.449   1.432  0.1524 -0.1120  0.0592
25203W        W41012   8.667  15.263  11.421 -0.2961 -0.0314  0.1669
25204W        W41013   9.569   8.329  15.206  0.1059 -0.0074 -0.0551
25205W        W41014   0.031   9.607   4.936  0.1912 -0.2669 -0.2498
25206W        W41015  16.259   2.949   4.034 -0.3003  0.3229  0.1395
25207W        W41016   5.982   5.242  11.402  0.1460 -0.0529  0.1533
25208W        W41017   4.762   2.135   0.767 -0.1280 -0.0183 -0.0182
25209W        W41018  12.435   4.895   9.839 -0.4513 -0.3457 -0.0336
25210W        W41019  10.171  16.307  10.470 -0.0790  0.2056  0.2764
25211W        W41020   1.061  14.709   0.711  0.0863 -0.1591 -0.0156
25212W        W41021  10.796  13.857   4.973  0.2352  0.0254 -0.0212
25213W        W41022  13.355  10.743   0.732 -0.0683  0.0108 -0.1118
25214W        W41023   1.807   4.087   3.473  0.0183 -0.0266 -0.0316
25215W        W41024   9.733   1.089  12.818  0.3761  0.0701 -0.0014
25216W        W41025  12.108   8.527   5.105  0.0657 -0.2286 -0.1706
25217W        W41026   7.362  16.518  10.482  0.2314  0.0991  0.1611
25218W        W41027  10.513  13.052  11.516 -0.2769 -0.2790  0.1059
25219W        W41028   0.946  14.953   4.642 -0.2058 -0.0421 -0.3405
25220W        W41029  13.114  14.045  11.341 -0.2134 -0.0947 -0.1359
25221W        W41030  11.051   2.717  11.727  0.1682 -0.0594 -0.0349
25222W        W41031  16.263  15.561  11.217  0.0313 -0.2754 -0.0619
25223W        W41032   6.472  15.073  14.462  0.0292  0.2167 -0.0179
25224W        W41033  10.411  17.557   3.135  0.0401  0.2612  0.0250
25225W        W41034   1.114  13.216   4.062 -0.2711  0.1622  0.0685
25226W        W41035   1.367  16.316   4.429 -0.0139  0.1550 -0.2226
25227W        W41036   9.385  16.765   2.283  0.0374 -0.3955 -0.0641
25228W        W41037   5.402   8.915   0.315  0.0079  0.0683  0.1008
25229W        W41038   1.631   3.078   4.140  0.3181  0.2389  0.0098
25230W        W41039  10.999  15.424   2.986 -0.1436 -0.2172  0.1700
25231W        W41040   3.814  15.866  10.660 -0.1717 -0.0227  0.2612
25232W        W41041  17.514   2.032   0.388 -0.2044 -0.3609 -0.5283
25233W        W41042  11.936   9.589   1.243  0.0889 -0.0325 -0.2441
25234W        W41043  13.995  17.950   3.441  0.0353 -0.1929  0.3080
25235W        W41044   3.446  15.599   3.111 -0.1129 -0.3141 -0.0919
25236W        W41045   8.944   1.898  11.210  0.2267 -0.0559  0.4717
25237W        W41046  18.542   3.910  11.350 -0.2127 -0.0130  0.0653
25238W        W41047   6.974   1.443  14.124  0.2718 -0.0234 -0.1524
25239W        W41048   0.034  15.955   4.386 -0.3689  0.1264  0.0657
25240W        W41049   9.314  15.750   2.135 -0.1717  0.3506 -0.0832
25241W        W41050  16.983   9.964  12.225 -0.1333  0.0596  0.2021
25242W        W41051   0.902   4.578   3.086 -0.1072 -0.1287  0.0562
25243W        W41052   0.184   0.472  11.419 -0.0284  0.1433  0.2715
25244W        W41053   7.199  10.335  12.541 -0.1045  0.1562 -0.1055
25245W        W41054  16.569  19.052   5.480 -0.0572 -0.0653 -0.1135
25246W        W41055  15.472  13.833   1.077  0.1816 -0.0645  0.0807
25247W        W41056  19.103  14.008  14.175  0.0913  0.1259  0.1066
25248W        W41057  16.572  18.688  11.934  0.1811 -0.0182  0.1611
25249W        W41058   4.775  12.535  12.128  0.4246  0.1717  0.2837
25250W        W41059  14.806  17.104   4.144 -0.1072  0.2275  0.0136
25251W        W41060  13.805  13.516  13.318  0.0223 -0.0041 -0.0717
25252W        W41061   3.527  14.783  11.144  0.0655 -0.1480  0.2778
25253W        W41062  14.824  17.218  14.327 -0.3903 -0.2103 -0.1674
25254W        W41063  11.701   1.656  14.784 -0.0352  0.2087 -0.2920
25255W        W41064   9.559  13.932   5.322  0.1134  0.1537 -0.0869
25256W        W41065   5.824  16.309   3.749  0.3093  0.3460 -0.1488
25257W        W41066   5.940  17.628   0.798  0.1253  0.0173 -0.1609
25258W        W41067  11.161   8.821  11.252 -0.3097  0.1112 -0.1361
25259W        W41068  10.001   9.372   9.790 -0.0409  0.0792 -0.0673
25260W        W41069   5.081  16.729  10.817  0.0897 -0.1468  0.0871
25261W        W41070  15.786  18.688   0.481  0.3547  0.1648 -0.4452
25262W        W41071   1.333  16.081   3.483  0.2167 -0.0703  0.0084
25263W        W41072   6.560   6.331   2.635 -0.0155 -0.2093 -0.2168
25264W        W41073   9.011  14.354  11.170  0.0708 -0.0395 -0.2053
25265W        W41074  11.856   0.341   5.681 -0.1154 -0.1497 -0.0070
25266W        W41075  12.009   9.483   3.912  0.2565 -0.0489 -0.0982
25267W        W41076  13.790   6.272  14.396  0.0574 -0.1093  0.1191
25268W        W41077   5.551   8.316  11.703  0.0254  0.2729 -0.0481
25269W        W41078   6.756  17.186  10.182  0.3799 -0.2555 -0.0983
25270W        W41079   7.941   4.863  11.002 -0.0555  0.4369  0.2359
25271W        W41080   5.139  11.997  15.058  0.0993 -0.0600  0.0332
25272W        W41081   3.740  19.073  12.096 -0.4550  0.0168 -0.2688
25273W        W41082  18.559  14.149  12.167 -0.2808 -0.3286 -0.1348
25274W        W41083   4.052   5.306  15.199 -0.0922 -0.0569 -0.2090
25275W        W41084  14.603   6.062  14.917 -0.0641 -0.0181 -0.1050
25276W        W41085   4.539  11.616  13.373  0.2792  0.0188  0.1412
25277W        W41086  17.187  16.675  12.291 -0.0493 -0.0476  0.2642
25278W        W41087  12.519  13.593   5.528  0.2073 -0.1421  0.0128
25279W        W41088   6.456  12.325   3.245  0.2770 -0.3002  0.1487
25280W        W41089  15.796   0.846   3.180 -0.0593 -0.3389  0.1333
25281W        W41090  18.563  11.624   2.890  0.2169 -0.1096 -0.0657
25282W        W41091  15.731  17.496   0.578  0.1018 -0.1360 -0.0828
25283W        W41092  15.073   1.238   3.547 -0.2250 -0.2419  0.2010
25284W        W41093  11.954   2.907  12.577 -0.3425  0.0275 -0.2728
25285W        W41094   5.780   8.541   0.627  0.3767  0.0603  0.1953
25286W        W41095  16.038   2.859  15.239  0.1841  0.0528  0.0915
25287W        W41096  11.943   4.421   1.474 -0.2461 -0.1977 -0.2020
25288W        W41097   4.415  18.776  13.869  0.1435  0.0608 -0.2276
25289W        W41098   0.210   0.197   4.911  0.4748  0.0217 -0.2110
25290W        W41099   3.154  18.265   0.799 -0.1447  0.3921  0.0023
25291W        W41100   9.986  11.250   1.386 -0.2168 -0.0749  0.0376
25292W        W41101  17.974   9.132   0.232  0.0143  0.0563  0.0084
25293W        W41102  16.109   1.200   1.650  0.0165  0.0306  0.0442
25294W        W41103   5.159  18.245  13.311 -0.1207 -0.0653 -0.3102
25295W        W41104   7.377   5.192   3.217  0.0793  0.1071 -0.5496
25296W        W41105  17.006  16.514  11.452 -0.0313  0.0706 -0.2383
25297W        W41106  11.293  13.127   4.268 -0.3859  0.0796 -0.3631
25298W        W41107   0.590  17.178   1.852 -0.1908 -0.0434  0.3069
25299W        W41108  17.517   7.935  11.321 -0.2582 -0.2233  0.2269
25300W        W41109  17.500  16.729  14.514  0.2141  0.0582  0.1118
25301W        W41110  11.159   5.775  14.373  0.0604  0.1148  0.1533
25302W        W41111   5.245   8.547  12.082 -0.1565  0.2229  0.0569
25303W        W41112   1.187   4.383   0.587  0.1209  0.0609  0.0738
25304W        W41113   0.485  15.001   2.730 -0.1140  0.0953 -0.0213
25305W        W41114   7.145   4.261   0.051 -0.1319 -0.1458  0.0172
25306W        W41115   7.407  15.267  14.938  0.0183 -0.2360 -0.2998
25307W        W41116  14.244  15.078   1.421 -0.0920  0.0566  0.2383
25308W        W41117   6.859  17.409  12.210 -0.2596  0.0459  0.0166
25309W        W41118  18.773   9.786   1.123  0.0791 -0.0539 -0.2150
25310W        W41119   3.541   0.753   9.336 -0.0545  0.1028  0.2684
25311W        W41120  14.948   3.454   1.308  0.1139 -0.2793  0.0842
25312W        W41121   1.365  15.895   0.056 -0.0604  0.0168 -0.2891
25313W        W41122   2.673   9.494   4.567 -0.1706 -0.1669 -0.0187
25314W        W41123  18.465  16.700   3.592  0.2114  0.0502  0.2105
25315W        W41124   4.239   1.167  11.611 -0.1545 -0.3364 -0.3100
25316W        W41125  13.422  11.912  13.373 -0.0335 -0.0893 -0.3655
25317W        W41126   9.345  11.607  15.102  0.0828  0.2202 -0.1497
25318W        W41127  12.963  18.614  13.140 -0.2721 -0.2490  0.1515
25319W        W41128   0.478  16.923  13.393 -0.0358 -0.1684  0.0676
25320W        W41129  13.735  10.903   5.226  0.0351 -0.4318 -0.1142
25321W        W41130   6.400  18.829  14.423  0.1592 -0.2800  0.1860
25322W        W41131   9.295  10.913   2.398  0.5503 -0.0289 -0.1304
25323W        W41132   4.961  15.592   9.838  0.2397 -0.1158  0.1250
25324W        W41133   4.872   3.217   4.192  0.0784  0.0650  0.0844
25325W        W41134   9.445   9.429   1.595  0.0821  0.0805  0.4024
25326W        W41135   7.889  14.998  15.170 -0.4157 -0.1552 -0.3404
25327W        W41136  16.594   7.308  11.522  0.1326  0.1359  0.1083
25328W        W41137  14.815  10.630  11.306 -0.1282  0.0272 -0.0511
25329W        W41138   0.396  11.848  12.795 -0.3269  0.0349 -0.3080
25330W        W41139   4.806  15.113  11.543 -0.0983 -0.2090 -0.2297
25331W        W41140   7.037  13.304   1.267  0.2207 -0.0680  0.1853
25332W        W41141  10.462  15.262  11.089  0.0578  0.0887  0.2562
25333W        W41142   8.361   7.747   3.248  0.0970 -0.0004 -0.1700
25334W        W41143   0.931  18.319   1.028 -0.0982 -0.1344 -0.0820
25335W        W41144   5.616   3.284   2.091 -0.1133 -0.4944  0.0800
25336W        W41145   6.628   8.091   4.344  0.2250  0.0067  0.1031
25337W        W41146  17.182   4.489  13.414 -0.0090 -0.3103 -0.1161
25338W        W41147  15.148  10.155   4.006 -0.3575 -0.4192 -0.2912
25339W        W41148  12.349  18.258   2.857  0.2348  0.3444 -0.1459
25340W        W41149  14.665  17.675  15.028 -0.2981  0.1587  0.1279
25341W        W41150  12.765  14.779  12.314  0.1728  0.0267  0.1552
25342W        W41151   6.096   3.980  13.345  0.1122  0.0858  0.0638
25343W        W41152   2.759  12.831  13.279  0.0104 -0.0433 -0.1782
25344W        W41153  11.771   9.990   0.985  0.3809  0.2766 -0.2197
25345W        W41154   3.638  16.724  12.413 -0.1886 -0.4337  0.2512
25346W        W41155  15.971  17.536  10.587 -0.2088  0.0138 -0.2246
25347W        W41156  17.918   2.926   0.537  0.0603 -0.0038  0.1558
25348W        W41157   9.974  18.400   4.217 -0.0873  0.0483 -0.0249
25349W        W41158   4.606  16.349  11.030  0.4695  0.1779  0.2259
25350W        W41159  15.816   2.031   4.107  0.0953 -0.4080 -0.2545
25351W        W41160  16.475  16.754   3.253  0.0090 -0.0160 -0.0012
25352W        W41161   8.742   7.799   2.973 -0.0452 -0.1313  0.4556
25353W        W41162  17.761  12.426  14.792 -0.0282  0.1406  0.2412
25354W        W41163  11.277   0.689  10.516  0.2708 -0.2353 -0.0566
25355W        W41164   4.709  15.552   3.899 -0.0686  0.1074  0.2626
25356W        W41165   3.809   6.241  15.120 -0.0395  0.1670  0.2677
25357W        W41166   5.914  15.044  12.507 -0.0511  0.1026  0.0198
25358W        W41167  10.350   0.689  15.232  0.0399  0.0680  0.0611
25359W        W41168  13.702  16.984  11.806 -0.1785  0.1449 -0.0360
25360W        W41169   5.045  16.669   4.923 -0.3069  0.0159  0.1875
25361W        W41170   5.458  15.807  14.587 -0.0754  0.2056  0.1043
25362W        W41171  16.883   4.553   3.699  0.1731 -0.0910 -0.3545
25363W        W41172   4.778   4.011   4.806 -0.0155  0.1463  0.0759
25364W        W41173  16.655   8.258  15.043  0.2757 -0.2563 -0.2498
25365W        W41174  13.137  15.109   3.070 -0.0747  0.1112 -0.1554
25366W        W41175   9.517   4.274  14.331  0.1602  0.0007  0.0344
25367W        W41176  12.660   5.110   1.254 -0.4238  0.3224  0.3151
25368W        W41177  16.173   7.896  11.936  0.1054  0.0927  0.1511
25369W        W41178   2.178  10.942  12.017  0.2299  0.0803 -0.0440
25370W        W41179   2.989   6.657   2.677 -0.1803 -0.1159 -0.0896
25371W        W41180  14.306  19.020  13.976 -0.1537 -0.0607  0.2542
25372W        W41181  13.306   2.478   3.468 -0.0505  0.1581 -0.0406
25373W        W41182   1.389   2.126   1.521 -0.1183  0.0090  0.2676
25374W        W41183  18.364  17.019  11.012  0.1303  0.1011  0.0880
25375W        W41184   6.933  15.313  10.888 -0.0267  0.0369 -0.0197
25376W        W41185  13.229   1.252   0.802  0.2195 -0.1294  0.4288
25377W        W41186   4.709   6.963  12.690 -0.1880  0.0369  0.4103
25378W        W41187  16.211  12.593  10.704  0.0675 -0.2749 -0.2445
25379W        W41188  17.357  18.162   2.739 -0.2165  0.1159  0.1355
25380W        W41189   4.778   7.895  14.962 -0.4710 -0.0633  0.0985
25381W        W41190   9.476  16.750  11.687  0.2143 -0.1944  0.0317
25382W        W41191  18.434   5.769   0.029  0.0704 -0.1776  0.0692
25383W        W41192  11.122  12.200   1.332 -0.0639  0.2331 -0.0960
25384W        W41193  15.115  13.176   3.814  0.4635  0.1312  0.3498
25385W        W41194   0.803  18.990  11.775  0.0270  0.0586 -0.1725
25386W        W41195  16.953  13.345  11.707 -0.0569  0.0341  0.1543
25387W        W41196  10.887   3.442  12.247  0.0201 -0.0147 -0.1462
25388W        W41197  11.183   5.054   2.045  0.3223 -0.1550 -0.1023
25389W        W41198   2.944  13.239   2.787  0.0096  0.4149  0.1969
25390W        W41199  17.991   8.433  12.627  0.1855 -0.1250  0.2537
25391W        W41200  14.750  14.578   2.516 -0.1818 -0.1144  0.0907
25392W        W41201  12.866   4.424  13.484  0.4628 -0.0356  0.0717
25393W        W41202   4.340  18.467  15.127  0.0103  0.1782 -0.1022
25394W        W41203  16.831  13.944  12.439  0.0598 -0.3424 -0.1049
25395W        W41204   8.719  13.801   2.619 -0.0901 -0.2964 -0.0269
25396W        W41205  15.641   1.989   1.996 -0.4346  0.1949  0.1502
25397W        W41206   3.845   6.318   1.432 -0.0751 -0.0960 -0.0545
25398W        W41207   9.456   6.790  14.153  0.1193 -0.1124 -0.2619
25399W        W41208  10.009  18.180   4.702 -0.5133 -0.0484 -0.3653
25400W        W41209  11.118  17.464  13.783 -0.4015  0.0813 -0.1393
25401W        W41210   8.972  12.550  11.869 -0.0468 -0.1877 -0.1534
25402W        W41211  15.703  16.496   4.891  0.3309 -0.0536 -0.0854
25403W        W41212   5.855   7.175   0.123  0.2110 -0.0576 -0.2098
25404W        W41213  18.568   8.053   0.891  0.0665  0.0261 -0.3080
25405W        W41214  10.448  11.413   4.156  0.1350  0.1332 -0.3887
25406W        W41215  14.786   4.580  11.757 -0.1879  0.1295 -0.1220
25407W        W41216  14.787   3.121   4.095  0.1624 -0.1741  0.2602
25408W        W41217   1.065   7.300  11.520 -0.2184 -0.1860  0.1761
25409W        W41218  17.852  17.621   1.436 -0.1176  0.0926  0.0211
25410W        W41219  14.934   2.782  12.328  0.1158 -0.2852  0.0481
25411W        W41220  14.577   4.864  13.632  0.3368  0.4114  0.0580
25412W        W41221   1.179  11.346   3.469 -0.1963 -0.0472  0.2108
25413W        W41222  13.422   7.601   1.370  0.2564 -0.1351 -0.0551
25414W        W41223   1.286   1.747   3.876 -0.2708  0.3987 -0.1046
25415W        W41224  13.235  17.389  13.106 -0.0314  0.1159 -0.0020
25416W        W41225  10.967   8.233  15.016 -0.0961 -0.1804  0.0646
25417W        W41226  13.706   3.407  15.150 -0.1028  0.0051  0.2695
25418W        W41227  13.006   5.416  11.253  0.0986  0.1802 -0.2599
25419W        W41228   1.884  10.077   5.002 -0.0030  0.1419 -0.1052
25420W        W41229   9.073  12.895  13.327  0.0827 -0.2612 -0.2469
25421W        W41230   8.061   8.222  15.247 -0.1888  0.0470 -0.1155
25422W        W41231   1.772   4.638   4.791 -0.1011  0.1419 -0.0911
25423W        W41232  18.524  19.043   1.018 -0.2254 -0.1325 -0.2028
25424W        W41233   6.330  15.375  12.274  0.0384 -0.2157 -0.0067
25425W        W41234   4.460   5.527   3.509 -0.1879 -0.2653  0.2267
25426W        W41235   7.301   1.818  10.139 -0.0545 -0.1536 -0.0131
25427W        W41236  10.948  14.808   4.209  0.5961  0.2171 -0.0389
25428W        W41237   3.650   3.864   2.636 -0.0743  0.0991 -0.2036
25429W        W41238   7.273  17.354  13.688  0.1771 -0.0687  0.1760
25430W        W41239   9.955   5.126   2.896  0.3807 -0.0647  0.1648
25431W        W41240  10.939  12.660  10.541  0.3035 -0.0030 -0.0222
25432W        W41241  11.620   3.048   1.235  0.0855  0.2298 -0.5019
25433W        W41242   7.884   2.992  13.803 -0.1433  0.3812  0.0495
25434W        W41243   8.613   8.412   0.417 -0.2748  0.2260  0.2625
25435W        W41244   1.404   1.975   3.328 -0.0261 -0.2219 -0.2952
25436W        W41245   9.068  13.049  10.977  0.1531  0.0775  0.1460
25437W        W41246  18.039  15.046   6.015 -0.0497  0.0841  0.1489
25438W        W41247  14.276   4.557   0.477  0.1186  0.0604  0.0954
25439W        W41248  13.317   7.272   0.492  0.2131 -0.0205 -0.1159
25440W        W41249   7.224   9.126   3.082 -0.0238  0.1192 -0.0818
25441W        W41250   7.653   0.632   4.349  0.3894  0.3130 -0.2812
25442W        W41251   4.259   2.749  10.163  0.1014  0.2458 -0.4939
25443W        W41252   4.209   4.780  13.921 -0.1517  0.2174  0.1466
25444W        W41253   4.641   8.817   0.987  0.3153 -0.1577  0.0436
25445W        W41254   5.089  12.000   3.677 -0.0800  0.3768  0.1242
25446W        W41255  13.577  18.160  11.786 -0.0598 -0.2708  0.3521
25447W        W41256  10.681  10.467   3.449 -0.0865 -0.1236  0.0072
25448W        W41257   9.647   5.499   2.884  0.3376  0.1124  0.0950
25449W        W41258  16.171  10.707   5.741 -0.0440 -0.1443  0.4033
25450W        W41259   1.811  10.800  11.308 -0.0435 -0.0244 -0.3348
25451W        W41260  14.929   7.538  10.903 -0.0777 -0.1442 -0.2285
25452W        W41261  14.703   7.930  10.680  0.1567 -0.0580  0.0450
25453W        W41262  17.504   8.963   2.841  0.0527 -0.1577  0.1393
25454W        W41263   2.746   0.557  11.078  0.2820  0.0752 -0.0408
25455W        W41264   5.338   4.986   0.763  0.0746  0.1029  0.0715
25456W        W41265  11.989   4.948   0.130  0.4642  0.0238  0.2408
25457W        W41266   2.028   9.488  14.330 -0.1481 -0.2615  0.2004
25458W        W41267   0.914  13.310   1.861 -0.1334 -0.0642  0.2519
25459W        W41268  18.546  11.829   5.385  0.1079  0.1167 -0.0175
25460W        W41269  17.821   4.274  11.942  0.0616  0.0461  0.0230
25461W        W41270   5.266  16.683   0.023 -0.4056 -0.3899 -0.0080
25462W        W41271   6.462  11.096  12.240 -0.1010 -0.0515 -0.0398
25463W        W41272  14.066  18.044  14.279  0.2328 -0.1354  0.2402
25464W        W41273   2.693  14.065  15.003 -0.0503  0.0115 -0.3123
25465W        W41274   1.893  10.068  14.746 -0.0539  0.1584 -0.1630
25466W        W41275  14.533  13.485  10.931 -0.1410 -0.1682 -0.0254
25467W        W41276  11.595   5.975   9.781  0.2594 -0.0512 -0.0729
25468W        W41277   8.735   5.035  13.081  0.2498 -0.0410 -0.0174
25469W        W41278   9.416   9.386   4.727  0.2045  0.2460  0.1732
25470W        W41279  18.265   6.824  11.092 -0.0731 -0.0318  0.1461
25471W        W41280  15.597  11.176  11.542 -0.0418 -0.0220  0.1775
25472W        W41281   7.588  14.170   4.080 -0.1047 -0.0262  0.4308
25473W        W41282  14.543  11.431  12.953 -0.1762 -0.0086  0.0719
25474W        W41283  11.056   1.008  15.050 -0.0683  0.0199 -0.3141
25475W        W41284  17.760  15.795   0.080 -0.1787 -0.1586  0.4364
25476W        W41285   8.804   7.247   5.119  0.0917 -0.1894  0.1950
25477W        W41286  13.347  12.677   1.107  0.3239  0.3572 -0.3176
25478W        W41287  17.118  15.369  12.729 -0.0873 -0.2651 -0.0266
25479W        W41288   1.409  17.481  11.988  0.0429 -0.0945 -0.3078
25480W        W41289  11.424   9.661   1.390  0.1991  0.2577  0.0897
25481W        W41290   5.824   6.163  14.753 -0.2279  0.0945 -0.1506
25482W        W41291  17.873  10.833   1.400 -0.0373  0.1809 -0.1580
25483W        W41292   1.006   0.232   0.574 -0.2599 -0.0069 -0.1946
25484W        W41293  11.233  15.497  11.094  0.0565 -0.1592  0.3325
25485W        W41294   2.073   1.348   4.075  0.0422 -0.0553  0.0435
25486W        W41295   9.768  16.171  14.003  0.2005 -0.0226 -0.4086
25487W        W41296   8.955  15.220  13.385  0.1399 -0.0704 -0.1309
25488W        W41297  17.247   2.250   2.715  0.0588 -0.0047  0.1452
25489W        W41298   1.443   7.950   0.500  0.2797  0.1235 -0.0030
25490W        W41299  14.312  15.794  12.216 -0.2058 -0.3125  0.1219
25491W        W41300   2.463   5.860   9.701  0.1750 -0.1295 -0.0187
25492W        W41301  15.469   6.922   0.876 -0.1822  0.1176 -0.2573
25493W        W41302  17.029  16.828  10.937  0.1281  0.0188 -0.1492
25494W        W41303   0.169  18.371  12.842  0.1424  0.1317 -0.0002
25495W        W41304   9.618   4.557   3.962  0.1188 -0.0915  0.1531
25496W        W41305  13.073   4.198  10.916  0.0752  0.3324  0.2359
25497W        W41306  15.843   0.716   1.531  0.2650  0.3140  0.3149
25498W        W41307  13.757  11.291   2.503 -0.2831  0.1779 -0.5416
25499W        W41308   5.382   1.292  10.271 -0.3173 -0.3216 -0.2356
25500W        W41309  10.802  16.371   4.866  0.0371  0.2661 -0.2071
25501W        W41310   7.732  13.483  10.327  0.1091 -0.4269 -0.1627
25502W        W41311  11.948  12.937   3.894  0.1767  0.0923 -0.0790
25503W        W41312  10.062  16.400   1.834 -0.2430  0.1394  0.1002
25504W        W41313  11.443   1.235  14.664 -0.0730  0.0488 -0.0976
25505W        W41314   0.839   9.574   0.372  0.0105  0.0858  0.1076
25506W        W41315   2.357   7.374  13.761 -0.0468  0.1386 -0.4136
25507W        W41316  10.443  15.403   3.479  0.1324  0.0344 -0.2147
25508W        W41317  14.764  18.530   5.526  0.1000  0.0525 -0.1381
25509W        W41318   0.637   3.565  11.058 -0.0673 -0.1181  0.2217
25510W        W41319  17.732  14.392  11.386  0.2298 -0.0293 -0.0980
25511W        W41320   6.202  11.505  12.588 -0.2650 -0.1121 -0.0744
25512W        W41321   5.827  13.975   1.460 -0.0446  0.0075  0.0282
25513W        W41322  19.133  10.692  12.969  0.0344  0.1293  0.0610
25514W        W41323  15.673  18.926  13.207  0.0594  0.0036 -0.0312
25515W        W41324  18.625  14.646  13.674 -0.0020 -0.4497  0.1513
25516W        W41325  11.817  10.906  10.318 -0.1072 -0.1606 -0.1207
25517W        W41326   5.417  11.709  14.741  0.2004  0.0135  0.4204
25518W        W41327  18.018  12.615   0.771 -0.1325  0.1096  0.0259
25519W        W41328   5.735  12.031  14.285 -0.0937  0.1359 -0.0351
25520W        W41329  14.318   9.342  14.514  0.2636  0.0389 -0.1086
25521W        W41330  14.048   3.924   3.291 -0.1099 -0.2513 -0.1371
25522W        W41331   6.712   6.732  10.609 -0.0494 -0.0531 -0.3490
25523W        W41332   6.859   6.120   4.826 -0.0729  0.1305  0.1616
25524W        W41333   4.511   9.703  10.786 -0.3136 -0.2470  0.1031
25525W        W41334   5.939  12.120   2.381 -0.1481 -0.0614  0.1858
25526W        W41335   3.393   6.130  10.549 -0.2574  0.1609 -0.0959
25527W        W41336  18.697  17.914   2.723 -0.2217 -0.0330 -0.1451
25528W        W41337  17.956   4.633  14.708  0.0540 -0.0774 -0.0931
25529W        W41338  10.725   8.667   0.704 -0.2919  0.0595  0.2368
25530W        W41339   0.784  11.307   2.427  0.0904 -0.4580  0.1991
25531W        W41340   4.638   3.228   4.621  0.2134  0.1085  0.1163
25532W        W41341  11.960   4.166  14.473 -0.0115  0.1170  0.1729
25533W        W41342   2.076  16.133   1.771 -0.0207  0.0121  0.0441
25534W        W41343  11.323  10.479  14.015  0.3741 -0.3288  0.3122
25535W        W41344   0.209  10.876   4.972 -0.0518 -0.0189  0.2148
25536W        W41345  10.468  11.945   4.195  0.1989  0.2366 -0.5645
25537W        W41346   8.566  16.183   3.412  0.1237 -0.1259  0.3968
25538W        W41347   7.167  10.999   5.048 -0.1916  0.0091  0.3899
25539W        W41348   4.638   8.120   2.243 -0.2754  0.2732  0.1479
25540W        W41349   6.241  11.846   1.479  0.1626 -0.2402  0.0805
25541W        W41350   5.506   9.466   4.993  0.0590  0.2381 -0.0808
25542W        W41351   6.237  14.290   1.796 -0.1989 -0.1113  0.3265
25543W        W41352   9.398  10.290   4.167 -0.0448  0.3268  0.0466
25544W        W41353   0.419  18.551  11.509 -0.0805  0.0615 -0.2235
25545W        W41354   9.148  17.502   1.711 -0.0983 -0.0713 -0.0143
25546W        W41355  14.196  13.689   3.386 -0.0997  0.1296  0.2765
25547W        W41356   7.602   3.096  14.593 -0.0782 -0.2617 -0.2096
25548W        W41357   5.379  14.666   0.110 -0.3313  0.1492  0.3131
25549W        W41358   2.585   9.072  15.069 -0.1110  0.2626  0.3849
25550W        W41359   0.715  14.366  11.511 -0.4120  0.2837 -0.2357
25551W        W41360   5.709  17.408   3.424  0.0718 -0.1820 -0.0940
25552W        W41361  17.559  18.056   2.208 -0.2435 -0.0516 -0.1956
25553W        W41362   1.728  15.136  11.094  0.1787 -0.0291  0.2429
25554W        W41363  15.771  13.312   1.954 -0.0086  0.3753  0.1777
25555W        W41364   3.383  19.068  14.656 -0.1044  0.1172  0.0676
25556W        W41365   8.553  11.892   3.002 -0.1739  0.0537 -0.0307
25557W        W41366   9.025  17.988   2.780  0.3072 -0.0790 -0.0439
25558W        W41367   3.298  17.056  15.191  0.2438 -0.4189  0.2722
25559W        W41368  17.001   6.361   4.675  0.0722  0.1857 -0.0395
25560W        W41369  17.187  15.206   0.405 -0.1269 -0.0753 -0.0042
25561W        W41370   6.256   9.555  12.340 -0.2285  0.1662  0.0387
25562W        W41371  17.122  15.184  12.294  0.2824  0.0099  0.1685
25563W        W41372  12.426   2.653   3.851  0.3413  0.0863 -0.0196
25564W        W41373   0.662   8.215  13.556  0.3808 -0.0233  0.2152
25565W        W41374  13.432   6.517  11.270  0.0124 -0.2689 -0.3362
25566W        W41375   6.904   0.927   1.900  0.0839  0.1540 -0.5100
25567W        W41376  13.747  12.928   6.008  0.0846  0.0042  0.0129
25568W        W41377   3.043  15.558  12.936  0.0265  0.0733  0.0272
25569W        W41378   4.296   3.295   2.976  0.0203  0.0828 -0.3100
25570W        W41379  12.842   4.774   1.626  0.2574 -0.3981 -0.1116
25571W        W41380  10.785   7.330   4.735  0.1152  0.0359 -0.0285
25572W        W41381  11.426   9.943  12.704 -0.1236  0.1199  0.2558
25573W        W41382   2.539   6.057   1.046 -0.1220 -0.1433  0.0969
25574W        W41383   7.269   3.496   3.598  0.0192  0.3365  0.0670
25575W        W41384   0.026   4.483   3.078  0.1547 -0.3394 -0.0031
25576W        W41385   6.722   0.411   0.188 -0.2353 -0.0371  0.2944
25577W        W41386  13.955   1.464   0.923  0.3158  0.1040  0.1891
25578W        W41387   4.811  13.635   4.488  0.1522 -0.2039 -0.3878
25579W        W41388  18.862   4.338  10.678 -0.0088 -0.5022  0.0848
25580W        W41389  15.652   4.113   1.579 -0.0514  0.0440 -0.0845
25581W        W41390   5.410   2.332  14.438  0.1711 -0.1959  0.2140
25582W        W41391  18.952  10.324   4.110  0.1850 -0.1691  0.4087
25583W        W41392   0.829  14.373  15.226  0.1342 -0.1479  0.0992
25584W        W41393   7.937  12.048   1.711  0.1412  0.0289  0.2269
25585W        W41394   8.427   7.284   9.966  0.2692 -0.0645 -0.0961
25586W        W41395   8.188  14.823   1.306 -0.2162 -0.0092  0.1002
25587W        W41396  16.829   9.525   4.791  0.3453  0.1390  0.2420
25588W        W41397  14.384  18.970   1.706 -0.0257 -0.0509 -0.1392
25589W        W41398  12.561  14.087  13.432 -0.2212  0.0191 -0.1154
25590W        W41399  18.716   8.161   4.225  0.0440 -0.2616  0.5756
25591W        W41400  16.013  16.520  12.379 -0.0326 -0.1028 -0.1387
25592W        W41401  13.209   8.125   1.149  0.0117  0.1067 -0.1992
25593W        W41402  18.216   9.161   3.507 -0.1043  0.0311  0.0960
25594W        W41403  18.789  10.541  11.712  0.2526 -0.2442  0.3698
25595W        W41404  13.864   5.322   4.221  0.1234  0.1262  0.1892
25596W        W41405   9.517   5.786   1.930 -0.1018  0.0171 -0.5278
25597W        W41406  15.556   6.329  10.616  0.2047  0.2382  0.3611
25598W        W41407  13.263   0.385  10.715 -0.2800  0.1865  0.1499
25599W        W41408  12.101  17.883   3.625  0.3099  0.2214 -0.0545
25600W        W41409   9.075  11.565   5.192 -0.2187  0.0458 -0.1482
25601W        W41410   9.151   0.558  10.468 -0.0927 -0.1232 -0.1821
25602W        W41411  13.429  16.324   2.759  0.1192  0.2316  0.1248
25603W        W41412   7.650   3.841   5.417  0.1264 -0.3041  0.1110
25604W        W41413   7.544  15.786  11.478  0.0593  0.2033  0.2718
25605W        W41414   7.532   1.455   1.994  0.0590  0.0832 -0.1377
25606W        W41415  11.647  12.458   4.916  0.0295 -0.1313 -0.3845
25607W        W41416  15.564  11.818  12.701  0.5293 -0.2292 -0.0129
25608W        W41417  15.145   8.994   1.255  0.2990  0.0056 -0.0841
25609W        W41418  16.723  16.172   1.986  0.2615  0.1026 -0.0344
25610W        W41419  11.762   0.770   4.011  0.0969  0.0272  0.1871
25611W        W41420   3.056   8.465  11.938  0.0054  0.2111 -0.0556
25612W        W41421   1.838  17.039   4.989 -0.1746 -0.1110 -0.0241
25613W        W41422  13.548   9.081   5.478  0.2189  0.2053  0.4066
25614W        W41423  13.624   5.998   1.718 -0.2762 -0.1116  0.0266
25615W        W41424  11.315   9.786  13.247  0.3332 -0.2140  0.0129
25616W        W41425   4.823  13.486  14.262 -0.1623 -0.0263  0.0800
25617W        W41426   1.191   8.249   5.072  0.2363 -0.1656 -0.2126
25618W        W41427  14.008   3.203  10.970  0.0114 -0.2736  0.1349
25619W        W41428   3.123  11.771  15.267 -0.0785  0.0324  0.1144
25620W        W41429   7.649   8.667  12.992  0.1337  0.1330 -0.0155
25621W        W41430   5.651   2.576  11.126  0.2096 -0.0437 -0.0627
25622W        W41431   7.006  16.503  13.462 -0.0032  0.1088  0.0444
25623W        W41432  10.391   3.492   3.491 -0.3314 -0.1963  0.2424
25624W        W41433   0.535   3.411  12.109  0.2239  0.1988 -0.0738
25625W        W41434  17.647  17.379   5.849 -0.0845 -0.0612 -0.1421
25626W        W41435  12.501   5.878  13.246 -0.0201  0.2735  0.4339
25627W        W41436   6.303   0.994   3.904 -0.1079  0.1703 -0.1571
25628W        W41437   3.173   9.909   4.620 -0.0012  0.0112 -0.1392
25629W        W41438  16.533  10.752   1.449 -0.0097 -0.1666  0.2850
25630W        W41439   9.665   6.370  11.991 -0.0647  0.1683  0.3456
25631W        W41440  14.807   7.057  10.811  0.0955 -0.2256 -0.2095
25632W        W41441   3.049  14.514  14.745 -0.0086 -0.1100  0.0912
25633W        W41442   9.884  12.697  11.711  0.1851  0.1066 -0.1371
25634W        W41443   4.224   2.290   9.688 -0.0396  0.2166 -0.0136
25635W        W41444  17.854   5.456   3.972  0.2028 -0.0789  0.0796
25636W        W41445   5.953  18.939  10.237  0.0568 -0.1666 -0.1704
25637W        W41446  18.002  12.222  14.392 -0.0332 -0.0939 -0.1289
25638W        W41447   1.061   4.941   0.184  0.0769  0.2866 -0.2846
25639W        W41448   7.759   5.421  10.912  0.0832  0.0837 -0.0686
25640W        W41449  11.493   6.949   0.766 -0.1246  0.1200 -0.4872
25641W        W41450   0.385   6.419  13.296  0.0969 -0.1892  0.0803
25642W        W41451   0.179   4.768  11.019  0.1375 -0.0461  0.0701
25643W        W41452  11.414   3.388  13.366 -0.0898 -0.3163 -0.0521
25644W        W41453   2.947   9.618   1.053 -0.1176  0.0000  0.1887
25645W        W41454   6.113   0.636   0.249  0.0776 -0.2412  0.4112
25646W        W41455  11.029   2.561  10.667  0.2332 -0.1338 -0.0097
25647W        W41456  12.194  11.771   1.010 -0.0375  0.0745 -0.2032
25648W        W41457  13.351   6.385  13.590 -0.2032 -0.3519 -0.2582
25649W        W41458   4.665   1.427   0.042  0.3381  0.0261 -0.0326
25650W        W41459   9.864  11.783   0.717  0.0122  0.2422 -0.0582
25651W        W41460   8.101   8.363   5.568 -0.3255  0.0855  0.0873
25652W        W41461   2.775  17.063   9.651  0.0142  0.1945  0.1132
25653W        W41462  16.028   6.753   4.756  0.1100 -0.2517 -0.0297
25654W        W41463   4.602  18.470   0.962 -0.2492 -0.3809  0.1589
25655W        W41464  13.442  14.750   3.304  0.0130  0.2259  0.1509
25656W        W41465  15.334   3.769  14.718  0.2898  0.0609 -0.0924
25657W        W41466  12.849  12.052  15.039 -0.0680  0.0740 -0.2024
25658W        W41467  16.512  15.340   3.624  0.2088  0.0019 -0.0135
25659W        W41468   7.934  14.594   4.049  0.2953  0.1134 -0.2569
25660W        W41469  12.274  13.126  13.221 -0.2227  0.4559  0.1943
25661W        W41470   9.741   7.916   2.092 -0.2902  0.0211  0.1994
25662W        W41471   1.449   4.811   0.507  0.3560 -0.0625 -0.0760
25663W        W41472   9.128  14.252  13.573 -0.4041 -0.1166 -0.0121
25664W        W41473   6.495   8.537  10.851 -0.3507  0.1746 -0.2994
25665W        W41474   5.241   3.648   1.472 -0.1102 -0.1656 -0.0699
25666W        W41475  11.920   7.630  15.245 -0.2033  0.1964  0.1827
25667W        W41476   4.290  12.418   4.065 -0.0145 -0.0572  0.1046
25668W        W41477  18.801  14.625   2.806  0.2841 -0.2065  0.0703
25669W        W41478  16.008   4.147  15.058  0.1286 -0.0940 -0.2672
25670W        W41479  15.757   6.610   1.088  0.2211  0.3125 -0.1157
25671W        W41480  15.584  14.014  13.243 -0.3582  0.0879 -0.2160
25672W        W41481   6.298  17.763  10.365  0.0976  0.0098 -0.2844
25673W        W41482   3.426  13.618  13.865 -0.3060 -0.0509  0.1925
25674W        W41483  15.182   2.636   1.395 -0.1085  0.2531 -0.1289
25675W        W41484   7.817   5.865   0.993 -0.2726 -0.1255  0.0187
25676W        W41485   0.520  12.343   4.500  0.2596 -0.0696  0.3419
25677W        W41486   4.621   1.188   4.986 -0.2066  0.2526  0.1271
25678W        W41487  10.006   3.213   4.984  0.1099  0.1061  0.2497
25679W        W41488   2.528  10.166  11.632 -0.0676 -0.0046 -0.2046
25680W        W41489  15.930   0.345   0.594  0.0376 -0.2137 -0.0065
25681W        W41490  16.271  16.105  11.444  0.0758 -0.1636 -0.5199
25682W        W41491   7.149   7.902   0.223 -0.2030 -0.1326  0.0267
25683W        W41492   1.225  16.428  14.985  0.1676 -0.0095  0.2963
25684W        W41493   9.952   9.519  12.974  0.0716 -0.0194 -0.0053
25685W        W41494  10.660   6.511   1.192 -0.0021 -0.1083  0.1051
25686W        W41495   5.052  17.557  14.457 -0.2620  0.3689  0.0925
25687W        W41496  10.959   1.805  12.798 -0.1076 -0.0189 -0.2030
25688W        W41497  16.007   1.096  13.223 -0.0280  0.1526  0.0918
25689W        W41498   5.183   0.165  11.077  0.2882 -0.0766 -0.2474
25690W        W41499  12.472   9.133  13.962  0.2067 -0.1049 -0.1839
25691W        W41500   2.689   2.345   0.550 -0.2375  0.1191  0.0310
25692W        W41501   8.924  11.084   1.946  0.0658 -0.0947 -0.1865
25693W        W41502   4.827   2.377   3.174 -0.0170  0.2114 -0.1229
25694W        W41503   5.636  14.050   2.332  0.0655 -0.0932  0.0526
25695W        W41504   1.725   8.869  10.986  0.0187  0.2493 -0.2826
25696W        W41505  17.161   3.656   4.610  0.1662 -0.0552  0.1114
25697W        W41506   8.099  15.230  13.825  0.2367  0.2888  0.1001
25698W        W41507  17.998   6.459  11.563 -0.1468 -0.2687  0.4335
25699W        W41508  11.439   7.491   4.005  0.0427  0.0661 -0.2927
25700W        W41509   1.812  14.339   4.672 -0.2959 -0.0608  0.0955
25701W        W41510   8.877  13.671   4.273 -0.3194 -0.2934  0.5188
25702W        W41511   8.377   7.941   0.282  0.0580 -0.0942  0.0561
25703W        W41512   5.293  10.434  11.397 -0.0069  0.0471 -0.3326
25704W        W41513  17.008   1.523   1.174  0.4497 -0.4909 -0.1233
25705W        W41514  13.315   6.605  13.152 -0.1732 -0.0082 -0.1708
25706W        W41515   2.166   5.381   9.776  0.2949  0.1294  0.0334
25707W        W41516  18.153   1.806   3.514  0.2434 -0.1786 -0.0992
25708W        W41517   4.861   7.267  13.298 -0.0070  0.0903 -0.2164
25709W        W41518  18.381  15.522  13.173  0.0144 -0.0964  0.0626
25710W        W41519  13.184  12.720   5.640 -0.2064  0.1444 -0.1923
25711W        W41520   2.855  11.491   1.106  0.0470 -0.3173  0.0299
25712W        W41521   5.099  19.103  10.621 -0.0647 -0.0242  0.0427
25713W        W41522   8.337   2.581   1.395 -0.1563  0.0473  0.0154
25714W        W41523   6.506  13.844   3.031 -0.2557  0.0523  0.0492
25715W        W41524  17.191  10.449   4.735 -0.0450  0.3090  0.1068
25716W        W41525  13.332   3.574   2.519 -0.2208  0.0495  0.1256
25717W        W41526   0.919   9.759   3.471  0.1396  0.3093 -0.2758
25718W        W41527   9.800  11.824   2.331  0.1284 -0.0449  0.0315
25719W        W41528   8.967   9.135  11.483 -0.1410 -0.3264  0.2905
25720W        W41529  16.303   2.240  15.156  0.2039  0.2153 -0.0585
25721W        W41530   8.317   6.386   4.246  0.0695 -0.0287  0.1939
25722W        W41531  14.849  15.679  11.607  0.4062 -0.2844  0.1688
25723W        W41532   3.056  12.924  11.775 -0.1395 -0.0043 -0.0447
25724W        W41533  11.472   2.235  13.758 -0.0081 -0.3243  0.4289
25725W        W41534  18.742  18.614  14.094 -0.1384 -0.0615  0.0702
25726W        W41535  10.990  10.854  14.786 -0.1630 -0.1888 -0.3834
25727W        W41536   0.672   8.490   0.504 -0.1849 -0.0714 -0.3991
25728W        W41537   5.622  16.866  13.966 -0.2800  0.2112  0.0896
25729W        W41538  17.204   2.308  11.404 -0.0017  0.1304  0.4806
25730W        W41539   4.088   8.323  13.018 -0.0438 -0.1596 -0.0486
25731W        W41540  14.222   2.103   0.972 -0.1642  0.1739 -0.1746
25732W        W41541   9.594   5.835   4.072 -0.0762  0.0593 -0.0566
25733W        W41542  18.742  12.321   0.532 -0.1327  0.0434  0.2776
25734W        W41543  17.706   7.749   0.142  0.0052  0.0267 -0.0570
25735W        W41544   7.391  11.613  13.327  0.1713 -0.0113  0.1290
25736W        W41545   6.670  15.516  11.760 -0.0182 -0.1330  0.2268
25737W        W41546   2.898   2.571  12.548 -0.3691  0.1389 -0.0947
25738W        W41547   1.259  11.192  14.361 -0.6049 -0.1572  0.0687
25739W        W41548  18.178  11.974   1.011 -0.3176 -0.1562 -0.0064
25740W        W41549  15.100   4.618   4.882  0.0838  0.2883 -0.0217
25741W        W41550  13.290  19.027  10.870 -0.0792 -0.4554  0.0580
25742W        W41551  14.732   2.195   0.139  0.0350  0.0349  0.0299
25743W        W41552   4.691  11.329  15.017  0.1198 -0.0198 -0.1983
25744W        W41553  14.143   8.022   0.044  0.0168  0.0851  0.2216
25745W        W41554  14.754  15.606  12.167 -0.1009  0.2057  0.0134
25746W        W41555   8.078  12.545   1.004  0.3320  0.1964 -0.0170
25747W        W41556  11.716  11.202   3.160 -0.0777 -0.1653 -0.4422
25748W        W41557   6.591  17.180  14.794 -0.3920 -0.0474  0.0609
25749W        W41558   9.234  10.883  14.614 -0.2430 -0.0438 -0.2994
25750W        W41559  10.375  11.501  10.922  0.0965  0.0010 -0.0153
25751W        W41560  10.753  18.336   2.847 -0.1214  0.1997  0.0616
25752W        W41561  13.721  15.407   0.380 -0.1864  0.0811  0.2408
25753W        W41562   8.467   1.205  14.844  0.4817 -0.0970 -0.1434
25754W        W41563   2.016   9.446   6.082 -0.1939  0.0821 -0.2984
25755W        W41564   9.158   3.833   0.575 -0.1482 -0.1473 -0.2152
25756W        W41565   2.551  12.487   4.203 -0.2540  0.0671  0.1219
25757W        W41566  17.805  16.238  12.922 -0.0802  0.2301 -0.0132
25758W        W41567   3.976  18.831   1.303  0.0470 -0.4867  0.2059
25759W        W41568  14.167   5.566   0.400  0.0866 -0.0647  0.1657
25760W        W41569   9.986   1.795   1.011 -0.0853 -0.2472  0.0156
25761W        W41570  18.864   5.992  12.004  0.0103 -0.2300  0.0808
25762W        W41571   8.516  15.493   2.934 -0.0873 -0.1485 -0.4240
25763W        W41572  13.542   3.150   2.338 -0.0152  0.2331 -0.0131
25764W        W41573  15.473   0.574   0.538  0.1181 -0.0550 -0.1521
25765W        W41574  15.801   8.611  10.186 -0.6958  0.4152 -0.1993
25766W        W41575  16.870  11.700  15.174  0.1013 -0.3327  0.2647
25767W        W41576   8.033   5.537  12.383  0.2372 -0.1256  0.1646
25768W        W41577   4.489   5.020  13.485  0.2322 -0.0013 -0.2861
25769W        W41578  10.110   0.620   0.423  0.0183  0.1182 -0.0622
25770W        W41579  17.500  16.766   0.893 -0.0568 -0.1170 -0.5167
25771W        W41580  11.933   7.210  14.967 -0.0346  0.0761 -0.0433
25772W        W41581  11.075   8.448  12.206 -0.5961 -0.0206 -0.3121
25773W        W41582  16.872  15.308   5.983  0.1988  0.1255  0.1456
25774W        W41583  12.660   1.932  10.221  0.1652  0.2088 -0.2384
25775W        W41584  15.535  12.903  14.027 -0.3548  0.0231 -0.2321
25776W        W41585   4.278   9.341  11.257  0.3964  0.2345  0.0067
25777W        W41586  10.183   8.708  15.144 -0.0181 -0.0676 -0.3380
25778W        W41587  14.619   0.895  11.766 -0.0156  0.0396 -0.0321
25779W        W41588   2.563  12.430   1.071  0.0302 -0.2567  0.1001
25780W        W41589   7.435   9.700   0.852 -0.0249 -0.1217 -0.1537
25781W        W41590   2.742   2.685  10.070  0.2200  0.3485  0.1040
25782W        W41591   1.791  17.462  10.647  0.1395 -0.1416  0.0727
25783W        W41592  13.060   0.977  11.335  0.0418 -0.2810 -0.0287
25784W        W41593  12.062  13.026   0.409  0.1760 -0.1750  0.1123
25785W        W41594  16.942   1.996   0.599 -0.1942 -0.1113  0.3342
25786W        W41595  14.218  16.402  10.938  0.0611  0.1509 -0.0076
25787W        W41596   3.938   4.017   0.024  0.3714  0.1732 -0.1680
25788W        W41597   4.146  12.678  14.931  0.0101  0.3171 -0.4513
25789W        W41598  11.566   2.512   4.925  0.1776  0.1094  0.0808
25790W        W41599   2.996  13.704   3.838  0.4366  0.1954  0.0562
25791W        W41600  11.548  17.126   3.835  0.0555  0.0837  0.0130
25792W        W41601   9.086  17.875   1.300 -0.0669 -0.1585  0.0840
25793W        W41602   3.626   1.022   1.886  0.1875 -0.0408  0.0883
25794W        W41603   4.648   0.634   9.989  0.2165 -0.1267 -0.0425
25795W        W41604   6.596   6.442  11.058  0.2997 -0.0875  0.1350
25796W        W41605   6.052   4.155   1.174 -0.0020  0.1217  0.1759
25797W        W41606  13.876  16.062  10.727  0.0267  0.4382  0.2531
25798W        W41607  14.775   6.951   1.498 -0.2285  0.3738 -0.3361
25799W        W41608  15.865   3.894  14.329  0.0228  0.0938 -0.0820
25800W        W41609  10.383   5.360  14.549 -0.0372  0.3677  0.0913
25801W        W41610  12.513   6.810   3.021  0.4242 -0.2944  0.2250
25802W        W41611  14.415   5.469   2.078  0.0340 -0.3048  0.0912
25803W        W41612   5.825   7.591   4.271  0.0629  0.2825 -0.1824
25804W        W41613   9.446   1.006  13.341 -0.0077  0.1204  0.0116
25805W        W41614  12.306  16.217  13.247  0.3379 -0.2720  0.1674
25806W        W41615  11.971   2.355  12.793 -0.2126  0.2248  0.3233
25807W        W41616  16.877   0.640   0.958  0.1159  0.3561 -0.0172
25808W        W41617  17.244   3.220   1.855  0.2445  0.1087 -0.2147
25809W        W41618   9.064   3.119   3.824  0.1167 -0.0481 -0.0661
25810W        W41619   5.995   5.369  11.861  0.1552  0.0959  0.5438
25811W        W41620   8.002   9.677  15.164 -0.1180 -0.0228 -0.1704
25812W        W41621   0.300   6.251   4.924 -0.3987  0.4785  0.0117
25813W        W41622  14.945   6.447  14.804 -0.0792  0.0316 -0.6473
25814W        W41623   8.202   4.176   0.749  0.2244 -0.0122 -0.2353
25815W        W41624   2.826   3.171   3.445  0.0521 -0.1009  0.1788
25816W        W41625  17.439  10.245   2.708 -0.2699 -0.0549 -0.2474
25817W        W41626   2.843  14.965  12.315 -0.0365 -0.1091  0.0009
25818W        W41627   6.336   7.685  14.391 -0.1875  0.1134  0.0548
25819W        W41628   0.352  17.796   4.666 -0.1355 -0.2211  0.0974
25820W        W41629   1.287  13.745  14.849  0.1266 -0.3625 -0.2268
25821W        W41630   6.495   0.921   3.471 -0.1668  0.1760  0.1592
25822W        W41631   4.679   7.998   1.372  0.0918 -0.3633 -0.0210
25823W        W41632  12.676   3.079  14.290 -0.3583  0.0787 -0.1157
25824W        W41633   1.658   2.104   5.236 -0.2369  0.0673 -0.0600
25825W        W41634   9.021   4.485   1.426 -0.0986  0.4410 -0.1633
25826W        W41635   9.558   1.063   1.432  0.0479 -0.4479 -0.1529
25827W        W41636  14.057  14.327   5.940  0.1109 -0.0765  0.1495
25828W        W41637  14.553   9.335  15.054 -0.1420  0.2105 -0.1245
25829W        W41638   6.231  17.996   1.565 -0.1310 -0.2963 -0.0445
25830W        W41639  13.840  12.587  13.925  0.1244 -0.1565  0.1967
25831W        W41640  13.397   6.343   2.617  0.1391  0.0051  0.0087
25832W        W41641   4.575  16.079   3.638  0.0415  0.0928  0.0602
25833W        W41642   5.768  14.744  12.950  0.0504 -0.0243  0.2377
25834W        W41643   5.390  13.493   3.110 -0.3350  0.2674 -0.1095
25835W        W41644  13.451  17.129   2.002  0.2585  0.0838 -0.2306
25836W        W41645  11.528  15.584   3.630  0.3028  0.0474 -0.0591
25837W        W41646   0.926   1.903   3.035 -0.1154 -0.1112  0.1225
25838W        W41647  18.005  14.480   0.219  0.1735  0.1925 -0.0953
25839W        W41648   0.521  16.140   4.535  0.3525 -0.0546 -0.1478
25840W        W41649   4.013  11.812  13.245 -0.0605  0.0621 -0.0572
25841W        W41650   7.632  12.893  11.649 -0.3769 -0.3429 -0.0747
25842W        W41651   0.004  10.177   4.849 -0.0583  0.0365 -0.2250
25843W        W41652   1.533  14.539   1.398 -0.1066 -0.0595 -0.0686
25844W        W41653   7.840  15.478  13.511 -0.0382  0.1025 -0.2388
25845W        W41654  10.041  12.782   4.475 -0.1102  0.0047 -0.0121
25846W        W41655  12.727  15.232   1.030 -0.3004  0.3378  0.0254
25847W        W41656   0.757  15.661  14.524 -0.2870 -0.3252 -0.0010
25848W        W41657  14.632   0.709  13.810 -0.2891 -0.2128 -0.0108
25849W        W41658   2.584   6.383  14.045  0.2679  0.2070 -0.1946
25850W        W41659   6.310   6.120   1.168  0.0105  0.2850 -0.2146
25851W        W41660  10.626  10.945   0.104 -0.0752  0.2096  0.1448
25852W        W41661   0.955  17.586  12.783 -0.1284 -0.1300 -0.2477
25853W        W41662  10.735   4.888   0.492 -0.3349  0.1855  0.3460
25854W        W41663   3.116  10.634   2.256 -0.0030 -0.0769 -0.2084
25855W        W41664   6.317   1.033   1.028 -0.1562 -0.1719 -0.0325
25856W        W41665   5.053  16.528   3.080  0.0258  0.0210 -0.1599
25857W        W41666  17.955  15.336  11.805  0.1644  0.0324  0.2027
25858W        W41667  18.187  17.794   1.842  0.0433  0.1789  0.2219
25859W        W41668   7.981   7.925  13.292 -0.0365  0.1220 -0.1555
25860W        W41669   6.049   7.666   0.985 -0.0308  0.2013  0.0706
25861W        W41670  11.698  12.140  12.564 -0.1661  0.0220  0.1437
25862W        W41671  10.048  10.251  11.008  0.0455 -0.0706 -0.1013
25863W        W41672   9.104  10.684   4.613  0.1234  0.1721  0.0571
25864W        W41673  11.695  16.292   9.549 -0.0446  0.3914 -0.0446
25865W        W41674  15.612   4.717  13.976 -0.1721  0.1130  0.0921
25866W        W41675   1.710  14.148   0.890 -0.0427 -0.0722 -0.1907
25867W        W41676  10.500   6.111   9.551  0.1905 -0.2254  0.0750
25868W        W41677  16.875   8.845   3.641  0.5692  0.0362 -0.0288
25869W        W41678   0.564   1.229  12.866 -0.0209 -0.0304  0.1281
25870W        W41679   0.385  12.436  13.589 -0.2363 -0.5000  0.2384
25871W        W41680   5.313  17.541  14.856 -0.1750  0.1512  0.1529
25872W        W41681  12.707   6.404   3.712 -0.0461  0.0452 -0.2893
25873W        W41682   5.897   9.180   3.691 -0.3420 -0.0516  0.1787
25874W        W41683  12.771   7.710  12.188 -0.0879 -0.1658 -0.0765
25875W        W41684   6.788  17.079  12.686 -0.1309 -0.0988 -0.1511
25876W        W41685   0.476  15.199   1.788 -0.0424  0.0269 -0.2683
25877W        W41686   2.169   1.820   1.138 -0.4128 -0.2517  0.2154
25878W        W41687   6.221   8.666  13.050 -0.3713 -0.0833 -0.1997
25879W        W41688   6.265  15.493  14.251 -0.0045  0.2700  0.1379
25880W        W41689  18.906   0.284  15.062 -0.2109  0.1828 -0.1646
25881W        W41690   4.187  18.541   3.956  0.1871  0.1259 -0.0321
25882W        W41691  10.235   7.705   0.668  0.2675 -0.1075  0.0401
25883W        W41692   2.231   5.912  12.337 -0.1527 -0.0638 -0.1119
25884W        W41693   8.825   8.537   3.396  0.0499 -0.0229  0.0031
25885W        W41694   8.972   1.491   0.748 -0.0563  0.2212 -0.2855
25886W        W41695  17.257   7.418   1.164 -0.0938  0.0793 -0.0417
25887W        W41696  10.660  14.439  10.659  0.0736  0.1003  0.2744
25888W        W41697  10.285   4.220  11.990 -0.0372 -0.2873 -0.0409
25889W        W41698  17.233  18.967  10.774 -0.3149  0.0400 -0.0828
25890W        W41699   2.220  11.082   4.670  0.0297 -0.1828  0.1791
25891W        W41700  13.446   7.052   3.365 -0.0618 -0.0599  0.0514
25892W        W41701   7.816   6.397  13.946 -0.1650  0.0546  0.3385
25893W        W41702   1.179   8.572   3.546 -0.0886  0.2933  0.2423
25894W        W41703  13.727   2.075   1.112 -0.1581  0.1928  0.2273
25895W        W41704  13.807  15.757   1.935  0.0591  0.2907  0.0643
25896W        W41705   4.204   2.669  14.064  0.2654 -0.1310 -0.0772
25897W        W41706   3.729   7.906  10.600  0.0056  0.0846 -0.2287
25898W        W41707  14.867   8.463  10.870  0.1306  0.0598 -0.1331
25899W        W41708   9.124  17.401  12.361  0.1725 -0.2991 -0.1340
25900W        W41709   9.177   2.011   0.453  0.3238  0.0937  0.4426
25901W        W41710   0.999   6.177  11.169 -0.1046  0.0502  0.1608
25902W        W41711  15.670  17.898   3.746  0.1746 -0.0353  0.0247
25903W        W41712   8.802   5.683  10.020  0.1375  0.3267  0.1891
25904W        W41713  10.969   9.913  12.919  0.0006 -0.1773  0.0612
25905W        W41714   2.156  15.423  14.811  0.2745  0.0803  0.0793
25906W        W41715  15.835  10.964   2.832 -0.2582  0.0211  0.0654
25907W        W41716  14.518  14.757  13.522 -0.0782  0.0816 -0.0618
25908W        W41717   7.015  17.127   0.418  0.1199 -0.0654  0.2069
25909W        W41718   7.435  14.358   3.580 -0.2461 -0.1896 -0.2006
25910W        W41719   2.205  18.396  13.044 -0.0210 -0.0186  0.2602
25911W        W41720   7.068   6.743   5.544 -0.0903  0.1504 -0.0752
25912W        W41721  16.978   5.428  12.503 -0.1199 -0.1598  0.1520
25913W        W41722  17.583   9.277   0.576 -0.2445  0.0725 -0.2208
25914W        W41723  14.478   6.778   1.989  0.0203  0.1124  0.0945
25915W        W41724  14.258  13.819  14.256  0.1947 -0.2534 -0.4148
25916W        W41725   1.493  12.673  13.771 -0.3631 -0.2517  0.3865
25917W        W41726  18.309   8.830   1.537 -0.3148 -0.1478 -0.0574
25918W        W41727  18.777   4.103   2.438  0.2173  0.1871  0.0386
25919W        W41728  14.680   4.307   0.081  0.1203 -0.1258  0.3955
25920W        W41729   7.755  18.735   2.065 -0.3558  0.0461 -0.1158
25921W        W41730   9.048  12.208  13.065  0.2608 -0.1763  0.1253
25922W        W41731   5.655   5.243  12.386 -0.0035 -0.2033 -0.0696
25923W        W41732   5.307  14.687  13.582  0.0259  0.3996  0.0571
25924W        W41733   4.348   9.554  13.478 -0.0268 -0.1806  0.0344
25925W        W41734  12.750  11.290   1.007  0.2173  0.0064 -0.0932
25926W        W41735   5.460   4.655   5.029 -0.0025 -0.0921  0.1594
25927W        W41736  17.258  14.435  11.138  0.0318 -0.0541  0.1452
25928W        W41737   2.712   2.455   2.362 -0.3336  0.3300 -0.1050
25929W        W41738   0.796   0.369   2.328  0.0410 -0.3730 -0.5187
25930W        W41739   1.163   1.121   0.534  0.1934  0.1984  0.1805
25931W        W41740   9.861  15.877  10.695  0.0512  0.0238 -0.3743
25932W        W41741  14.135  13.419   2.565  0.0503 -0.2559  0.1033
25933W        W41742   2.492   6.175  15.013 -0.2717  0.1485  0.1098
25934W        W41743  18.915   6.932   9.974 -0.0906 -0.1669  0.1043
25935W        W41744   0.201   2.046   9.910  0.4964 -0.4413 -0.0608
25936W        W41745   5.045   4.430   1.480 -0.5918  0.0094  0.0084
25937W        W41746  18.638   9.081  14.741 -0.0729  0.3830  0.4156
25938W        W41747   4.702   7.000   4.360  0.0012  0.1739  0.3342
25939W        W41748   4.688  18.166   0.013 -0.0549  0.0241  0.0282
25940W        W41749  12.339  11.179   3.071  0.4847 -0.1442 -0.1017
25941W        W41750   4.511   0.999   1.938  0.0397  0.1249  0.2570
25942W        W41751  15.048  13.316  13.847  0.0807 -0.1580 -0.0394
25943W        W41752  18.895   8.663   1.637 -0.0036  0.1541  0.1018
25944W        W41753  14.271   3.430   3.191 -0.1566  0.1226  0.0830
25945W        W41754  15.021  12.536   4.942  0.1152 -0.0342  0.2096
25946W        W41755  17.732  13.190   5.157 -0.2817  0.3293 -0.3031
25947W        W41756  13.592   5.791  13.637 -0.1061  0.1106  0.0738
25948W        W41757   3.933   3.832  11.727 -0.2113  0.2188 -0.2405
25949W        W41758   0.041   4.245  11.074  0.0341  0.0421 -0.0879
25950W        W41759  16.665  18.065  11.166 -0.0022 -0.0829  0.0133
25951W        W41760   4.098  10.889   3.867 -0.2053  0.1039  0.2830
25952W        W41761   8.435   5.193  11.265 -0.5011  0.1321 -0.1231
25953W        W41762  12.282   6.106   3.845 -0.0415  0.0096 -0.0982
25954W        W41763   4.100  11.896   2.463  0.0107  0.0896  0.1321
25955W        W41764  18.992  13.300  13.732 -0.0739  0.2443 -0.1716
25956W        W41765  17.964   5.666   4.423  0.0017 -0.1735 -0.0122
25957W        W41766  10.831   9.555  11.834  0.2085 -0.1579  0.1012
25958W        W41767   4.008  18.457  10.247 -0.2294  0.2717 -0.0152
25959W        W41768   6.814  13.907  13.589  0.2849 -0.1938 -0.0384
25960W        W41769   1.935  18.241  11.356  0.0111 -0.2518 -0.0442
25961W        W41770   0.755  12.395  13.898  0.2139  0.0742 -0.0576
25962W        W41771  13.134   8.477  14.153  0.3136  0.0624  0.0805
25963W        W41772  14.946   2.090  10.981 -0.2393  0.4989  0.0000
25964W        W41773  17.177  14.877   1.267 -0.1595  0.0011  0.1639
25965W        W41774  10.807   7.562  13.760  0.1875  0.6276 -0.0990
25966W        W41775  10.703  18.174  11.752  0.1540  0.1369 -0.3410
25967W        W41776   9.542   1.221   0.178  0.4156 -0.0484  0.0849
25968W        W41777  18.822  10.054  13.201 -0.1254 -0.0727 -0.2306
25969W        W41778   8.747   2.822   5.114 -0.2582 -0.2767 -0.0510
25970W        W41779  12.936  11.655   3.651 -0.2372  0.2132  0.1058
25971W        W41780  17.268   1.199  13.422  0.1350 -0.0252 -0.1291
25972W        W41781   0.596  14.887   0.957 -0.2610  0.0820 -0.1790
25973W        W41782   7.671  14.168   0.673 -0.0882  0.1714 -0.0886
25974W        W41783   2.119  18.543  14.688  0.0724  0.2865  0.1931
25975W        W41784   7.211   5.703   3.100  0.0369 -0.1973  0.0608
25976W        W41785  13.946   4.751  12.738  0.2848 -0.0280 -0.0724
25977W        W41786  18.050  16.974  11.783 -0.5574 -0.2140  0.1119
25978W        W41787   1.296   5.569   1.880  0.0354 -0.0216 -0.0877
25979W        W41788   8.301   8.541  11.778  0.1455  0.0374 -0.2038
25980W        W41789  17.008   0.180   1.291  0.1152 -0.1879 -0.0296
25981W        W41790  10.937   1.696   3.720 -0.0505  0.0564  0.0390
25982W        W41791   1.408   2.756   0.111  0.0995 -0.1684 -0.0269
25983W        W41792   6.360   0.473   2.788  0.2037 -0.0882  0.0202
25984W        W41793   0.192   2.542  13.215 -0.0912 -0.1684  0.0930
25985W        W41794   9.815  10.429  11.857  0.2505  0.1400  0.0403
25986W        W41795  17.780   0.298   0.543  0.4666  0.2409  0.1660
25987W        W41796   1.476  11.936  14.385  0.0200 -0.0435 -0.0787
25988W        W41797  13.264   2.249  11.035 -0.0299  0.1086  0.0729
25989W        W41798   4.653   4.651   1.578 -0.0500 -0.3639 -0.1365
25990W        W41799  10.799  17.364  10.995 -0.1795  0.1400 -0.0035
25991W        W41800  18.499   7.218   2.714 -0.0049  0.0952 -0.0046
25992W        W41801  13.434   0.253   3.316  0.0810  0.2110 -0.0090
25993W        W41802  15.197  16.089   5.586 -0.0227 -0.1748  0.2516
25994W        W41803   9.184  17.217   2.484 -0.0986  0.0150  0.0113
25995W        W41804  12.361   4.809   0.464 -0.2346  0.1062 -0.1323
25996W        W41805   7.478  19.051  12.627  0.2135 -0.0007 -0.0694
25997W        W41806   4.051  16.921   2.499 -0.0336  0.2034 -0.2963
25998W        W41807  17.043  14.964   5.114  0.0815 -0.0998  0.0919
25999W        W41808  17.828   2.882  12.876  0.1681  0.1629  0.4180
26000W        W41809   2.661   0.607  12.509  0.0554 -0.0216 -0.2903
26001W        W41810   0.708  17.768  11.235  0.3851  0.0978  0.0321
26002W        W41811   9.848   6.796   0.836 -0.0506 -0.3068  0.1852
26003W        W41812  11.538   6.240   2.305  0.3333 -0.0583  0.0772
26004W        W41813   7.123  16.906   1.790 -0.1316  0.1580  0.2295
26005W        W41814  14.533   5.276  12.947  0.1270 -0.2317  0.0483
26006W        W41815   6.737  14.811  11.407  0.1107  0.2829  0.2177
26007W        W41816  13.173   5.544  12.153 -0.0182  0.2410 -0.0838
26008W        W41817  16.672   8.459   2.921  0.1710  0.1207  0.4334
26009W        W41818  18.241   7.844   5.983  0.1283 -0.0401  0.0825
26010W        W41819   7.532   5.106  13.666  0.2639  0.2056 -0.2228
26011W        W41820  12.904   2.444   2.087  0.0477  0.0537  0.5708
26012W        W41821   6.810  19.093  11.266  0.2337 -0.1823 -0.0846
26013W        W41822  19.092   2.714  11.027 -0.0509  0.0760 -0.3821
26014W        W41823   9.922   3.204  12.177  0.4166  0.2998  0.0458
26015W        W41824   9.679  16.586   3.854 -0.1036 -0.3547  0.0364
26016W        W41825  13.419  14.375  10.507 -0.1016 -0.0186 -0.1874
26017W        W41826   0.409   6.663   1.865 -0.0323 -0.1094  0.1450
26018W        W41827  10.191   6.107   0.099 -0.0370  0.1193 -0.1949
26019W        W41828   1.649   5.175   4.968 -0.0027  0.0344 -0.3727
26020W        W41829  13.449  14.791  13.978 -0.5227 -0.1540  0.0604
26021W        W41830  13.032  14.489   4.052  0.2006 -0.0095  0.0474
26022W        W41831   2.696  10.090   4.617  0.1584 -0.2970 -0.3701
26023W        W41832  16.683   1.959  14.394 -0.1474 -0.2545  0.1815
26024W        W41833   4.592   2.409  13.759  0.1216 -0.1475 -0.1645
26025W        W41834  10.809  18.055  14.530 -0.1240 -0.1056 -0.2425
26026W        W41835   1.475  14.333   0.530  0.1733  0.1616  0.1168
26027W        W41836   4.261  14.785  14.197  0.3046  0.3317  0.0968
26028W        W41837  16.648   1.252   2.773  0.2829  0.1593 -0.3313
26029W        W41838  14.164  12.499   4.950  0.1458 -0.0261  0.2861
26030W        W41839   7.746   9.799   4.422 -0.1820  0.0636 -0.0649
26031W        W41840  14.467   2.775  12.798 -0.2392  0.0100  0.0560
26032W        W41841  16.730   1.136  12.332 -0.2896  0.2646  0.0473
26033W        W41842  10.711   9.571   3.646 -0.0221  0.0512  0.0005
26034W        W41843  11.719   7.622  14.794 -0.0755 -0.2776 -0.2534
26035W        W41844   6.662   9.409   0.950 -0.0553  0.0091 -0.1908
26036W        W41845   2.753   3.472  13.799  0.3250 -0.1374  0.0984
26037W        W41846   1.089   2.399  15.092 -0.0583 -0.2051 -0.0969
26038W        W41847   1.837  15.051   0.076 -0.2833  0.0944 -0.1386
26039W        W41848   7.437   4.142   4.082 -0.1440  0.0247  0.0214
26040W        W41849   7.807   1.228  11.564  0.0395 -0.2416  0.2777
26041W        W41850   7.566  16.094  12.758 -0.1159  0.0045  0.0350
26042W        W41851   3.268  18.395  10.805 -0.3378  0.3878  0.0507
26043W        W41852   6.845  13.904   5.067 -0.2129 -0.2292 -0.1920
26044W        W41853   3.814  10.224  13.506  0.3446 -0.3413 -0.0364
26045W        W41854  17.936  15.924   3.929  0.1414  0.0748 -0.2783
26046W        W41855   4.412   0.553  12.984  0.0211 -0.1331  0.2159
26047W        W41856  12.015   0.627   4.370 -0.0725  0.1517 -0.3028
26048W        W41857  17.526   9.163  12.026 -0.0984 -0.1830  0.1012
26049W        W41858  14.463  15.140   5.017 -0.1270 -0.2540  0.1966
26050W        W41859   7.192  18.999  11.527  0.3794 -0.2149 -0.0706
26051W        W41860  11.422  18.810   0.483  0.0058  0.0932 -0.0435
26052W        W41861  10.904   2.123  10.824 -0.0685 -0.3099 -0.0209
26053W        W41862   1.688   7.784   3.444 -0.2002  0.4699 -0.0388
26054W        W41863   9.890   2.382  15.052  0.2245 -0.2076  0.3457
26055W        W41864   7.917   2.215   0.407  0.0150 -0.2258  0.2024
26056W        W41865  12.731  12.188   3.545  0.0249 -0.0487  0.2411
26057W        W41866  16.131   4.560   0.960  0.1018  0.1606  0.0669
26058W        W41867  12.660  13.443   9.744 -0.0438  0.4553  0.1411
26059W        W41868   9.768   1.426  10.727 -0.2944 -0.1620  0.2325
26060W        W41869   7.317   1.965   4.598 -0.1350  0.0656 -0.0265
26061W        W41870   8.858   6.852   1.955  0.0014 -0.0455  0.1494
26062W        W41871   6.111  13.849   2.720 -0.3021  0.0993 -0.1874
26063W        W41872   6.555  14.447   3.901 -0.2520 -0.0318 -0.3399
26064W        W41873   6.667   8.447  14.606  0.2550 -0.0854  0.4588
26065W        W41874   7.624   0.281  14.368 -0.1972 -0.0672 -0.2427
26066W        W41875  18.190   9.897   5.522  0.3072  0.1320 -0.2151
26067W        W41876  18.161   7.888   3.683  0.1199 -0.1542  0.0216
26068W        W41877  15.958   6.753   1.904 -0.2132  0.1273  0.3852
26069W        W41878   8.212   2.060  12.625 -0.0644  0.2735 -0.2058
26070W        W41879  15.432  14.778   2.081  0.0757 -0.1397  0.3806
26071W        W41880   7.608  16.772  11.253  0.2863 -0.0512 -0.3001
26072W        W41881  12.519  14.780  14.140  0.3353 -0.1021  0.1122
26073W        W41882   9.822  16.873   2.009 -0.1820 -0.3621 -0.1400
26074W        W41883   4.861  15.203   2.254  0.0536 -0.4729 -0.1199
26075W        W41884   8.944   1.475   2.582  0.0230  0.0591  0.0756
26076W        W41885   3.834   2.649   3.130  0.0106  0.0402 -0.1117
26077W        W41886  13.419   9.920   2.823 -0.2098  0.1215  0.0118
26078W        W41887  12.670  10.312  11.696  0.3069  0.3156 -0.1047
26079W        W41888   4.951   1.757   2.433  0.1982 -0.0665 -0.1577
26080W        W41889   0.493   8.053  11.601 -0.1003 -0.0370  0.1015
26081W        W41890   5.668   9.803   2.675  0.2940  0.3742  0.1332
26082W        W41891   9.379  11.576  10.118  0.0567  0.1884 -0.1810
26083W        W41892  10.570   9.003  14.498  0.2011 -0.2210 -0.1996
26084W        W41893  17.151   0.221  14.765 -0.0176  0.5737  0.0155
26085W        W41894  10.770  13.558   0.157  0.0029 -0.1334 -0.0241
26086W        W41895   7.403   2.542   9.529 -0.3713  0.1762  0.0326
26087W        W41896  16.598   8.929  11.712  0.3850  0.3153  0.4178
26088W        W41897   7.258   9.863   4.530 -0.1110  0.0043 -0.1075
26089W        W41898   9.814  10.994  10.750  0.0201 -0.1167  0.0493
26090W        W41899  11.662   7.563   1.588  0.2577  0.3474  0.0903
26091W        W41900  18.096  14.428  12.231 -0.0073 -0.0819 -0.0677
26092W        W41901  14.754  17.747   4.837  0.0376 -0.0057  0.0540
26093W        W41902   5.349  12.549  10.544  0.0567 -0.2541  0.4526
26094W        W41903  10.728  11.255   5.789  0.1131 -0.1887  0.1460
26095W        W41904  10.265   3.031  12.503  0.1491 -0.4796 -0.0361
26096W        W41905   5.227   4.439  13.754 -0.0244  0.0505  0.0277
26097W        W41906  17.953   8.127  10.768  0.1091  0.3697  0.0053
26098W        W41907   1.964   8.936   4.019 -0.3718  0.0246  0.2672
26099W        W41908   5.303   9.389   3.820 -0.0210 -0.0085 -0.1668
26100W        W41909  16.372  16.019  10.798  0.0778 -0.0207  0.0048
26101W        W41910  13.215  19.006   1.551 -0.2344 -0.0462  0.2162
26102W        W41911   2.974  11.536  12.918 -0.0083 -0.3251 -0.0258
26103W        W41912   1.336   5.588  12.636 -0.3273  0.1261 -0.0572
26104W        W41913  14.858  17.232   4.959  0.2483  0.2007 -0.0308
26105W        W41914  11.453   8.201   5.590 -0.0849  0.1306  0.1163
26106W        W41915  16.377   0.458  15.177  0.1945  0.0939 -0.1400
26107W        W41916  11.063   2.992  12.162 -0.1688  0.1580 -0.0102
26108W        W41917   5.853  16.416   3.291 -0.0204  0.1262  0.0271
26109W        W41918  16.592   4.835   1.951  0.1967 -0.0276  0.1615
26110W        W41919   1.383   5.548   0.082 -0.2696 -0.1312 -0.0103
26111W        W41920  16.546  18.711  14.720  0.2887 -0.1385  0.0409
26112W        W41921   2.482  14.340   3.520  0.2799  0.2257 -0.2564
26113W        W41922   1.550   8.427  11.396 -0.0374  0.0536  0.1357
26114W        W41923  13.902   5.552   3.394  0.0398 -0.0120  0.2809
26115W        W41924   1.032  12.585  13.501 -0.0611  0.0423 -0.0425
26116W        W41925  18.873   4.622   5.077  0.1070 -0.0082 -0.1205
26117W        W41926  12.579   1.925   4.101 -0.0441  0.2657  0.0374
26118W        W41927  11.315   3.430   1.353  0.2024  0.2671  0.1177
26119W        W41928   4.805  12.501   2.730  0.0067 -0.1018  0.1254
26120W        W41929   6.686  15.971   5.145  0.1178 -0.1496 -0.0271
26121W        W41930   0.518   9.280  15.192 -0.0129 -0.3370  0.1813
26122W        W41931  12.906  10.467   4.894 -0.0130 -0.2985  0.0799
26123W        W41932  17.813  15.934  14.383 -0.1437 -0.0644 -0.1146
26124W        W41933  15.705  12.406   0.855  0.2168  0.3451  0.1360
26125W        W41934   8.435   8.319   2.244 -0.2948  0.0119  0.1934
26126W        W41935  12.993  12.301   3.042 -0.3732  0.0992  0.2130
26127W        W41936  16.772  18.400  11.499 -0.2764  0.0652  0.0187
26128W        W41937   1.659   4.756  10.822 -0.0181  0.2927 -0.0232
26129W        W41938   3.534  15.123  13.668 -0.0437  0.1413 -0.1403
26130W        W41939  13.925   1.177  13.235 -0.0399  0.1870 -0.2220
26131W        W41940   2.456   9.397  14.701 -0.1479  0.1011 -0.1247
26132W        W41941  12.329   7.126   4.715  0.0702 -0.0440  0.0743
26133W        W41942  16.556   6.044  11.957  0.4029 -0.0191 -0.1692
26134W        W41943  13.017   0.463   1.885 -0.0704  0.1382  0.2185
26135W        W41944  15.230  17.076   5.489 -0.0172 -0.1349  0.0155
26136W        W41945  17.087  15.790  11.909 -0.2440 -0.1372  0.2402
26137W        W41946   2.147  16.338  15.137 -0.0256  0.0475 -0.0508
26138W        W41947  14.530   9.087  12.810  0.2267  0.0100 -0.0436
26139W        W41948   6.823  10.446  13.962  0.2578 -0.0319 -0.5377
26140W        W41949   1.911   4.037  13.342  0.1286 -0.5842  0.3667
26141W        W41950  10.219   3.611  14.889  0.3024 -0.1316  0.0251
26142W        W41951   7.526   3.619   4.067  0.0061 -0.0594 -0.1501
26143W        W41952  17.693   0.248  12.661 -0.1040 -0.0399  0.1701
26144W        W41953   8.320  12.773   4.444 -0.0906 -0.3229 -0.1450
26145W        W41954   9.625  13.657   0.926  0.1088 -0.0138  0.3996
26146W        W41955   7.464   9.244   1.243 -0.2496  0.3266 -0.0866
26147W        W41956  11.651  16.480  10.462  0.0218 -0.1226  0.2976
26148W        W41957   6.573   5.275   2.190  0.2122 -0.0496  0.1098
26149W        W41958  12.653  10.913  13.399  0.2584  0.2032 -0.1366
26150W        W41959   6.815  13.580   3.572  0.0579  0.1059 -0.0364
26151W        W41960   3.199  16.718   3.731 -0.1011  0.0415  0.0239
26152W        W41961  16.349  14.244   2.876 -0.0993  0.1335 -0.1466
26153W        W41962  16.493   8.972  10.757  0.0923 -0.2767  0.0193
26154W        W41963   0.594   1.883  10.385 -0.0249  0.0213 -0.2194
26155W        W41964  10.232  13.633   1.518 -0.1625  0.1071 -0.3497
26156W        W41965   6.634   0.200   3.141  0.1914  0.1468  0.2129
26157W        W41966   4.521   7.960  12.973 -0.0760 -0.1394 -0.1679
26158W        W41967  11.823   1.188   4.242 -0.0777  0.0587  0.0654
26159W        W41968  16.330   8.706  10.362 -0.2517  0.0208  0.0037
26160W        W41969  18.967   5.094  10.546 -0.1823  0.0164 -0.2258
26161W        W41970  18.576   2.312  10.979  0.1399 -0.2133 -0.1839
26162W        W41971  15.474   9.544  11.522  0.1712  0.3659  0.2906
26163W        W41972  18.771   5.710   4.380  0.0299 -0.1091 -0.0567
26164W        W41973  15.711  12.710   3.367 -0.2945  0.2327  0.2792
26165W        W41974   7.359  18.577  14.544  0.0472 -0.0274 -0.1893
26166W        W41975   3.246  12.407   3.801  0.7207  0.1994  0.0231
26167W        W41976  11.128  17.641   3.712 -0.0243 -0.2491 -0.3239
26168W        W41977  12.027   7.557  11.567 -0.1680  0.3214 -0.0711
26169W        W41978   4.643  18.354  14.705 -0.0964 -0.0527 -0.1003
26170W        W41979   2.648   6.084  10.316 -0.1361  0.0418  0.1845
26171W        W41980  15.687  14.363   4.450  0.1105  0.1078 -0.1762
26172W        W41981   0.653   4.064   1.395  0.1258  0.1309  0.3930
26173W        W41982   3.404  12.532  14.561  0.0705 -0.2191 -0.0542
26174W        W41983   6.977  14.082  14.113  0.2942  0.1527  0.0445
26175W        W41984   3.067  14.911   1.148  0.2876  0.3830  0.2283
26176W        W41985   4.282   4.551   2.610  0.2131  0.0174 -0.1469
26177W        W41986   7.471  18.882   1.472 -0.0201  0.2376  0.0253
26178W        W41987  16.957  16.096   5.159  0.4291  0.1392 -0.0685
26179W        W41988   8.775  14.556   1.920  0.0336 -0.0319 -0.0112
26180W        W41989   3.884   5.420   3.588 -0.0283 -0.1678  0.0489
26181W        W41990   5.456   2.278   1.974 -0.1766 -0.0251 -0.1555
26182W        W41991   2.133   8.741   4.758 -0.0980  0.1739 -0.0613
26183W        W41992   6.897  14.999   4.160  0.0034  0.3015  0.1177
26184W        W41993   0.177   2.392  14.191 -0.0725 -0.0229 -0.1407
26185W        W41994  16.374   2.067  11.160 -0.0466 -0.2307  0.0969
26186W        W41995  14.107   1.291  11.186  0.1203  0.2639 -0.2430
26187W        W41996   3.537  13.715   3.826  0.2822 -0.0435  0.1002
26188W        W41997  12.313   1.747   9.691  0.0820  0.2799 -0.1344
26189W        W41998   6.034  16.803  12.567 -0.0537  0.4163 -0.0692
26190W        W41999  12.096  12.404   4.687  0.0575  0.2864  0.1717
26191W        W42000  15.628  13.724  15.075 -0.0006 -0.0301 -0.0163
26192W        W42001  18.924   0.156   1.301 -0.1940  0.0308  0.1984
26193W        W42002   2.233   2.817   1.829  0.2007 -0.0123 -0.1573
26194W        W42003  18.660  15.071   2.673  0.2561 -0.0147 -0.0200
26195W        W42004   2.189   2.042   4.770 -0.0958 -0.2069 -0.0044
26196W        W42005   5.642  17.351  11.139 -0.2441 -0.0847 -0.1851
26197W        W42006  15.344   0.604   2.940 -0.2976 -0.2451  0.3407
26198W        W42007   2.958  14.838   2.506 -0.1747  0.2136  0.2280
26199W        W42008   2.307   9.825   1.261  0.1224 -0.0328 -0.2196
26200W        W42009  13.672   5.541  11.365  0.1191  0.0033 -0.0050
26201W        W42010  14.164   9.271   9.720 -0.2062 -0.0253 -0.2096
26202W        W42011   6.057   9.320   1.539  0.1501 -0.2636  0.3430
26203W        W42012  16.791  16.587   4.082 -0.1652 -0.0616 -0.1388
26204W        W42013  10.496   4.572   1.389 -0.1060 -0.1632  0.0096
26205W        W42014   4.123   1.730   4.390  0.2118  0.2890 -0.4412
26206W        W42015  16.604  15.661   4.953 -0.2801  0.0408  0.0594
26207W        W42016   0.294   7.107  12.827  0.3622  0.1076 -0.2761
26208W        W42017  13.660  17.868   3.810 -0.0758  0.0591 -0.1726
26209W        W42018   8.440   7.803  13.440 -0.2179  0.1612 -0.3410
26210W        W42019   4.490   8.317  12.618  0.0860  0.2496  0.1948
26211W        W42020  13.375   9.759   2.350 -0.3409  0.0553 -0.1815
26212W        W42021  16.254   7.013   3.125 -0.1578  0.3108  0.1768
26213W        W42022  14.794  10.781  12.411 -0.4571 -0.1310  0.0373
26214W        W42023  16.752  13.201  15.061  0.0019 -0.2677 -0.4369
26215W        W42024   6.029   2.820  12.658 -0.1472  0.1203  0.0163
26216W        W42025   9.068   6.291   1.318  0.2142 -0.0515  0.1812
26217W        W42026   2.872  16.074   2.030 -0.4087 -0.4323 -0.0170
26218W        W42027  14.960  11.969   3.380  0.0796 -0.0427  0.1538
26219W        W42028   4.826   0.971  15.027 -0.1794 -0.1100  0.1017
26220W        W42029   4.233  14.500  10.571  0.2550 -0.0720 -0.2796
26221W        W42030  12.888  18.627   1.988 -0.2827  0.2883  0.0900
26222W        W42031   3.452   1.437   4.714 -0.1326  0.1767  0.1969
26223W        W42032  15.945  13.802  14.556  0.1779  0.1215 -0.1091
26224W        W42033   0.146  17.645  15.021  0.1910 -0.0653 -0.4803
26225W        W42034  11.216  13.928   2.026 -0.1603 -0.0294 -0.1329
26226W        W42035  18.356  13.675  14.989 -0.0186  0.0766  0.0687
26227W        W42036  14.765   0.772  11.238  0.1702 -0.1102 -0.3133
26228W        W42037  12.901   4.677   5.459  0.1327  0.1638 -0.1724
26229W        W42038  13.574  16.245   3.267  0.1003 -0.3144 -0.1180
26230W        W42039  16.306   9.930  14.456 -0.0927 -0.0504 -0.0054
26231W        W42040   1.001  18.760  10.424  0.0957 -0.3198  0.1286
26232W        W42041  11.601  15.600  13.146  0.0098  0.0979 -0.2421
26233W        W42042  12.339   7.779   0.984  0.2233  0.2903 -0.1369
26234W        W42043  13.975  12.748  11.096 -0.1135 -0.0089  0.0646
26235W        W42044   1.195   6.653   1.100 -0.1383  0.0682  0.0973
26236W        W42045   2.840  15.720   4.163 -0.0950 -0.0811 -0.0255
26237W        W42046  18.095   8.511  14.898  0.1196 -0.0105 -0.3155
26238W        W42047  11.421   2.352   0.792 -0.2006  0.0023 -0.0562
26239W        W42048   1.126   8.898  12.723 -0.1263 -0.0605  0.1959
26240W        W42049   8.942  15.372  11.964 -0.2238  0.0158  0.3639
26241W        W42050  18.400   1.415   4.842  0.2868 -0.2825 -0.5408
26242W        W42051   4.831   6.895  13.590  0.4471 -0.0294 -0.0055
26243W        W42052  10.276   8.858   3.964  0.1705  0.0406 -0.2819
26244W        W42053  12.665   9.127   4.814  0.3362 -0.1302  0.1842
26245W        W42054  16.812  17.074   0.122  0.4334  0.2607  0.2126
26246W        W42055   3.557   9.622   1.500  0.0961  0.0870  0.3293
26247W        W42056  18.934  12.534  15.203 -0.0701 -0.3398  0.0736
26248W        W42057   3.038   6.995  12.288 -0.3538 -0.0915  0.0159
26249W        W42058   2.512   1.545   1.888  0.0356 -0.1724 -0.0444
26250W        W42059   4.429   5.265   0.388  0.3204 -0.1216 -0.0997
26251W        W42060   8.221   7.328   2.216  0.3262 -0.1025  0.2279
26252W        W42061  14.722   2.342  13.035 -0.0809  0.0334 -0.1775
26253W        W42062  12.222  15.898  12.782 -0.1473 -0.0660  0.3206
26254W        W42063   2.883   3.115   1.597 -0.2464  0.0215  0.1954
26255W        W42064  10.217  10.347   3.978 -0.2657  0.0392  0.0595
26256W        W42065   9.811   1.821   0.110 -0.3345 -0.0839  0.2585
26257W        W42066  15.237   6.583   0.436  0.0377  0.2701 -0.5683
26258W        W42067   9.190  11.539  12.286 -0.3909 -0.0447 -0.1461
26259W        W42068  16.367  15.841   0.409 -0.0373  0.0554 -0.2929
26260W        W42069  15.049  10.345   9.683 -0.1161 -0.0137  0.1330
26261W        W42070   2.460   2.412  15.114  0.2872 -0.2752 -0.3245
26262W        W42071   1.375   1.619   2.862 -0.0414  0.3792  0.4361
26263W        W42072   9.658  12.161  14.583 -0.2178 -0.1802 -0.1425
26264W        W42073  15.078   2.360   5.223 -0.1619 -0.2067 -0.1914
26265W        W42074  17.373   8.483   2.766  0.1380 -0.0148 -0.1370
26266W        W42075   7.050   6.406   2.268  0.2886 -0.1517 -0.1888
26267W        W42076   4.765  15.238   5.401 -0.0193  0.2094 -0.2993
26268W        W42077   4.945   9.721   3.829  0.0398 -0.2544 -0.1147
26269W        W42078   2.491  14.438   2.573 -0.2697  0.2126  0.3454
26270W        W42079  19.092   7.182  13.427 -0.0516 -0.0012 -0.4535
26271W        W42080  16.537   8.918   1.052  0.2388 -0.0395 -0.3280
26272W        W42081  17.346   6.863  12.745  0.1470  0.0968  0.0520
26273W        W42082   0.627   0.799  12.461 -0.1515 -0.1153  0.1695
26274W        W42083  17.303  17.723   3.539 -0.0696 -0.0658 -0.1009
26275W        W42084   3.737   2.830   3.659  0.1157  0.0971  0.0100
26276W        W42085   5.180   5.115  12.526  0.3675 -0.2246 -0.2673
26277W        W42086  17.028   2.428  12.517  0.4700  0.2936  0.1491
26278W        W42087  10.043   0.391   1.633  0.1046 -0.1535  0.3007
26279W        W42088  16.249   2.717  11.790 -0.0334  0.0168  0.1461
26280W        W42089   8.722   3.738   0.362  0.1205  0.1227  0.2857
26281W        W42090  10.191   1.285  12.946 -0.1800  0.1760  0.1226
26282W        W42091   5.311  17.200   4.912 -0.0185  0.2035 -0.1888
26283W        W42092   8.239   4.338  14.979  0.4410  0.0530  0.1672
26284W        W42093   6.111   1.416   0.665 -0.1987 -0.3379  0.3068
26285W        W42094   6.671   8.463   4.657  0.0371  0.1695 -0.1413
26286W        W42095  13.338   2.401  14.848 -0.1023  0.0774 -0.1141
26287W        W42096  15.540  13.978  12.729 -0.0110 -0.1705 -0.0685
26288W        W42097   3.341   6.981   2.956  0.3889  0.1268  0.1481
26289W        W42098   0.684  16.961   0.499  0.0032  0.4873 -0.0042
26290W        W42099  18.896  15.088  13.589  0.1198 -0.1392  0.2411
26291W        W42100  17.881  17.423   2.744 -0.0886  0.0441  0.3431
26292W        W42101  10.552  10.010  13.890 -0.2263  0.0250 -0.3392
26293W        W42102   4.768   8.896  13.943  0.0632 -0.2597 -0.0671
26294W        W42103   8.289  12.768  15.056 -0.3165  0.1143 -0.0270
26295W        W42104   7.438   6.509   3.611 -0.0673  0.0822 -0.1498
26296W        W42105  10.678   8.745   3.630  0.1940 -0.0854 -0.1386
26297W        W42106   3.847  17.533  11.815  0.2039  0.0465 -0.4207
26298W        W42107   3.793  13.623  14.669 -0.0106 -0.2638 -0.0191
26299W        W42108   1.073   0.736   4.828 -0.0809  0.2391 -0.2456
26300W        W42109   4.066  13.015   2.382  0.1048 -0.0071  0.1661
26301W        W42110  13.360  17.478   4.057  0.2685  0.0708  0.0347
26302W        W42111   6.441  10.199  14.980  0.0481 -0.1629  0.3138
26303W        W42112   7.905  12.889  14.589  0.0086 -0.1469 -0.1510
26304W        W42113   7.249  11.807   3.425  0.0402  0.0840 -0.0145
26305W        W42114  17.328  17.230   1.181 -0.0304 -0.3244 -0.1148
26306W        W42115   1.089  18.582   0.478  0.1752 -0.2935  0.0198
26307W        W42116  17.286   7.535   4.291 -0.2225 -0.0255  0.2627
26308W        W42117  10.145  18.833   2.875  0.2900 -0.0559 -0.1076
26309W        W42118   0.935  15.278  12.308  0.0048 -0.3757  0.1020
26310W        W42119   0.200   8.325   2.429 -0.0630  0.0846 -0.0831
26311W        W42120  18.663   9.826   5.009  0.1935 -0.1192  0.0452
26312W        W42121   3.340  10.519   3.282 -0.0431  0.0537 -0.3792
26313W        W42122   3.681   3.827  14.816  0.1181  0.3537  0.2685
26314W        W42123   7.176   1.375   4.035 -0.1502 -0.0845  0.1183
26315W        W42124   9.854  15.849   1.271 -0.2625  0.1344  0.3069
26316W        W42125  10.581  10.686   1.853  0.0303  0.0110  0.2316
26317W        W42126  12.167  11.441   1.821  0.1876 -0.2461  0.0043
26318W        W42127   9.784  10.391   0.005  0.1599  0.0944  0.0882
26319W        W42128   2.040  11.618  13.223 -0.1598 -0.0691  0.3092
26320W        W42129   1.147  13.472  14.146 -0.4834 -0.2187  0.0055
26321W        W42130  11.126   3.924  10.051 -0.0318 -0.1059  0.0423
26322W        W42131   8.150  18.284  12.510  0.4177 -0.1848  0.0498
26323W        W42132  17.778   4.864  15.082 -0.0436  0.0630  0.2018
26324W        W42133   6.341  14.275   5.693 -0.2026 -0.2220  0.0572
26325W        W42134   7.765   2.217   1.227 -0.1843 -0.0664 -0.1420
26326W        W42135  14.119  10.341   5.497  0.2480 -0.3040 -0.0726
26327W        W42136  10.696   8.226   4.972 -0.1629 -0.1428  0.0373
26328W        W42137  14.066   5.856  11.675  0.0119 -0.3273 -0.2194
26329W        W42138   3.801   9.069  11.500 -0.1950 -0.4605 -0.0799
26330W        W42139  11.759  16.689  13.128 -0.2055 -0.1610  0.0938
26331W        W42140   0.912   3.940  11.000 -0.3548  0.5989  0.3899
26332W        W42141   8.259  12.216  10.709  0.2625 -0.0790 -0.1297
26333W        W42142   7.777  16.129   1.314  0.1624  0.3112  0.2833
26334W        W42143   1.925   3.952   1.768 -0.0185  0.0417  0.3658
26335W        W42144  11.826   2.244  10.501  0.0913  0.2716 -0.0697
26336W        W42145   4.602  15.733   5.523  0.0374  0.2034 -0.0097
26337W        W42146  14.586   4.728   1.557  0.1240 -0.0137  0.2608
26338W        W42147   3.715   7.032   4.177 -0.5965 -0.2797 -0.0662
26339W        W42148   4.670  16.813  14.405 -0.0651 -0.0524  0.0921
26340W        W42149   4.451   8.962  11.058 -0.0445 -0.0917 -0.3105
26341W        W42150  10.867  13.959   2.407 -0.1145 -0.2245  0.1813
26342W        W42151  16.489  13.429   2.647  0.0261 -0.0739 -0.1124
26343W        W42152   7.462  14.784   4.225  0.1176 -0.0660  0.1667
26344W        W42153   6.355  12.207   4.130 -0.2417 -0.0199 -0.0535
26345W        W42154  17.567   6.266  12.415  0.3308  0.2939 -0.0525
26346W        W42155  15.275  12.565   2.897 -0.0690 -0.3312  0.1400
26347W        W42156   6.545  18.380   4.515  0.1088  0.0109 -0.0646
26348W        W42157   2.943   5.167   4.618  0.3959 -0.0805 -0.2784
26349W        W42158  10.709  17.072  15.054 -0.1009 -0.1119  0.0268
26350W        W42159  15.889  16.526   0.002 -0.1985 -0.0916 -0.0162
26351W        W42160  17.627  17.271  11.692 -0.0425 -0.0280  0.3381
26352W        W42161  10.296   5.197  13.977 -0.3121 -0.0096 -0.3900
26353W        W42162  11.785  18.744   9.824 -0.1847  0.2031 -0.0191
26354W        W42163  18.885   6.169   2.343  0.1846 -0.0291  0.1481
26355W        W42164  16.753   1.414   0.116  0.2536  0.2343 -0.3358
26356W        W42165  16.664  19.037   2.125 -0.2330 -0.2034 -0.0145
26357W        W42166  17.911  11.789   2.794 -0.0718 -0.0600 -0.1842
26358W        W42167   9.384   1.311   3.301  0.0679 -0.1439 -0.1442
26359W        W42168  10.015  16.771  12.387  0.1863  0.2159  0.1667
26360W        W42169  18.324   3.639  10.944 -0.0632  0.1843  0.0033
26361W        W42170   7.646   4.519   4.788 -0.0976  0.2928  0.2126
26362W        W42171  18.021  11.663  11.885 -0.1206  0.1258 -0.1976
26363W        W42172  18.115  14.962   3.513 -0.0342  0.0874  0.0390
26364W        W42173   3.235   1.106   1.611  0.1871 -0.1211 -0.2281
26365W        W42174  13.945   5.219  13.669 -0.1570 -0.1743  0.0581
26366W        W42175   2.582  18.270  13.932 -0.0637 -0.2954 -0.1009
26367W        W42176   8.163   9.038   5.217  0.2445 -0.2713  0.2067
26368W        W42177   6.755  17.871   1.714  0.2852 -0.1133  0.1978
26369W        W42178  15.851   8.155  14.164  0.1714  0.1649 -0.2229
26370W        W42179  14.163  15.860   0.014 -0.2358  0.0639 -0.1615
26371W        W42180   6.796  11.857   3.231 -0.3475  0.1240 -0.4898
26372W        W42181   3.927   1.236  12.510 -0.2846 -0.3131 -0.1317
26373W        W42182  11.586  18.444  13.602  0.1897 -0.2210  0.2667
26374W        W42183  13.962   8.046   2.407 -0.4268 -0.2082 -0.1595
26375W        W42184  18.431   3.058  11.885  0.1520  0.0553 -0.1882
26376W        W42185   9.512   7.386  12.936 -0.0580 -0.0990 -0.2133
26377W        W42186  11.141  15.966  11.399 -0.2259  0.0765  0.0374
26378W        W42187  12.666  17.219   4.181  0.3654  0.2032 -0.2100
26379W        W42188   1.219   7.742   5.435 -0.0215  0.0421  0.0209
26380W        W42189  17.173   6.284   3.331  0.1699 -0.1955 -0.3264
26381W        W42190  16.584  18.873   0.431 -0.1884  0.0509 -0.1356
26382W        W42191   1.377   9.414   1.585 -0.1858  0.1777 -0.0639
26383W        W42192   1.976   3.235   1.543  0.1195  0.1018  0.2389
26384W        W42193   5.805  13.217  12.903 -0.2193 -0.2560 -0.0206
26385W        W42194   7.919  14.528   3.206  0.0078  0.0961  0.1440
26386W        W42195  11.325   7.706  13.404  0.1936  0.0764  0.0968
26387W        W42196  17.548  17.614   2.450 -0.0526  0.2705  0.1195
26388W        W42197  11.533  12.392   1.084  0.1634 -0.0779  0.0852
26389W        W42198   0.515  15.483  13.143 -0.1967  0.5740  0.0168
26390W        W42199   6.348  16.748  11.418 -0.1093  0.1233  0.3094
26391W        W42200  17.873   4.815  12.903 -0.2534 -0.2284 -0.0503
26392W        W42201  13.150  15.967   1.976 -0.3944 -0.0862  0.1822
26393W        W42202   2.105   8.240  13.464 -0.2006  0.2221 -0.2253
26394W        W42203   4.697   9.492  13.852 -0.0990 -0.2352 -0.0475
26395W        W42204  12.122  17.116   3.199  0.3847 -0.3356  0.1821
26396W        W42205   5.647   5.445  11.084 -0.3459 -0.0646 -0.0167
26397W        W42206  10.933   2.016   2.527  0.1333 -0.3328  0.0324
26398W        W42207   8.511   5.792   1.757  0.0273 -0.0248 -0.3385
26399W        W42208   8.230   9.450   4.012 -0.0723 -0.0650  0.1823
26400W        W42209  19.008   9.410   1.679  0.2491  0.1308  0.0556
26401W        W42210  11.612   5.669   3.328  0.1026 -0.2350  0.2613
26402W        W42211   5.426  11.812  13.033 -0.2171 -0.3161 -0.2057
26403W        W42212  17.152  16.661   0.114  0.1620 -0.1085  0.1056
26404W        W42213   2.920  17.449   0.073  0.2106 -0.0312  0.4763
26405W        W42214  10.450   7.403   9.845 -0.5340  0.1076  0.1796
26406W        W42215   1.055   6.463   3.468  0.0490  0.1057 -0.0785
26407W        W42216  11.164   5.637   1.966 -0.0501 -0.0199 -0.0703
26408W        W42217  10.365   8.352  12.712 -0.0129 -0.3023 -0.2865
26409W        W42218   3.855   5.890   3.683  0.1754 -0.2221  0.1177
26410W        W42219   5.428   4.088   3.033 -0.1082 -0.1510 -0.1574
26411W        W42220   1.401   3.389   0.831 -0.2205 -0.2441 -0.1162
26412W        W42221  10.796  18.484   1.114 -0.0299  0.0706  0.0395
26413W        W42222   7.703  15.557  15.198  0.0170  0.0147 -0.0785
26414W        W42223  13.143   3.953   3.338  0.1137  0.2201  0.0806
26415W        W42224   6.971  12.630   1.652  0.2189 -0.2907  0.1446
26416W        W42225  16.769  15.719   3.827  0.2312  0.3111 -0.1034
26417W        W42226  10.548  10.759  10.219  0.0334 -0.4003 -0.1316
26418W        W42227   4.729   5.644   3.923 -0.4257 -0.2752  0.0466
26419W        W42228   3.504  12.577   4.230 -0.4624 -0.0924 -0.2584
26420W        W42229  18.570  18.934  11.625  0.0765  0.1189  0.1984
26421W        W42230  17.792   5.934  10.236 -0.0043  0.0300  0.1471
26422W        W42231  11.028   9.032  14.838 -0.1241  0.0505 -0.3756
26423W        W42232   3.530   8.689   0.430 -0.3501 -0.0767 -0.0733
26424W        W42233   7.249   8.946   4.120 -0.0401  0.1156 -0.0156
26425W        W42234  11.983   3.407   3.635 -0.0529 -0.1779  0.2452
26426W        W42235   4.365   1.338   9.928  0.0014  0.0220  0.0077
26427W        W42236  11.497  15.489   0.368 -0.0040 -0.6630 -0.1010
26428W        W42237   0.685  16.967   1.389  0.0778 -0.0710  0.0504
26429W        W42238   9.231  16.962  14.107 -0.2226 -0.0686 -0.0448
26430W        W42239  10.569   5.785   1.845 -0.1840 -0.3742  0.0024
26431W        W42240  14.294   9.035   1.402 -0.0880  0.2289  0.1206
26432W        W42241  18.905   2.199   3.516  0.1968 -0.1800  0.2363
26433W        W42242   4.250   7.115   4.205 -0.1555  0.1377  0.1866
26434W        W42243   7.500   9.939  13.679  0.2433  0.1461  0.1598
26435W        W42244  15.945   8.701  12.995 -0.0092  0.2683  0.1625
26436W        W42245   4.788  10.354  11.051 -0.1864  0.0666 -0.2565
26437W        W42246   1.452  12.485   2.882 -0.1220  0.1651  0.1792
26438W        W42247  18.783   9.467  14.982  0.0554 -0.2085 -0.1284
26439W        W42248   2.172  15.145   2.099  0.1031  0.0649 -0.3105
26440W        W42249  18.146  15.675  10.975 -0.0900 -0.1128  0.1286
26441W        W42250  15.440   9.770   5.365  0.0337  0.3100 -0.0966
26442W        W42251  15.166  13.598  12.628 -0.0441  0.0160 -0.0158
26443W        W42252  14.571  16.676  11.222  0.1172  0.1483  0.0401
26444W        W42253  17.530  17.820   1.096  0.0500  0.0078  0.2176
26445W        W42254   7.726   7.581  14.055  0.1049 -0.4131  0.0676
26446W        W42255  12.765  10.167  12.800 -0.1656  0.0118 -0.0554
26447W        W42256  18.812  15.612  13.597  0.2573 -0.0231  0.0831
26448W        W42257   8.935   7.520  14.233 -0.1712 -0.1806  0.0246
26449W        W42258   3.901   2.134   1.075  0.0151 -0.1214 -0.1461
26450W        W42259  13.216  12.214  12.270 -0.2562 -0.0778 -0.3166
26451W        W42260  17.946  12.313   4.840 -0.0784 -0.0642 -0.1247
26452W        W42261   8.886  17.984  10.964  0.1148  0.1786  0.0113
26453W        W42262   5.055  13.350  11.446  0.3810 -0.0325  0.0178
26454W        W42263  19.017   1.434   1.868  0.2582  0.1147  0.3155
26455W        W42264   9.043   8.910  11.028  0.1456  0.2224 -0.0795
26456W        W42265  16.947   0.714   3.835 -0.1555 -0.0658 -0.0491
26457W        W42266   8.351  11.255   0.780  0.0503 -0.2077 -0.0004
26458W        W42267  18.650  18.360  12.371  0.1175  0.0102 -0.4726
26459W        W42268  18.645   2.049   0.161  0.2717 -0.1919 -0.1758
26460W        W42269  17.662   3.544  14.979 -0.2593  0.3263  0.0941
26461W        W42270  11.045   0.903  11.499 -0.3943  0.1544  0.1447
26462W        W42271   8.412   6.535  10.907  0.1645  0.3903 -0.1271
26463W        W42272  17.014   2.722   1.126  0.2542 -0.1621 -0.2236
26464W        W42273   4.759  16.767  14.990 -0.0290  0.1901 -0.2476
26465W        W42274   2.315   5.968   4.072  0.1387 -0.4810 -0.1623
26466W        W42275   0.431   3.971   9.740 -0.1867  0.5030  0.1690
26467W        W42276   0.812   6.529  13.550  0.1422  0.4140 -0.2099
26468W        W42277   7.232  13.778   4.182  0.2006 -0.1095  0.0396
26469W        W42278  16.092  12.528  11.608 -0.1248  0.1168  0.4028
26470W        W42279  14.540  17.724   4.396 -0.2477  0.0475  0.1394
26471W        W42280   9.442   5.883   0.987  0.2565  0.0706  0.0167
26472W        W42281   3.896   5.605  13.941 -0.0678  0.1868 -0.0098
26473W        W42282   4.871  10.544   0.304 -0.0550 -0.1947 -0.1896
26474W        W42283  18.401   0.103   1.532 -0.2501  0.2120  0.3466
26475W        W42284  12.975   7.043   3.207 -0.3429  0.0537  0.1253
26476W        W42285  14.761  12.436   4.230  0.4079 -0.2340 -0.1928
26477W        W42286   8.033  17.738  12.424 -0.0990 -0.2067  0.2863
26478W        W42287   7.879  14.313   1.798 -0.1434  0.0926 -0.0322
26479W        W42288   6.287   7.885   2.699  0.0247  0.0540 -0.0075
26480W        W42289   8.457  18.569   1.249 -0.1613 -0.2218  0.0040
26481W        W42290   7.382  12.109   0.846  0.2880  0.2401 -0.4136
26482W        W42291   2.026  13.770   4.024  0.1451 -0.0058 -0.1293
26483W        W42292   4.734   2.294   1.715  0.0683  0.1203  0.0043
26484W        W42293   8.910   3.149  11.350 -0.2413 -0.0898 -0.3302
26485W        W42294   9.218   5.679  12.396 -0.1024  0.2454  0.2314
26486W        W42295  18.665   8.716   4.190 -0.3352  0.1434  0.0918
26487W        W42296   2.493  17.792  13.680  0.0173  0.1299 -0.1547
26488W        W42297  17.994  16.646  11.042  0.1782  0.1269 -0.0988
26489W        W42298   1.052   7.263   0.371  0.1855  0.1482 -0.2806
26490W        W42299   4.398  16.085   9.918  0.3897  0.2693 -0.0492
26491W        W42300  17.365   8.147  15.158  0.0001 -0.0127 -0.2849
26492W        W42301   2.027  17.376  11.097 -0.1490  0.1519 -0.0909
26493W        W42302  13.979   2.734  11.265 -0.3253 -0.2814 -0.2335
26494W        W42303  14.972   6.151   3.536  0.2145 -0.0913  0.2809
26495W        W42304  18.101  15.671  13.917 -0.4544  0.2964  0.0455
26496W        W42305   3.368   5.082   4.202  0.2851 -0.0419 -0.0716
26497W        W42306  12.206   0.245  10.390 -0.2496  0.3601  0.1945
26498W        W42307  19.111  13.545   1.255 -0.0856  0.0552  0.1057
26499W        W42308   6.922  19.107  12.083  0.3094 -0.5980  0.1363
26500W        W42309   3.135   5.657  14.606  0.1640  0.2310 -0.4829
26501W        W42310  18.870   0.658  11.270  0.0483 -0.3600 -0.0903
26502W        W42311   8.322  11.543  13.535  0.3659 -0.1072  0.4179
26503W        W42312   8.213  14.454   0.900 -0.3746  0.1081 -0.1930
26504W        W42313   2.806  11.741   6.129 -0.0289  0.0029  0.1114
26505W        W42314   7.474   9.380  11.550  0.0076 -0.0085  0.3339
26506W        W42315  14.266   8.563   5.010  0.0667  0.0237 -0.1656
26507W        W42316  15.738   3.126  13.072 -0.0914  0.3293 -0.1369
26508W        W42317   3.188   0.251  13.880  0.1973 -0.0476 -0.2657
26509W        W42318   8.307  12.505   2.972 -0.1927  0.0631 -0.1062
26510W        W42319   1.152   2.363   4.601  0.0630 -0.1288 -0.0532
26511W        W42320   1.598  18.705  13.212 -0.0427  0.0179  0.3448
26512W        W42321   2.462   4.651   0.745 -0.0326 -0.1826  0.3395
26513W        W42322  10.058   3.972  15.185  0.0289 -0.2506 -0.0754
26514W        W42323   5.112  13.030   0.935 -0.0693 -0.1544 -0.2079
26515W        W42324   6.391   8.377   0.907 -0.2621 -0.1321  0.0533
26516W        W42325  15.975   0.184   2.438  0.0245 -0.3763 -0.0939
26517W        W42326  15.687   0.602  13.933  0.1439  0.0728 -0.0137
26518W        W42327   0.505   6.386  15.037 -0.0634 -0.2059 -0.0242
26519W        W42328   7.556   5.978   3.320 -0.1133  0.4583 -0.2430
26520W        W42329   8.520   1.331   0.383  0.0363  0.1708  0.2110
26521W        W42330  11.148  14.552   4.603  0.3075 -0.4077  0.0278
26522W        W42331   8.259   1.347   4.011 -0.1439  0.5533 -0.2899
26523W        W42332   3.411  14.115   1.249  0.2750  0.1268  0.2648
26524W        W42333   6.439   8.945   1.811 -0.0253 -0.0186  0.2355
26525W        W42334  17.072   9.100  13.925  0.0268  0.2213 -0.2704
26526W        W42335   6.348   9.718  15.042  0.1593  0.1133 -0.0525
26527W        W42336  12.130   7.066   1.260  0.1686 -0.1736  0.0765
26528W        W42337   8.168  14.865   3.575  0.2910 -0.2269  0.0126
26529W        W42338   5.001  13.788   9.243 -0.3272 -0.0593 -0.0218
26530W        W42339  18.397  10.055   2.109 -0.1094  0.0891  0.2301
26531W        W42340  11.224  14.277   3.044 -0.2004 -0.1991 -0.3072
26532W        W42341  14.422   8.446   3.181  0.2598 -0.1448  0.1752
26533W        W42342   4.888  15.699   0.496 -0.0030  0.1712 -0.1895
26534W        W42343   0.303   3.684   2.996 -0.1156 -0.2007  0.0328
26535W        W42344  15.820   9.959  13.297 -0.1381  0.1312 -0.0255
26536W        W42345  15.538   5.842   1.143 -0.0042 -0.0309  0.1355
26537W        W42346   8.235  19.042   1.908  0.0625  0.1866  0.1870
26538W        W42347  13.443  18.984  15.121 -0.0802 -0.1741  0.0636
26539W        W42348  10.293   1.230  10.291  0.0098  0.1077 -0.1402
26540W        W42349   2.802   1.608  13.539  0.0109  0.1297 -0.3049
26541W        W42350  15.807   2.471   0.681  0.0598 -0.1349  0.1889
26542W        W42351   2.478   5.458  14.402 -0.0165 -0.0973 -0.1928
26543W        W42352  13.208   8.743  13.676 -0.2192 -0.0021 -0.4695
26544W        W42353  10.053  15.657   2.760  0.3457 -0.1314  0.0622
26545W        W42354  14.716   8.104  10.095  0.0971  0.1456 -0.5358
26546W        W42355   6.998   7.436  11.771 -0.2884 -0.1787  0.1565
26547W        W42356   3.298   4.907   2.970  0.0613  0.1703  0.6964
26548W        W42357   6.586   7.007  11.560  0.0040 -0.0773 -0.0063
26549W        W42358   1.114   3.421  13.826  0.0885  0.0826  0.0868
26550W        W42359  11.381   3.786  11.803 -0.0424  0.0926  0.1407
26551W        W42360   7.435  18.189  14.996  0.0563  0.1381 -0.0107
26552W        W42361  16.050  17.052   0.852 -0.3865 -0.1765 -0.2263
26553W        W42362  15.051  11.383   3.864  0.1340  0.2675 -0.2576
26554W        W42363  15.814  10.036   0.950  0.2011 -0.1092 -0.2118
26555W        W42364  15.478  11.655  15.179  0.0100 -0.0097  0.2031
26556W        W42365  12.037   1.714  12.602 -0.0075  0.4405  0.0063
26557W        W42366   4.984   6.013  13.715  0.3686  0.0907 -0.2820
26558W        W42367  15.410  11.703   2.565 -0.0892 -0.2774 -0.2340
26559W        W42368   2.791   5.801   4.007  0.0997 -0.2402 -0.1337
26560W        W42369  18.044   1.008   4.429  0.1313 -0.1601  0.2537
26561W        W42370   5.586  14.497   4.698  0.0080  0.1935 -0.0771
26562W        W42371   2.446  11.678   5.482  0.4419  0.0642 -0.0009
26563W        W42372   7.446   9.542  12.920  0.1589  0.3752  0.0117
26564W        W42373   1.231   2.062   4.277 -0.0031 -0.1838  0.0027
26565W        W42374   9.446   1.053   9.771 -0.0783 -0.2810 -0.1075
26566W        W42375  16.978  15.829  12.467  0.0618  0.2348 -0.1869
26567W        W42376   4.186  11.633   4.493  0.0121 -0.0675  0.1104
26568W        W42377  15.015  17.819  14.063  0.0616 -0.0733 -0.0373
26569W        W42378   5.249  15.320   9.494 -0.2421  0.1185  0.0970
26570W        W42379   5.126  14.434  11.016 -0.2286 -0.1556  0.1299
26571W        W42380   2.807  18.516   3.447 -0.1226 -0.0589  0.0482
26572W        W42381  16.513  12.655   0.062  0.1132  0.1663 -0.0275
26573W        W42382  16.041   0.109  11.983 -0.0106  0.0238 -0.2850
26574W        W42383   5.685   6.482   1.968  0.4080 -0.1104 -0.1582
26575W        W42384   8.878  11.619  10.809  0.3499 -0.3327  0.0304
26576W        W42385  16.373   3.443   2.394 -0.1652 -0.3565 -0.1916
26577W        W42386   7.112  19.066   1.175  0.0971  0.0345 -0.1116
26578W        W42387  17.667  10.986   2.728  0.1789  0.1791  0.1557
26579W        W42388  18.552   5.513   1.143 -0.6221  0.3667 -0.1502
26580W        W42389   0.741   2.674  13.583  0.1782 -0.2225 -0.0647
26581W        W42390  13.893   6.856   3.225  0.0453 -0.0336 -0.0199
26582W        W42391  18.696   9.961  13.709  0.1445 -0.1312  0.1568
26583W        W42392   1.168   8.011  14.986  0.2468 -0.0162 -0.1512
26584W        W42393  14.914  18.746  14.645 -0.1794  0.3350 -0.0037
26585W        W42394  13.227  11.191  11.650  0.2149  0.3947  0.0828
26586W        W42395   7.462   3.051   3.648 -0.1067  0.2759  0.0860
26587W        W42396   9.842  16.405  11.517 -0.0004 -0.0137 -0.2880
26588W        W42397   8.826  10.517  14.941 -0.2006 -0.1694 -0.0237
26589W        W42398   1.616  18.528   4.683 -0.1608  0.0357  0.0817
26590W        W42399  13.757   9.852  13.736  0.0560 -0.1285  0.2100
26591W        W42400  14.586   9.501   2.924  0.4110 -0.1062 -0.0341
26592W        W42401  17.653   4.457   4.863 -0.1924 -0.0513 -0.0745
26593W        W42402   3.616  17.087  12.744 -0.1640  0.0093 -0.0701
26594W        W42403   4.677  15.438   4.418  0.0037 -0.3292  0.2501
26595W        W42404   5.709  13.900   0.984 -0.1263 -0.1655  0.1212
26596W        W42405  14.345   3.212   0.270 -0.0186 -0.0621  0.1821
26597W        W42406   0.079   9.603   1.201 -0.2800 -0.0108 -0.1399
26598W        W42407  11.212  13.920  12.287  0.1725 -0.1274  0.1948
26599W        W42408  11.101   0.473  14.050  0.0350 -0.0160 -0.5044
26600W        W42409  16.993  14.176   4.159 -0.1942 -0.3698  0.0752
26601W        W42410   7.882  13.776   3.516 -0.0301  0.1036 -0.0161
26602W        W42411   0.676  14.006  14.884  0.0365  0.2014 -0.0536
26603W        W42412   6.381   7.670  11.694 -0.1963  0.0317 -0.0444
26604W        W42413  15.580   8.479  12.489  0.2769  0.2772  0.1419
26605W        W42414   8.004   6.896  10.896 -0.1373  0.0528  0.3478
26606W        W42415   2.578   6.583   4.880 -0.1440  0.1641  0.5225
26607W        W42416  13.147  16.780  12.462  0.0702  0.0178  0.2842
26608W        W42417   2.049  15.958   3.413  0.0096  0.3949  0.0535
26609W        W42418   4.492   2.161   4.631  0.1869 -0.0138 -0.1455
26610W        W42419   0.434   1.786   0.746 -0.3348  0.0939  0.4211
26611W        W42420   1.304  15.928  14.786 -0.2875  0.2004 -0.0505
26612W        W42421   7.952  15.904  12.073 -0.3956  0.3430  0.1300
26613W        W42422  13.099   9.725  14.997  0.0044 -0.0865 -0.2439
26614W        W42423   6.866   5.400  10.663 -0.1495  0.2438  0.0802
26615W        W42424   4.164  18.233   3.362  0.1046  0.1643 -0.0106
26616W        W42425  13.630  18.227   1.097  0.0283  0.3131  0.0754
26617W        W42426  18.369  12.491   3.115  0.0660  0.1716  0.2045
26618W        W42427  12.486   9.789   2.045 -0.0402  0.4213 -0.2568
26619W        W42428   9.284  10.666   5.090  0.1849  0.5345 -0.0961
26620W        W42429  10.989  11.778  14.551 -0.2893 -0.0219 -0.0660
26621W        W42430  11.280   5.882   5.661  0.2393  0.0238 -0.1251
26622W        W42431   5.822   5.175   3.655 -0.1709 -0.3372  0.0862
26623W        W42432   9.195   2.701   0.527  0.2392 -0.3008  0.0673
26624W        W42433   7.166  11.052   1.486 -0.0607 -0.0682 -0.1151
26625W        W42434  13.296   0.783   2.245 -0.3425  0.1004  0.0448
26626W        W42435   7.032  14.008   3.409 -0.1261 -0.1408 -0.0147
26627W        W42436  13.819  18.357   2.292 -0.2211  0.0302 -0.0061
26628W        W42437  14.963  10.845  10.709 -0.1563 -0.1548 -0.0672
26629W        W42438   3.302   9.293  12.874 -0.0067  0.3049 -0.4712
26630W        W42439   7.263  17.774  12.183  0.0447 -0.3032  0.0353
26631W        W42440   1.546  15.287   3.753 -0.2413  0.0556 -0.1892
26632W        W42441  18.548  16.676   0.002 -0.2824  0.0312 -0.0705
26633W        W42442   4.921  11.616  13.748  0.0589  0.3958 -0.0405
26634W        W42443   0.978  11.638   3.783 -0.2639 -0.3638  0.3139
26635W        W42444   8.563   2.241  13.975 -0.1074 -0.1312 -0.0072
26636W        W42445  15.472   1.016   0.792 -0.0567 -0.3256 -0.0087
26637W        W42446  18.658   4.760  12.663 -0.4728 -0.0502  0.1855
26638W        W42447  16.158   5.493   4.682  0.0960  0.0074  0.3366
26639W        W42448  17.435   7.622  12.033 -0.2402  0.0625 -0.0767
26640W        W42449  12.283  13.371   0.115  0.0941  0.2723 -0.0721
26641W        W42450  10.928  10.223  14.936 -0.0912  0.2356 -0.0007
26642W        W42451   8.124   8.988   0.368  0.0473  0.2313  0.1926
26643W        W42452   0.745   8.503  12.923  0.2335 -0.0415  0.1765
26644W        W42453   2.788   6.824   4.115  0.0125  0.0563  0.0412
26645W        W42454  17.983   0.103   0.927  0.0357 -0.0832 -0.1147
26646W        W42455  14.612   9.349   4.945 -0.0895  0.3855  0.1583
26647W        W42456  18.882   0.228   3.602  0.0246 -0.2785  0.3013
26648W        W42457   7.781  18.985  12.059  0.0836 -0.2289  0.1364
26649W        W42458  13.665   1.393  10.940 -0.1967 -0.0348 -0.1045
26650W        W42459   1.562   8.021   4.598  0.0717  0.0141 -0.0319
26651W        W42460   5.506  17.393  12.257  0.0340  0.0662  0.2010
26652W        W42461  11.274   0.996   1.054 -0.0620 -0.0238 -0.3222
26653W        W42462  15.981   7.428   4.095 -0.1530  0.2261  0.0327
26654W        W42463  11.750  16.573   0.093  0.0925 -0.0424 -0.0701
26655W        W42464   6.272  16.630   0.384 -0.1295 -0.0887 -0.2226
26656W        W42465  17.956   3.384  11.231  0.1034  0.1391  0.1610
26657W        W42466  18.316  13.818  12.512 -0.0313  0.2326  0.0246
26658W        W42467   5.326   4.587   0.175 -0.0160  0.0198  0.1788
26659W        W42468   9.778   4.157  12.553  0.0111  0.2036 -0.0210
26660W        W42469   3.979  14.419   2.919 -0.2514  0.1316 -0.1026
26661W        W42470   5.563   4.335   9.353 -0.0784  0.1848 -0.2700
26662W        W42471  17.758  12.231   2.579  0.0131  0.0185 -0.0824
26663W        W42472  18.337   4.646  10.996  0.0229  0.0356 -0.3116
26664W        W42473   1.780   4.210  12.806 -0.1312 -0.0819 -0.1836
26665W        W42474   4.781   0.246  13.226  0.4072  0.0623  0.0239
26666W        W42475   9.768  18.493   5.108 -0.0595 -0.0084  0.5994
26667W        W42476   6.068   3.008  14.359 -0.0311  0.0071  0.3679
26668W        W42477   6.711   9.056  10.974  0.3902 -0.1049 -0.1393
26669W        W42478  11.928  15.229  14.840  0.2187  0.1644  0.1800
26670W        W42479  12.575  15.132   3.667 -0.0839 -0.1213 -0.2481
26671W        W42480  10.137  16.406  14.851 -0.1129 -0.1165  0.5465
26672W        W42481  11.964   4.697   3.729  0.0278 -0.0737 -0.0124
26673W        W42482   1.071   0.734  12.242  0.1994  0.3733  0.0174
26674W        W42483  15.471  12.592  10.401 -0.2758 -0.0060  0.0255
26675W        W42484  16.317  16.117  14.615  0.0912  0.0788  0.0420
26676W        W42485   1.089  10.753  14.744  0.0128 -0.0398 -0.1040
26677W        W42486  14.373  11.689  11.600 -0.1096  0.1206 -0.1078
26678W        W42487   6.219   6.601  10.436  0.0573 -0.0686 -0.1493
26679W        W42488   7.139  10.414   3.839 -0.1186  0.0473  0.0574
26680W        W42489  18.071  12.557  12.149 -0.3127  0.5210 -0.3034
26681W        W42490  18.274  13.425   2.784 -0.0235 -0.0674  0.0920
26682W        W42491   3.779  14.124  13.738  0.0154  0.0968  0.1273
26683W        W42492   2.410   9.659  11.580 -0.0228  0.0873 -0.2730
26684W        W42493   8.849  17.847   4.047  0.0582  0.0385 -0.0462
26685W        W42494  10.256   9.177  14.871  0.2645 -0.0316 -0.1757
26686W        W42495   4.999   0.279   1.899 -0.1301  0.2233  0.0624
26687W        W42496   6.343  17.912   1.049  0.1620  0.2068  0.2910
26688W        W42497   1.198   2.750  10.301 -0.0814  0.2025  0.0058
26689W        W42498  13.596  16.474  11.730  0.1400 -0.0820  0.1406
26690W        W42499  18.830   0.747   1.187 -0.1628  0.0301 -0.0259
26691W        W42500  16.889  10.597   2.273 -0.0340 -0.1342 -0.0568
26692W        W42501  10.410  12.829   4.003 -0.0696 -0.0251 -0.2387
26693W        W42502   1.501   6.173   0.105 -0.1219 -0.0386 -0.2539
26694W        W42503   0.962   0.068  11.282  0.1910  0.2823 -0.3454
26695W        W42504   2.485  12.977  14.090  0.0950 -0.1529  0.3403
26696W        W42505   4.045   0.654   3.426 -0.2107 -0.1393 -0.2954
26697W        W42506  10.989   2.929  13.341 -0.0109  0.0854 -0.1076
26698W        W42507  18.487  13.185  14.774  0.0377 -0.2359 -0.1003
26699W        W42508  12.833  16.778   1.311 -0.0058  0.1924  0.0378
26700W        W42509  13.481   7.679  11.682  0.2754 -0.1162 -0.1722
26701W        W42510  17.152  17.888   1.937 -0.3878 -0.0593  0.1004
26702W        W42511   6.221   2.172  13.646  0.1062 -0.2166 -0.0845
26703W        W42512  18.358   8.547   0.676 -0.2082 -0.0303 -0.0952
26704W        W42513   7.410  11.638  15.042  0.1377 -0.0348 -0.2014
26705W        W42514  14.886  12.329  13.394 -0.0657 -0.1393  0.1003
26706W        W42515   7.557  12.639   5.516 -0.0513 -0.0119 -0.0095
26707W        W42516  15.923   4.836  11.520  0.0894  0.0428 -0.1372
26708W        W42517   3.127   4.060   0.856 -0.1038 -0.1238 -0.1641
26709W        W42518   0.403   9.136  11.247  0.1775 -0.0388 -0.0460
26710W        W42519  12.411  12.471   5.069 -0.0569 -0.2816 -0.1451
26711W        W42520  16.664   1.998  10.735 -0.2278  0.1581  0.1011
26712W        W42521   4.794  19.042  13.663  0.1775 -0.2044  0.1039
26713W        W42522   6.514  13.973   0.690  0.2411 -0.1787  0.0742
26714W        W42523   5.669  10.048  11.372  0.1010 -0.1436  0.3870
26715W        W42524   3.875  15.783  12.055  0.2684  0.0111  0.1073
26716W        W42525  16.657   5.258  13.221 -0.0568 -0.1220  0.1314
26717W        W42526  12.732   4.971  10.321 -0.0664 -0.1973 -0.0075
26718W        W42527  11.470  18.549  14.973  0.0389 -0.2444 -0.1605
26719W        W42528  13.530   8.016   3.596  0.0818 -0.2376 -0.3273
26720W        W42529   0.958   3.174   1.023 -0.0286  0.2085 -0.1430
26721W        W42530  10.711  12.372   4.037 -0.5640 -0.1270 -0.1479
26722W        W42531  15.327   4.044  11.483 -0.2422 -0.4279 -0.3064
26723W        W42532   6.141   4.021  13.904 -0.3642 -0.0904  0.2531
26724W        W42533  13.933  11.510  13.790 -0.3045 -0.0287 -0.4233
26725W        W42534  17.319   4.528  12.301  0.1051  0.2153 -0.0684
26726W        W42535  14.306  17.228  11.140  0.1361 -0.0422 -0.2289
26727W        W42536   8.152   6.368   2.024  0.0295  0.3602  0.0981
26728W        W42537   7.962  14.432  14.421 -0.0322 -0.1860 -0.0278
26729W        W42538   7.125   0.503   3.068 -0.2498  0.1354 -0.2604
26730W        W42539  12.115  17.519  14.913 -0.2608 -0.3071 -0.2420
26731W        W42540   2.628  11.520  15.176 -0.0289 -0.0907 -0.1962
26732W        W42541  18.044  11.911   3.892  0.0204  0.2337 -0.2316
26733W        W42542   8.854  18.652  13.396  0.1190 -0.2822 -0.1766
26734W        W42543   8.173  17.114   3.145  0.0055  0.1966 -0.1603
26735W        W42544   8.759  10.517   1.318 -0.0887  0.1472  0.0638
26736W        W42545  12.109   0.342  10.915 -0.2324  0.1942  0.1901
26737W        W42546   6.989  11.430   5.181  0.0009 -0.1918 -0.1120
26738W        W42547   6.129   2.711   1.523  0.1908 -0.1480 -0.0954
26739W        W42548   2.033  13.414   1.519 -0.3126 -0.0627 -0.1624
26740W        W42549   5.301  12.492   2.783 -0.0357  0.0615  0.1175
26741W        W42550   1.923   4.898   2.855 -0.0389 -0.0284 -0.1502
26742W        W42551   6.894   0.627  13.187 -0.0128 -0.3904  0.1357
26743W        W42552  17.132  12.219  13.908  0.0831  0.0640  0.0625
26744W        W42553   9.180   1.480  10.834  0.2351 -0.0246 -0.2274
26745W        W42554   2.472   5.369  13.335  0.0434  0.1006 -0.3609
26746W        W42555   4.779   1.909  15.009 -0.1402  0.1891  0.1021
26747W        W42556   4.365   3.528   4.236 -0.1607 -0.0828  0.0395
26748W        W42557   7.598  10.129   2.434  0.0906 -0.3595  0.1994
26749W        W42558   6.436   4.773   2.407  0.2064  0.2592  0.2418
26750W        W42559   9.773   4.269  14.783  0.0654 -0.0133 -0.0454
26751W        W42560  13.025   3.858  11.268 -0.2057 -0.2615 -0.1592
26752W        W42561   0.045   9.195  12.332 -0.0148 -0.0560  0.1684
26753W        W42562   4.869  17.625  10.528  0.0519 -0.3320  0.2730
26754W        W42563   6.163   6.080   2.578  0.2126  0.3133  0.1373
26755W        W42564   3.113  18.885  12.750  0.1964 -0.0597  0.1109
26756W        W42565  13.312  16.836   2.661 -0.0953 -0.1679 -0.1953
26757W        W42566   0.318  11.219   3.639 -0.2075  0.0189  0.1231
26758W        W42567   6.260  16.668   3.638  0.1306 -0.2183 -0.0732
26759W        W42568   8.592  10.672   2.916 -0.0875 -0.6147 -0.0742
26760W        W42569  15.602  18.140  13.576 -0.0455 -0.0835  0.2423
26761W        W42570  12.625   8.268   3.584  0.1211 -0.0502  0.1475
26762W        W42571   8.284   6.668  13.814 -0.0965 -0.1201 -0.0660
26763W        W42572   6.859   0.927   0.146 -0.0729 -0.2516  0.1370
26764W        W42573  16.058   6.870  13.554  0.1945 -0.1648 -0.0531
26765W        W42574  14.747   2.862   1.280  0.3920  0.2455  0.0876
26766W        W42575   6.271  16.608  13.196 -0.1740 -0.0434  0.0560
26767W        W42576   5.648   6.404   0.407  0.1713  0.2996 -0.3909
26768W        W42577   4.097  16.498  11.773 -0.0103  0.4206 -0.0129
26769W        W42578   5.709  16.916   3.422 -0.2346  0.2420 -0.0595
26770W        W42579   0.843  14.338   1.344 -0.0266  0.0080 -0.0082
26771W        W42580   3.036   0.049  10.332  0.1667  0.0083  0.2191
26772W        W42581  17.684  13.961  11.609  0.1946  0.2607 -0.0133
26773W        W42582  10.933  15.914   1.891  0.0835 -0.0420  0.1527
26774W        W42583  12.114   1.833   3.752  0.1900  0.0954  0.1052
26775W        W42584  12.631   7.906  11.313  0.0997  0.0896 -0.5221
26776W        W42585  13.175  13.886   5.278  0.0122  0.2289  0.0757
26777W        W42586  17.895   2.737  15.018 -0.2738 -0.0823  0.2688
26778W        W42587   1.755   2.914   4.996 -0.2173  0.4113 -0.0367
26779W        W42588   9.113  13.485   1.686  0.2259 -0.1826 -0.3385
26780W        W42589   5.422   8.974   3.473  0.0687 -0.0312 -0.1759
26781W        W42590   8.266   0.381   1.507 -0.2513 -0.2436 -0.0504
26782W        W42591  13.144   4.722   0.668 -0.0435  0.2804  0.1924
26783W        W42592  18.144  11.798   9.743  0.1203 -0.2359 -0.2792
26784W        W42593  18.600   1.073  10.824 -0.1445  0.1262 -0.2076
26785W        W42594   5.694  16.659   1.217 -0.0343 -0.1317 -0.1420
26786W        W42595   8.589  14.901   0.909  0.1765 -0.1997 -0.0427
26787W        W42596   7.276  14.680   3.198  0.2686  0.0294 -0.1727
26788W        W42597   8.964  18.661  12.929  0.0942  0.2688 -0.1235
26789W        W42598   2.934   2.548  12.036 -0.1310  0.3187 -0.0538
26790W        W42599   9.318  17.696   2.178  0.1174 -0.2273  0.1335
26791W        W42600  12.260  18.460   3.643 -0.1431  0.0847 -0.0175
26792W        W42601  16.293   3.363   0.242 -0.1093 -0.2837  0.1153
26793W        W42602  12.312  16.653   0.791 -0.0748  0.0867  0.2475
26794W        W42603  11.047   8.641   2.813  0.3225  0.1629 -0.2371
26795W        W42604   2.828   3.568  12.223  0.4066 -0.2759 -0.1025
26796W        W42605   8.858   0.087   0.623 -0.1038 -0.0584  0.2319
26797W        W42606  12.836  11.841   9.626  0.0664  0.0333  0.1919
26798W        W42607  15.452  10.595  14.160 -0.1678  0.2613 -0.2096
26799W        W42608  14.046  12.293   1.834  0.4351  0.0719  0.0097
26800W        W42609   0.095   7.798  11.712 -0.1953  0.3321 -0.1459
26801W        W42610  14.674   3.056  13.121  0.2209  0.0167  0.2578
26802W        W42611   5.304  16.872  11.982 -0.0286 -0.4194 -0.0217
26803W        W42612  15.973   7.356  12.435  0.1861 -0.0630  0.3500
26804W        W42613   9.314  18.616  11.381 -0.3203 -0.0310  0.4279
26805W        W42614   2.687  11.590   3.698  0.0071 -0.0384  0.0517
26806W        W42615  15.145   2.727  11.828  0.0230 -0.1620  0.0697
26807W        W42616  10.596   2.223  10.419  0.0469  0.0473 -0.1079
26808W        W42617   8.268   5.552  10.882  0.3827 -0.0450 -0.0016
26809W        W42618   9.457  13.918   0.541 -0.0282  0.0677  0.0390
26810W        W42619  12.436   5.025  13.412  0.2491 -0.1209  0.2178
26811W        W42620   1.703   1.163  13.357  0.3526  0.2354 -0.2748
26812W        W42621  18.051   8.711   1.067  0.0107 -0.1609  0.3037
26813W        W42622  17.089  18.216   2.276 -0.0670  0.0331  0.0850
26814W        W42623   8.629  11.566  13.016  0.1065 -0.0491  0.1930
26815W        W42624   8.420  11.810   1.351  0.1029 -0.1874 -0.1606
26816W        W42625  11.645   3.566   4.163 -0.2795  0.3006 -0.0217
26817W        W42626   2.593   6.911   1.999 -0.0722  0.3366  0.5311
26818W        W42627  11.768  17.245  10.933  0.0037 -0.0603 -0.4228
26819W        W42628  14.940  13.029   9.710 -0.3030 -0.0717  0.0258
26820W        W42629  19.097   2.297   3.935 -0.2480  0.0159 -0.0033
26821W        W42630   4.523  14.811   2.129 -0.0346 -0.3332 -0.2672
26822W        W42631  17.386   6.792   4.414  0.0058 -0.1237 -0.0831
26823W        W42632  13.049   4.859  10.829 -0.0981  0.2124  0.0667
26824W        W42633  14.158   3.646   0.451  0.1056 -0.0105  0.1813
26825W        W42634   1.363   3.953   0.893  0.0599  0.0082 -0.2510
26826W        W42635  14.359  17.392  14.633 -0.0492 -0.2515  0.3561
26827W        W42636   8.275   7.797  15.068  0.1333  0.2720  0.0466
26828W        W42637   7.298   4.517   0.508 -0.0203 -0.0065  0.1634
26829W        W42638  17.711   4.671  14.257 -0.0157  0.0240  0.2624
26830W        W42639   2.496   2.528   2.811  0.1983  0.4145  0.0576
26831W        W42640   1.349  18.933   9.501  0.1676 -0.1167 -0.1398
26832W        W42641   7.598  13.004   3.091  0.3279  0.0548  0.1558
26833W        W42642   0.583  12.375   3.099 -0.3261 -0.5375  0.1420
26834W        W42643   2.289  13.378   5.488  0.1197 -0.2097 -0.1896
26835W        W42644   3.896  12.330  12.315 -0.0817  0.2492 -0.1488
26836W        W42645  12.313  13.767   1.905  0.1588  0.1711  0.0841
26837W        W42646  12.204  13.711  15.062 -0.0324  0.0682  0.2069
26838W        W42647   2.208   9.536   0.877  0.0367 -0.0045  0.1413
26839W        W42648  17.655   5.580   1.245  0.1963  0.0448  0.2275
26840W        W42649  14.957  12.264  10.860  0.1181  0.2023 -0.1497
26841W        W42650  18.554  18.494  13.236 -0.0482 -0.1332 -0.2684
26842W        W42651  16.480   5.607   1.413  0.1067 -0.2512  0.0115
26843W        W42652  18.237   0.948   2.626 -0.1542 -0.0441 -0.1876
26844W        W42653   7.419   1.146  12.608 -0.1069 -0.1676  0.4149
26845W        W42654   8.906  16.292  13.607 -0.1142  0.1977  0.2662
26846W        W42655  15.885  10.152   3.744  0.0432 -0.1702  0.0531
26847W        W42656   6.062   3.679   4.298  0.0756  0.2415  0.0692
26848W        W42657   0.842  12.224  13.260 -0.1353 -0.0634  0.2686
26849W        W42658   6.526   4.238  11.142 -0.1533 -0.0441  0.0114
26850W        W42659  14.148  18.438  13.929  0.1554  0.2018 -0.3895
26851W        W42660   9.303   9.215  10.709  0.0755  0.0106  0.0991
26852W        W42661   8.675  17.788  14.079  0.1492 -0.1694 -0.2419
26853W        W42662   8.897  19.081   4.341 -0.0331  0.2128  0.0138
26854W        W42663   3.922  13.766   4.089 -0.1561  0.1037  0.0247
26855W        W42664  17.319  17.526  13.195 -0.4965 -0.2198  0.2567
26856W        W42665   0.993   7.759   2.390  0.3140  0.1144 -0.2416
26857W        W42666  15.805   0.390  11.421 -0.0171  0.2547  0.2380
26858W        W42667  10.808  17.325   0.251  0.1451 -0.0405 -0.0663
26859W        W42668   4.153   7.436  13.769 -0.4723  0.1766  0.1730
26860W        W42669   3.461  15.009  14.172  0.0260  0.0468 -0.0353
26861W        W42670  12.331   9.204   1.105 -0.1835  0.1153 -0.1097
26862W        W42671   1.942   8.679   2.108  0.2132  0.2542  0.0352
26863W        W42672  18.033   5.277   2.943 -0.1941  0.0217  0.1160
26864W        W42673   5.960  13.748   3.153 -0.3588  0.2043  0.1028
26865W        W42674  17.421   6.577   0.451 -0.0160 -0.2498  0.0593
26866W        W42675  17.024   6.498  13.810  0.3691 -0.0205  0.0057
26867W        W42676  14.842   8.763   3.544  0.3470 -0.0136  0.0530
26868W        W42677  10.030   2.382  10.660 -0.0412 -0.2780 -0.0570
26869W        W42678   8.756  10.293   2.628 -0.4705 -0.1603  0.0828
26870W        W42679   0.461  17.825  12.245  0.2209  0.3342 -0.2939
26871W        W42680  14.508  16.776  11.830  0.0283 -0.2567 -0.1360
26872W        W42681  13.929   2.545   1.119  0.0329 -0.2724  0.0541
26873W        W42682   1.818   0.934  11.519  0.4137 -0.3316  0.1733
26874W        W42683  17.451  18.198   3.248 -0.1706 -0.0335 -0.1863
26875W        W42684  13.792   4.273  12.579  0.0222 -0.0065  0.0092
26876W        W42685   2.548   2.440   1.787 -0.1795 -0.2368 -0.0104
26877W        W42686  10.167   8.977   5.245  0.3307  0.0127 -0.0394
26878W        W42687  14.271  17.572   4.872 -0.0474 -0.0137  0.2965
26879W        W42688  14.413   5.823  13.248  0.1152  0.0615  0.1047
26880W        W42689   4.718  18.864  14.813 -0.1273  0.1008 -0.3080
26881W        W42690   5.240  14.497   2.608 -0.1143  0.2744  0.0125
26882W        W42691  10.238  17.876  10.253 -0.0918  0.0134  0.2891
26883W        W42692   6.520  14.045   1.511 -0.2671  0.1720 -0.0856
26884W        W42693  11.272   0.534   9.933 -0.0238 -0.1246 -0.1759
26885W        W42694  16.884   6.967   4.823  0.2761  0.1883 -0.3130
26886W        W42695  15.433  17.295   9.705 -0.2022  0.1421  0.1670
26887W        W42696  15.043  10.421  12.197  0.0216 -0.3092 -0.0120
26888W        W42697  12.294  13.748   3.230 -0.2164  0.0754 -0.1360
26889W        W42698  13.678   3.410   3.217 -0.3676  0.0332  0.1323
26890W        W42699   2.937   8.405   1.510 -0.0356  0.0651 -0.2729
26891W        W42700   9.110  16.222   3.429 -0.3819 -0.0570  0.1096
26892W        W42701   0.828  17.496   2.788  0.1559 -0.1431  0.0949
26893W        W42702  12.833   0.260  12.958 -0.1910 -0.1678 -0.2030
26894W        W42703   9.291  15.964  12.262 -0.0906 -0.1702 -0.0832
26895W        W42704   4.220   9.735   2.442  0.1786 -0.2538 -0.0061
26896W        W42705  13.078   1.752   2.731 -0.0481 -0.1605  0.2195
26897W        W42706   4.246   7.674  12.596  0.1245  0.2463  0.0408
26898W        W42707   4.345   4.074   3.797  0.0217  0.1444 -0.1973
26899W        W42708   2.892  15.636  11.002 -0.4112 -0.0678  0.0229
26900W        W42709   9.848   4.233   4.456 -0.0328  0.1397 -0.3367
26901W        W42710   3.565   2.082  10.388 -0.1096  0.0093 -0.0937
26902W        W42711   0.506   2.379  10.245 -0.0966 -0.0494 -0.2685
26903W        W42712  15.248   2.429  11.314 -0.1807 -0.2080 -0.0201
26904W        W42713   9.294   1.360   3.886 -0.0151  0.0594 -0.0813
26905W        W42714  18.026   6.021  12.276  0.0795  0.0580  0.0106
26906W        W42715  18.748  12.064   3.072  0.2183 -0.0815  0.0117
26907W        W42716   2.874   5.732   4.487  0.2454  0.1388  0.0356
26908W        W42717   5.205   5.809   0.589 -0.3317 -0.1250  0.0335
26909W        W42718  10.123  15.495   4.861 -0.0845  0.0599 -0.4067
26910W        W42719   8.380   1.660   1.767  0.1667  0.1688  0.4365
26911W        W42720   9.548   8.356  10.431  0.0587 -0.2674 -0.1650
26912W        W42721   4.475   8.963  14.447  0.0132  0.0372 -0.0797
26913W        W42722   8.694   5.276   5.636  0.2995 -0.0987  0.0965
26914W        W42723   1.634   7.362  14.282 -0.0383 -0.3533  0.0888
26915W        W42724  12.657  16.406   3.611  0.0722 -0.0795 -0.1866
26916W        W42725   6.964  10.623   0.123 -0.0749 -0.5783 -0.1684
26917W        W42726  17.377  13.228   2.674  0.1806  0.4438  0.2948
26918W        W42727   0.422  16.310   2.605 -0.0141 -0.0351 -0.1587
26919W        W42728  17.794   1.547   1.751  0.0562 -0.3371 -0.0259
26920W        W42729   6.176  15.812   1.519  0.0311  0.0737  0.0068
26921W        W42730   9.521  12.835   9.850 -0.1499 -0.0053  0.0705
26922W        W42731   0.282   0.990  13.225  0.1009  0.3402  0.0974
26923W        W42732   3.681   3.334   1.747 -0.1328 -0.2189 -0.0710
26924W        W42733  12.608   5.601   2.145 -0.1875 -0.1409  0.0643
26925W        W42734   7.853   7.107   1.344 -0.1031  0.0003  0.5143
26926W        W42735  14.208   6.721   4.325 -0.3753 -0.2867 -0.0575
26927W        W42736  10.109  15.804   3.958 -0.2021  0.0184 -0.0814
26928W        W42737  16.212  10.999  14.749 -0.1077  0.1948  0.0446
26929W        W42738  16.165   8.282  14.799  0.1228 -0.0115 -0.4882
26930W        W42739  13.479  16.280  15.220 -0.1293 -0.2567  0.1404
26931W        W42740   0.356   5.248   2.762 -0.2392  0.1780  0.4031
26932W        W42741   8.886   4.296  12.326  0.0323 -0.1448 -0.0623
26933W        W42742  16.247  15.745  10.328 -0.0571 -0.0683  0.1388
26934W        W42743  17.358   0.977   4.777  0.0425  0.2213  0.2384
26935W        W42744   6.193   6.645   2.431  0.0920  0.1396 -0.1867
26936W        W42745  13.278   7.613  15.075 -0.2616  0.1021  0.0421
26937W        W42746  11.760   6.226   0.884  0.0351  0.1378 -0.3069
26938W        W42747  13.241  18.601  14.399  0.2846  0.1418 -0.0182
26939W        W42748  13.894   1.820  13.003  0.1606  0.0121 -0.0923
26940W        W42749  15.527   6.280  14.731 -0.5198 -0.1867  0.0990
26941W        W42750   7.511   1.782   4.131  0.1944  0.0355 -0.1540
26942W        W42751  16.254  15.343  14.239 -0.2222 -0.1078  0.0315
26943W        W42752  17.117   9.025  11.513 -0.1829  0.1429  0.1145
26944W        W42753  15.543  13.729   2.310 -0.0528 -0.4320  0.1332
26945W        W42754  11.157   9.581   0.571 -0.3083  0.1792  0.0084
26946W        W42755   5.476  10.680  10.993 -0.1529 -0.1958  0.2833
26947W        W42756   5.887  13.969   3.681 -0.0277 -0.1838 -0.0041
26948W        W42757   8.837  16.623   3.124  0.4598 -0.3321 -0.3654
26949W        W42758  18.154   7.657   2.794 -0.1263 -0.0011 -0.3927
26950W        W42759   7.074   5.112   4.329 -0.1608 -0.1404 -0.0773
26951W        W42760  11.285   9.232  11.753 -0.0073  0.1487 -0.1539
26952W        W42761  14.051  14.852   5.975  0.4544  0.0849  0.1171
26953W        W42762  14.430   2.876  11.143  0.1152 -0.1719  0.2665
26954W        W42763   9.677  10.771  14.984 -0.3775 -0.0075 -0.2751
26955W        W42764  17.135   7.532  13.657  0.2438 -0.4405 -0.2612
26956W        W42765  12.385  12.044  10.854 -0.2593  0.3361 -0.2230
26957W        W42766   7.012  14.537  13.889  0.1765 -0.2996  0.0981
26958W        W42767  10.051   9.373   3.771 -0.0453  0.3067 -0.1975
26959W        W42768   2.081  13.361  10.686  0.2505  0.0880  0.0847
26960W        W42769  17.932   7.021  12.767  0.3287 -0.5814  0.1383
26961W        W42770  17.364   2.491   4.312  0.0629  0.1208 -0.0605
26962W        W42771   4.893  11.626   9.761  0.0944 -0.2676  0.0367
26963W        W42772   0.145  12.592   2.240 -0.0355  0.0645 -0.1528
26964W        W42773   1.297   7.446   3.890  0.2057  0.0287  0.1288
26965W        W42774   6.760   8.577   3.620 -0.0179 -0.2939  0.1096
26966W        W42775  17.860   8.917  12.814  0.0706  0.0263 -0.1976
26967W        W42776   9.885   8.435   3.808 -0.1252  0.2042  0.0060
26968W        W42777   8.103  18.685  14.317  0.0922  0.2279  0.1869
26969W        W42778   0.969  14.333   2.379  0.3715  0.0596 -0.0629
26970W        W42779   2.057   9.324   2.796  0.0466  0.2499  0.0543
26971W        W42780   3.517   4.764  12.714 -0.2897 -0.2757 -0.3866
26972W        W42781  14.359   9.492  12.487  0.0003 -0.0660 -0.1020
26973W        W42782   1.173   8.149   3.784  0.1643 -0.2317  0.1038
26974W        W42783  17.039  18.365  12.957 -0.2501  0.0836  0.0874
26975W        W42784   4.029  16.609   0.239  0.0383 -0.1467  0.0089
26976W        W42785  14.468  15.693   5.761  0.0731 -0.0836 -0.0170
26977W        W42786   7.384   6.790  13.057  0.0011 -0.1273  0.2597
26978W        W42787   4.972  13.899  14.425 -0.2086 -0.4709  0.1200
26979W        W42788   1.523   3.879  13.080 -0.1208 -0.0197  0.0178
26980W        W42789  14.819   8.283   3.453  0.1734 -0.1704  0.2956
26981W        W42790  11.327  17.915   5.312 -0.3474 -0.0304  0.2196
26982W        W42791   7.030  16.151   2.038  0.1422  0.0038  0.2908
26983W        W42792  10.989   6.413  12.013  0.0894  0.2076 -0.1854
26984W        W42793   8.120  15.645  13.038  0.0832  0.0300 -0.2824
26985W        W42794  13.303   0.039  13.821  0.1018 -0.2190  0.1395
26986W        W42795  12.999  12.690  13.389  0.0454  0.1035  0.1222
26987W        W42796  14.587   7.676  13.954  0.2951 -0.0573  0.0198
26988W        W42797  10.216  10.624   4.893 -0.1778 -0.3686  0.1494
26989W        W42798  12.410   7.710   4.134  0.1601 -0.1063 -0.2130
26990W        W42799  11.968   3.773   1.846  0.0952 -0.3083  0.3834
26991W        W42800  10.474  11.523  12.930  0.0562 -0.2218 -0.1517
26992W        W42801   0.610   6.564   3.184 -0.1233 -0.0146 -0.1690
26993W        W42802   6.323  18.563   2.723 -0.1194  0.2143  0.0430
26994W        W42803   6.676   2.995   0.342  0.1569 -0.0807 -0.3228
26995W        W42804   4.851   2.576  10.011 -0.0293  0.4148  0.2315
26996W        W42805   7.092   4.738   3.941  0.0335  0.0046  0.1901
26997W        W42806  15.967  12.757  14.909  0.0771  0.3581 -0.0100
26998W        W42807  10.800   8.581   4.667  0.0759 -0.0234 -0.1723
26999W        W42808  11.308   0.143   0.219  0.0336 -0.0629  0.2170
27000W        W42809  18.917  15.052   2.219 -0.1989 -0.0464  0.3488
27001W        W42810   0.024   8.961   1.984 -0.0743  0.1107 -0.1334
27002W        W42811  17.250   2.483  15.117 -0.0201  0.2623  0.0452
27003W        W42812  14.866  18.661  12.774  0.1209 -0.0519 -0.0569
27004W        W42813   0.768  15.174   5.589 -0.2280  0.0537 -0.1111
27005W        W42814   9.023   7.286   3.844 -0.2514 -0.0073 -0.3073
27006W        W42815  17.368  17.972  12.827  0.1583 -0.0880  0.0777
27007W        W42816   0.621  10.079  12.009  0.1964  0.0051 -0.1637
27008W        W42817   3.184  14.008  12.425  0.0035  0.2233 -0.2578
27009W        W42818  14.596   3.168   2.523  0.0042 -0.2219 -0.2674
27010W        W42819   9.311  12.566  10.214  0.1600  0.1922  0.2561
27011W        W42820   4.321  13.858   1.126 -0.4691 -0.0788 -0.1401
27012W        W42821   8.584  18.052   1.172  0.1135 -0.4297 -0.1020
27013W        W42822  16.516   2.631   1.853  0.2890  0.0242 -0.1261
27014W        W42823   9.836  11.339   0.874  0.3911  0.2381  0.0499
27015W        W42824   2.038   8.409   1.486  0.3331  0.0478  0.0073
27016W        W42825  10.060  11.820   3.906  0.0759  0.1456  0.1358
27017W        W42826  18.818   2.561   1.706  0.1200 -0.1901  0.1420
27018W        W42827   5.207  18.958  12.077 -0.3122  0.1708  0.1111
27019W        W42828  16.572   2.954  10.008 -0.1461 -0.0704  0.0134
27020W        W42829  10.781   5.086   2.362  0.0703 -0.2086  0.2010
27021W        W42830   7.116  13.616  14.302  0.0916  0.0050 -0.2148
27022W        W42831   0.798  13.476  13.239  0.0164  0.0971 -0.0690
27023W        W42832  11.315   7.168  12.963  0.0328  0.1741 -0.2796
27024W        W42833   7.705  15.726  11.031  0.5563  0.2283  0.1028
27025W        W42834  18.899   7.512  14.356 -0.0281 -0.1047  0.0274
27026W        W42835  14.105  12.216   9.799 -0.0957 -0.4081  0.1883
27027W        W42836   5.812   5.211  10.667  0.1865  0.1890 -0.1921
27028W        W42837  13.894  16.375   0.277  0.0170 -0.0817 -0.1738
27029W        W42838   8.771  13.033  15.014 -0.1712  0.4095  0.1189
27030W        W42839  12.457  10.686   3.973  0.0652  0.1272 -0.3552
27031W        W42840   1.139   9.311   1.155  0.1843 -0.2021 -0.0391
27032W        W42841   4.265   3.050  13.069 -0.1293 -0.0378  0.0198
27033W        W42842   7.557  15.427   4.375  0.2040  0.2973  0.2232
27034W        W42843  14.465   5.320  13.460  0.2070  0.0524 -0.2050
27035W        W42844   8.626  18.877   4.721  0.0320  0.1040  0.3559
27036W        W42845   7.180   0.735  11.050  0.2081  0.0810 -0.0549
27037W        W42846   1.078  17.233   3.751 -0.0270 -0.0525  0.1383
27038W        W42847  14.853  11.873   3.993 -0.3178 -0.0132 -0.0003
27039W        W42848  11.741   9.228  11.990  0.1512  0.0014 -0.0470
27040W        W42849   8.541   7.539   3.706 -0.0215 -0.0136  0.2666
27041W        W42850  11.639  17.897   0.843 -0.2649  0.2836 -0.0316
27042W        W42851   3.302   6.528  11.382 -0.0348 -0.1134  0.0732
27043W        W42852   2.035  17.211   4.530 -0.1655  0.1460  0.0172
27044W        W42853   2.986  14.203   3.822 -0.1337  0.3668  0.0554
27045W        W42854   8.449   6.082  15.061 -0.0331 -0.2388  0.0861
27046W        W42855  12.103   2.918   1.771 -0.4393 -0.0750  0.1632
27047W        W42856   4.476  12.911   3.359 -0.2779  0.3505  0.0489
27048W        W42857  14.769  16.367   5.008 -0.0698  0.2054  0.0410
27049W        W42858   0.114   2.842  15.264  0.1274 -0.2192 -0.2153
27050W        W42859   4.557  17.390   1.004 -0.3291 -0.0962  0.1237
27051W        W42860  10.647   1.685  12.249 -0.0600 -0.2718  0.0301
27052W        W42861  14.799   4.539  12.218  0.2864  0.1100 -0.0684
27053W        W42862  12.913   9.531   3.468  0.0067 -0.0503  0.1089
27054W        W42863  12.395  12.243   2.153 -0.0945  0.1241  0.1683
27055W        W42864   3.731  15.541  14.414  0.0380 -0.1705 -0.1217
27056W        W42865  16.362   1.417  15.051 -0.1301  0.1509  0.1576
27057W        W42866   3.775   5.798   3.129  0.1802 -0.1545 -0.0482
27058W        W42867  15.738   1.725   9.708  0.0072  0.1820 -0.3574
27059W        W42868   6.767   2.163   5.441 -0.2496 -0.2460  0.0546
27060W        W42869  15.310  10.358   4.495  0.4181  0.2006  0.2720
27061W        W42870  15.951   3.070  14.180 -0.0199  0.1198 -0.4582
27062W        W42871   4.244  11.117  14.387 -0.3349  0.0049  0.0795
27063W        W42872  15.844   7.247  11.951  0.0231 -0.2450  0.2265
27064W        W42873  15.382   2.008  14.048  0.0083 -0.1744 -0.3092
27065W        W42874   6.391  15.493   0.792  0.0429  0.1747  0.1590
27066W        W42875  10.395   9.636  12.088 -0.3564 -0.0667  0.0181
27067W        W42876  15.029  16.202  12.892 -0.0197 -0.3982 -0.2174
27068W        W42877  16.557   3.859   4.335  0.0862  0.4541  0.2603
27069W        W42878  14.380   7.609  15.098  0.0880 -0.1488  0.2967
27070W        W42879  17.803  13.093   1.806 -0.2034 -0.0283 -0.1590
27071W        W42880   1.334   1.075   2.930  0.0884  0.1379 -0.0044
27072W        W42881   1.529   8.699  12.302 -0.0497  0.1377  0.1482
27073W        W42882  15.375   3.187   3.930 -0.0462 -0.1096 -0.2520
27074W        W42883  19.015  11.645  14.967  0.2096  0.1211  0.1098
27075W        W42884   8.718   8.432  10.955  0.0033  0.0734  0.0062
27076W        W42885  17.022  15.229   0.854  0.2603  0.0429 -0.0550
27077W        W42886  17.518  10.450  12.055  0.0010 -0.4697  0.0578
27078W        W42887  17.656  12.922  14.943  0.1248 -0.1476 -0.1121
27079W        W42888   5.674   2.857  10.518 -0.0647 -0.4073  0.0884
27080W        W42889  11.426  17.124   4.667  0.3437  0.2925 -0.3215
27081W        W42890   7.883  13.908   2.122 -0.1378 -0.2798  0.0102
27082W        W42891  16.907   5.490  13.833  0.4122 -0.0798 -0.4648
27083W        W42892   4.852  12.100  13.604  0.0766  0.0392  0.1131
27084W        W42893  18.691  10.984  15.128 -0.2333 -0.4664  0.0426
27085W        W42894  10.389  19.020  14.486 -0.0175 -0.2711  0.1575
27086W        W42895  16.415   2.558   1.360 -0.0290  0.3411 -0.0526
27087W        W42896   4.160   4.012   0.492  0.0395 -0.0911 -0.0308
27088W        W42897   3.809  18.919   1.903 -0.2166  0.1238  0.2375
27089W        W42898   6.652  18.206  10.298  0.0548 -0.0748 -0.2949
27090W        W42899   9.830  11.350  14.235  0.0112  0.1349  0.1895
27091W        W42900  13.307   0.741  11.733 -0.0135 -0.0412 -0.3660
27092W        W42901  11.851   5.797   1.194  0.1194  0.0033  0.0488
27093W        W42902   9.739   1.553   1.426 -0.0581  0.1954  0.0919
27094W        W42903   3.866  13.461   4.494 -0.3464 -0.2079 -0.0632
27095W        W42904  14.174   2.902  14.379 -0.1278 -0.0081  0.0011
27096W        W42905  14.332  10.935  13.983  0.3015 -0.0275  0.0710
27097W        W42906  16.031   5.116  14.751 -0.0872  0.0194  0.1252
27098W        W42907  16.487   5.141   1.576  0.0238  0.1218 -0.0055
27099W        W42908  10.432   1.969   2.225  0.3164  0.0901  0.0393
27100W        W42909   6.095  10.505   0.610 -0.0053  0.1787  0.3327
27101W        W42910  13.272   1.420  13.814 -0.1291  0.0825 -0.0908
27102W        W42911  12.071  17.387   2.757 -0.0526 -0.1220 -0.3030
27103W        W42912   5.488   5.080   3.252 -0.0201  0.1582 -0.2765
27104W        W42913   9.415   9.158   2.905  0.1516  0.0960 -0.0497
27105W        W42914   5.183   6.499  13.549  0.1238  0.0836  0.0149
27106W        W42915   2.828  13.323  14.165  0.1558  0.1880  0.2214
27107W        W42916  11.530   4.386  13.099 -0.0283  0.0388  0.1728
27108W        W42917  10.845   8.174   0.715  0.0896 -0.1842  0.1687
27109W        W42918  18.142  15.198  12.850  0.0897  0.0897 -0.0549
27110W        W42919  16.045   1.821  13.490 -0.1389 -0.0657 -0.1606
27111W        W42920   6.733  13.941   2.095  0.1799 -0.6143 -0.0140
27112W        W42921  12.157  13.315  11.320 -0.2885  0.0669  0.0654
27113W        W42922   2.723  15.518  12.143 -0.0980 -0.2431 -0.0243
27114W        W42923   4.733   4.312   0.501  0.5238 -0.2086  0.1352
27115W        W42924   7.797   0.064  15.182 -0.1442 -0.1240 -0.1934
27116W        W42925  16.322   6.689   2.745 -0.0540  0.1960 -0.2046
27117W        W42926  13.879  13.897   4.157 -0.2066  0.0087 -0.1327
27118W        W42927   7.058  13.089   0.698 -0.0615  0.3638  0.1871
27119W        W42928   9.688   2.888   2.895  0.2278 -0.1634  0.5269
27120W        W42929  18.143  11.137   4.712 -0.3881 -0.1316 -0.2015
27121W        W42930  11.473  14.773   5.013 -0.1288  0.1438 -0.4185
27122W        W42931   8.852   9.479  14.678 -0.0923 -0.0946  0.1113
27123W        W42932  10.638  11.440   0.136 -0.2671  0.0461  0.1373
27124W        W42933   2.508  13.343   4.556  0.0066  0.3095  0.0513
27125W        W42934   6.341  13.189  10.751 -0.2510  0.2091  0.4442
27126W        W42935   7.649  14.332   2.367  0.0638  0.1996 -0.0699
27127W        W42936   2.537   9.938   0.827  0.0527 -0.0149  0.0484
27128W        W42937  10.210   8.657   0.761 -0.2594  0.3035 -0.2046
27129W        W42938   8.519   4.601  12.166  0.0681 -0.3836  0.1809
27130W        W42939  11.847   2.274   3.565  0.1872  0.1331 -0.0271
27131W        W42940   1.244   8.559   4.621 -0.2605  0.0128  0.0991
27132W        W42941  18.999  12.185  11.199  0.2134 -0.0217  0.1525
27133W        W42942  15.629  10.911   5.651  0.2586 -0.0742 -0.0099
27134W        W42943  10.010  10.410  14.249  0.1846  0.1753 -0.2076
27135W        W42944  11.757   7.888   3.538  0.2837  0.2768  0.2039
27136W        W42945   7.940  17.968  12.858 -0.2362 -0.2180 -0.1226
27137W        W42946   5.786   6.617   4.619  0.1763 -0.2733  0.0112
27138W        W42947   9.604  19.130   1.066  0.1919 -0.0765 -0.2424
27139W        W42948   5.307   1.947   4.969  0.2144 -0.0730  0.1100
27140W        W42949  14.362   3.990   3.949  0.0336 -0.1479 -0.0559
27141W        W42950  16.810   9.664   3.122  0.4760  0.0063 -0.0011
27142W        W42951  13.624  17.387  13.626 -0.2769 -0.0133  0.0502
27143W        W42952  15.253   7.376  11.787  0.0328 -0.0323  0.1761
27144W        W42953   3.002   6.712   1.167  0.0364  0.4053 -0.0787
27145W        W42954   4.561  16.689   2.376  0.0259 -0.1318 -0.0717
27146W        W42955  12.352  10.161   3.940  0.0162  0.0917  0.0307
27147W        W42956  13.973   6.321   4.295  0.1495 -0.1280  0.0384
27148W        W42957   7.608   4.327  14.146 -0.1453 -0.2972 -0.1064
27149W        W42958   1.541  10.510   0.850 -0.0970 -0.1618 -0.0519
27150W        W42959   4.795  17.007   0.776 -0.1270  0.0184 -0.0916
27151W        W42960   2.359  10.890   1.321  0.0741 -0.0101 -0.2167
27152W        W42961   4.329   1.919   1.459 -0.4177 -0.2449  0.0190
27153W        W42962   0.913   9.638   1.447  0.2451 -0.3055 -0.0624
27154W        W42963  13.540  10.664  15.053 -0.4508 -0.2061 -0.0386
27155W        W42964  11.088  18.561   3.266  0.4902 -0.1402  0.2253
27156W        W42965   5.495   2.708  13.955  0.1630 -0.0305  0.2180
27157W        W42966  15.226   4.209  14.595 -0.0939  0.1230 -0.1813
27158W        W42967  17.019   5.437   4.433 -0.1722  0.1075  0.1344
27159W        W42968  15.701  15.067   0.232  0.0269 -0.7345 -0.1637
27160W        W42969   5.423   4.436   2.429  0.1372 -0.2240 -0.0344
27161W        W42970  11.809  14.383  13.817 -0.0750 -0.2233 -0.1687
27162W        W42971   8.399  11.572   9.089  0.1715 -0.0081 -0.1083
27163W        W42972  17.943   6.728   2.931 -0.1956  0.0891  0.4525
27164W        W42973   8.420   3.851  15.226 -0.1924 -0.0626 -0.5063
27165W        W42974  13.459  10.692  13.298  0.0932  0.0095 -0.1009
27166W        W42975   9.196  10.022  12.678  0.1559 -0.1620 -0.0114
27167W        W42976   7.458  17.564   1.073  0.1638 -0.3390  0.1059
27168W        W42977   1.394   6.560  10.466 -0.3420 -0.1064 -0.0099
27169W        W42978  11.260   5.992   4.327  0.1865 -0.0565  0.3169
27170W        W42979   1.083   5.073  14.781  0.1322  0.0542  0.2978
27171W        W42980  15.919  15.207  15.043  0.3764 -0.0631  0.1023
27172W        W42981  15.895  17.906   4.757 -0.0939 -0.1904 -0.1366
27173W        W42982  12.665   3.673  12.071 -0.1930 -0.0887 -0.0281
27174W        W42983  18.186  12.705   3.527 -0.2569 -0.5533 -0.0434
27175W        W42984   2.760   0.342   9.463  0.1938  0.1285 -0.1376
27176W        W42985   1.966   3.396   0.358 -0.0326  0.1417 -0.2151
27177W        W42986   1.535  16.025  11.294  0.3314 -0.3508 -0.2972
27178W        W42987  14.361  11.589   0.643 -0.2842  0.2773  0.1087
27179W        W42988   1.573  16.672   4.064  0.1787 -0.0748 -0.2516
27180W        W42989   6.810   5.006  11.906 -0.0084 -0.1959 -0.0065
27181W        W42990   0.616   6.025   0.434 -0.0368  0.3544  0.0950
27182W        W42991  16.304  14.353   3.711 -0.0881 -0.2175  0.0380
27183W        W42992  10.597  14.809   2.932  0.0866 -0.1297  0.2097
27184W        W42993   0.370   4.168  13.061 -0.1279 -0.1333  0.1712
27185W        W42994  10.965  17.120  14.332 -0.3645  0.2026  0.2644
27186W        W42995   2.410  16.568  12.035 -0.0814  0.2217  0.2205
27187W        W42996  16.286  12.427   1.162  0.2519 -0.0037 -0.0591
27188W        W42997  17.614   4.746  12.044  0.0656  0.0522 -0.0186
27189W        W42998  11.300   2.571   2.515 -0.1328 -0.1078  0.3432
27190W        W42999   8.832   1.292   2.059 -0.5887  0.3229 -0.0740
27191W        W43000   3.452  17.000  11.318  0.0012 -0.1001 -0.0669
27192W        W43001   1.271  14.009  10.658 -0.2272  0.2268 -0.1246
27193W        W43002   2.708  11.185   1.504  0.1373 -0.2118 -0.0427
27194W        W43003   9.138   4.469   3.803 -0.2707  0.0323 -0.1310
27195W        W43004  11.428  10.696   3.337 -0.1487  0.3417 -0.0500
27196W        W43005   9.079  12.512   0.438 -0.0401 -0.0374 -0.2117
27197W        W43006   4.653  14.715   5.554 -0.1512 -0.0690  0.1126
27198W        W43007  18.047  12.710  11.666  0.0623 -0.2107 -0.1522
27199W        W43008  17.954  14.188   0.933 -0.1556 -0.0564  0.1151
27200W        W43009  16.208   6.101   2.860  0.1882 -0.2808 -0.1296
27201W        W43010  15.970   9.072  10.340  0.2643 -0.1527 -0.0006
27202W        W43011   5.655  10.547   3.350 -0.2646  0.1564 -0.1913
27203W        W43012   2.462   9.911   2.625 -0.2215 -0.1711  0.2757
27204W        W43013   4.334  13.271   0.352  0.3373  0.0122  0.2753
27205W        W43014   0.580   6.441   0.720  0.1320  0.2249 -0.3868
27206W        W43015   4.799  18.647   0.000  0.1129  0.1836 -0.0080
27207W        W43016  10.175   6.509  10.609  0.0158 -0.1501  0.0135
27208W        W43017   8.125  13.696  12.662 -0.2347  0.1805 -0.0335
27209W        W43018  12.267   7.976  13.701  0.1255 -0.0891 -0.0275
27210W        W43019   3.161  18.698   3.746  0.2149 -0.0899 -0.0671
27211W        W43020   0.109  18.929  14.895  0.2051 -0.3178 -0.3609
27212W        W43021  14.048   4.506   4.069  0.1426  0.0153 -0.3525
27213W        W43022   4.766   6.147  15.162 -0.1547  0.0536  0.0319
27214W        W43023   7.978   1.890   4.034 -0.2572 -0.0450  0.0190
27215W        W43024   0.018  13.480  10.906  0.2608 -0.0495 -0.0304
27216W        W43025   5.908  13.479   1.712 -0.1861 -0.3064 -0.0910
27217W        W43026   2.604   8.040   1.236 -0.0320 -0.0257 -0.3063
27218W        W43027   4.800   4.160   3.902  0.0792  0.2230  0.1176
27219W        W43028   2.481  13.130   2.024 -0.0552  0.0547  0.1126
27220W        W43029  17.451   3.975  15.212 -0.3393  0.2667  0.2213
27221W        W43030   4.647  15.334   0.854  0.0285  0.1032  0.1703
27222W        W43031   9.810   6.856  10.683 -0.1558 -0.0524 -0.0962
27223W        W43032  17.402  16.956   3.415  0.2600 -0.0514  0.0823
27224W        W43033  18.640  16.389   4.588  0.1270  0.0167  0.2063
27225W        W43034   8.517  18.403  14.118 -0.2451  0.0998 -0.1445
27226W        W43035  16.019  10.387   3.307 -0.0345 -0.3313 -0.0471
27227W        W43036  10.967  19.053  13.153  0.0681  0.3598 -0.1839
27228W        W43037  12.489  17.860  13.556 -0.0794 -0.1955  0.3175
27229W        W43038  14.499   9.107   3.776 -0.3491 -0.0138 -0.1183
27230W        W43039  15.117   4.894  10.799  0.4518 -0.0552 -0.0499
27231W        W43040  15.105  11.849  13.150  0.8346  0.1384  0.0844
27232W        W43041  17.873   5.760  11.914 -0.1500 -0.0847  0.1967
27233W        W43042   8.467  18.042  11.294 -0.0512 -0.0458 -0.0820
27234W        W43043   4.995  12.857   3.145  0.1444  0.2747  0.0462
27235W        W43044  12.623   1.902  14.924  0.0811 -0.1945  0.1921
27236W        W43045   2.630   3.319  11.082  0.0186 -0.0067  0.0509
27237W        W43046  12.427  11.635  11.248 -0.2456  0.1180  0.3163
27238W        W43047   4.448  19.025  15.254  0.1511 -0.0437  0.1515
27239W        W43048   2.696  11.146  14.191 -0.0673 -0.2228 -0.1749
27240W        W43049  15.299  10.941   2.096 -0.2917  0.2348 -0.0538
27241W        W43050  15.465  11.848   1.605  0.0698  0.1756  0.1241
27242W        W43051   6.262   7.126   2.336 -0.4907  0.1663  0.1291
27243W        W43052  17.910   6.142  13.567  0.0874 -0.4068 -0.0661
27244W        W43053   8.762  18.929  10.499  0.1149  0.0179  0.1496
27245W        W43054   1.165  14.386  14.826  0.1663  0.0359 -0.4507
27246W        W43055   0.157   2.026  13.355  0.1349 -0.1004 -0.3121
27247W        W43056  13.511   0.464   4.067 -0.0542 -0.2991  0.1186
27248W        W43057   3.357   8.571   3.757  0.1477  0.3787 -0.1717
27249W        W43058   5.587   0.238   2.208  0.2518  0.0333  0.0653
27250W        W43059  17.741   7.756  12.527 -0.0152  0.0077 -0.0468
27251W        W43060   1.481  10.279  12.987  0.3833 -0.0431 -0.1786
27252W        W43061  13.068   8.757   4.742 -0.0860 -0.0022  0.0650
27253W        W43062  13.359   9.814  11.025 -0.1482  0.1686  0.0451
27254W        W43063   9.910   1.947  10.883  0.0526 -0.1049 -0.0343
27255W        W43064  16.653   7.070   2.785  0.1681  0.4179 -0.0416
27256W        W43065   2.971   4.042  12.439 -0.2872  0.3328 -0.2828
27257W        W43066   2.152  10.475   2.258  0.1132  0.1414 -0.1470
27258W        W43067  11.013   8.378   2.094  0.0584 -0.2627 -0.0016
27259W        W43068  17.763   1.303   3.940 -0.1830 -0.0554 -0.0295
27260W        W43069   0.122  16.399  13.430  0.3000  0.0481 -0.1346
27261W        W43070  13.644   6.686   3.660  0.2346 -0.2239 -0.0791
27262W        W43071   1.915  10.291   3.740 -0.1424 -0.0629 -0.0439
27263W        W43072  13.878  17.459   3.348 -0.0053  0.2599 -0.3551
27264W        W43073  12.041   2.433   1.590 -0.1192  0.3462  0.0477
27265W        W43074   8.612   2.223   1.650 -0.4461 -0.1755  0.2391
27266W        W43075  11.773  13.161  13.346  0.0955  0.0847 -0.1920
27267W        W43076  16.052  17.867  12.129  0.2053  0.0221  0.0084
27268W        W43077  12.562   9.271   5.313 -0.1005  0.1767 -0.0448
27269W        W43078  13.286  15.043   0.033 -0.2422 -0.1904  0.4210
27270W        W43079   1.709   9.081  12.020  0.3248  0.1946  0.1139
27271W        W43080   1.354   4.041  11.276 -0.2213 -0.1159  0.0946
27272W        W43081   2.846  17.638   1.996 -0.0949 -0.1625 -0.1224
27273W        W43082  12.822  12.779  11.193 -0.1993 -0.0273 -0.0194
27274W        W43083   4.337   4.739   0.696  0.0509 -0.0056 -0.1249
27275W        W43084   9.386   6.582  13.698 -0.0856  0.0779 -0.1032
27276W        W43085   8.258   8.212   9.665  0.2359 -0.2128  0.1694
27277W        W43086   5.900  14.099  10.386 -0.0868 -0.3928 -0.0478
27278W        W43087   3.236  13.355   0.589  0.3277  0.1494  0.1537
27279W        W43088   2.206  17.803  11.346 -0.0597  0.2516  0.0257
27280W        W43089  13.164   2.238   4.211 -0.1165 -0.5071  0.0452
27281W        W43090   4.036  10.953   5.001 -0.0883  0.4184 -0.4384
27282W        W43091   0.280   7.213   0.792 -0.3649  0.1638 -0.0069
27283W        W43092  10.910   2.872  14.970 -0.1394  0.1246  0.5132
27284W        W43093  18.932  14.628  12.712 -0.0612  0.1127  0.0847
27285W        W43094   7.243   6.449   1.341 -0.1341  0.0209  0.0379
27286W        W43095   8.492   1.597   2.267 -0.0106 -0.1370  0.0791
27287W        W43096  16.712   4.370  11.014 -0.1995  0.0737  0.0174
27288W        W43097   7.483   5.432  11.908 -0.1636 -0.1020 -0.1813
27289W        W43098  18.989  17.179   6.335 -0.1286  0.0811  0.0881
27290W        W43099  17.005  12.019   4.611  0.0008 -0.0622  0.0436
27291W        W43100  14.708  19.103   0.308 -0.1509 -0.0958  0.0156
27292W        W43101   2.278   6.114  14.518  0.1964  0.0437  0.2364
27293W        W43102   2.196   7.803   1.593  0.1404  0.1053 -0.4790
27294W        W43103  16.403   7.341  14.273  0.0825 -0.2591  0.2305
27295W        W43104  11.554   0.233  13.991 -0.0550  0.0598  0.1368
27296W        W43105  10.594  17.203  11.710 -0.0788  0.0280  0.1665
27297W        W43106   8.529   9.589  12.054  0.0708 -0.1814 -0.3086
27298W        W43107  10.818   0.716   0.878 -0.0660 -0.2587  0.3009
27299W        W43108   0.755   5.990  14.400  0.2590 -0.0019  0.3864
27300W        W43109   0.619  14.001  12.000  0.0863 -0.0780 -0.2075
27301W        W43110  12.035   2.057  11.885 -0.1059  0.3946 -0.1522
27302W        W43111  17.321  12.385   4.530 -0.2425  0.1810 -0.1917
27303W        W43112  12.917  13.416  14.608  0.1206  0.1978 -0.1895
27304W        W43113   8.389  16.240  13.895 -0.2598 -0.0972 -0.0535
27305W        W43114   7.641  13.550   4.004  0.0593 -0.1159 -0.2588
27306W        W43115  10.690   5.025   3.341 -0.2379 -0.0512  0.2346
27307W        W43116  10.187   4.265  10.330  0.0571  0.1606  0.0139
27308W        W43117   5.618  11.783   3.995  0.0164  0.0369 -0.0079
27309W        W43118  16.254   9.922   1.164 -0.0029 -0.2431  0.2056
27310W        W43119  10.963  11.454   2.952 -0.1222 -0.0777  0.2637
27311W        W43120   1.504   6.953  10.757  0.0572  0.1577 -0.2847
27312W        W43121  11.237   7.654  11.009 -0.4381  0.0893  0.0833
27313W        W43122   6.311  12.822   2.830  0.0699 -0.0966  0.0957
27314W        W43123  14.124   0.448  12.547 -0.1597  0.0064 -0.5927
27315W        W43124   0.753   5.974   2.823 -0.0029  0.1807  0.0316
27316W        W43125   0.139   6.643  10.377  0.2283  0.1320  0.1141
27317W        W43126   6.684   4.784   9.867  0.3581 -0.2357  0.0949
27318W        W43127  15.586   9.181   1.182  0.0121  0.0601  0.0334
27319W        W43128  17.042   9.973   0.191 -0.0588 -0.1468 -0.0725
27320W        W43129  11.932   7.788   2.366 -0.1942  0.2794 -0.0244
27321W        W43130  16.374   2.065  13.877 -0.1803  0.0335  0.2060
27322W        W43131   7.565  11.204  11.179  0.2100  0.0248  0.1689
27323W        W43132   7.792   0.946   0.820  0.1791 -0.0683 -0.1556
27324W        W43133   5.384   9.949   1.697  0.3908 -0.1265 -0.0100
27325W        W43134   8.831   9.628   5.792 -0.2677 -0.0473 -0.0417
27326W        W43135  10.623   7.365   3.195  0.0250  0.3494  0.0950
27327W        W43136  14.366  14.725   4.179 -0.2585 -0.3500  0.4941
27328W        W43137  12.363   5.254   2.488  0.3072  0.0930  0.2282
27329W        W43138   6.899   7.566  15.179 -0.2910  0.1336  0.0911
27330W        W43139   8.011   0.094   3.715  0.3827  0.1133  0.1404
27331W        W43140   0.494  15.159   4.772  0.1053  0.1355 -0.0784
27332W        W43141   7.802  14.973  14.337  0.3842  0.0994  0.2023
27333W        W43142   4.533  10.608  15.224 -0.0427 -0.0350  0.1731
27334W        W43143  17.661   6.383   1.653 -0.1971  0.1012 -0.1248
27335W        W43144   7.275   8.027   3.134 -0.1459 -0.3616 -0.1116
27336W        W43145  11.419  15.277   2.285 -0.0788  0.0460  0.1294
27337W        W43146  16.589  19.051  11.016 -0.0991  0.2619  0.0095
27338W        W43147   9.788  17.641   5.178 -0.3987  0.1519  0.0614
27339W        W43148   1.410   4.437  13.129  0.2840  0.1572 -0.0429
27340W        W43149   8.942  12.299  10.832 -0.1738 -0.1109  0.2142
27341W        W43150  11.813   2.372   3.072 -0.0508  0.0041  0.2277
27342W        W43151  16.978   2.681   2.016 -0.2629  0.1210  0.0219
27343W        W43152   6.470   0.333  11.302 -0.0675  0.0234  0.0751
27344W        W43153   7.498   3.112   2.126  0.1255 -0.1435 -0.0997
27345W        W43154  12.258  13.197  11.884 -0.0798 -0.0870  0.3951
27346W        W43155   6.794   1.227  12.370  0.0356 -0.0233 -0.3556
27347W        W43156  18.381   5.272  10.405 -0.1797  0.0268  0.1474
27348W        W43157  18.215   5.253   3.527 -0.1671  0.1276  0.1393
27349W        W43158  11.817   6.033   9.266 -0.1316 -0.1828  0.1021
27350W        W43159  14.873  10.982  14.780 -0.1427  0.0337  0.2292
27351W        W43160   5.776   8.789  12.668 -0.1667  0.0661 -0.2929
27352W        W43161   9.633  14.911   2.804 -0.1088 -0.0173  0.0722
27353W        W43162  13.613   7.609  14.233 -0.1004 -0.2204 -0.0316
27354W        W43163   3.103   4.005   1.730  0.1183  0.1165 -0.3001
27355W        W43164  18.681   7.070  12.047  0.0292  0.2177 -0.0369
27356W        W43165  13.613  10.706  11.967  0.1664 -0.4135 -0.0194
27357W        W43166  14.876   5.384  14.249  0.2130  0.2190  0.0191
27358W        W43167   3.602  14.695  10.650  0.1184 -0.0954 -0.1427
27359W        W43168   4.104   9.706   0.202 -0.0326  0.2109 -0.1147
27360W        W43169   1.669  15.609   5.098  0.1480 -0.3268 -0.1855
27361W        W43170   1.295   7.369   5.906  0.1398 -0.0486  0.0932
27362W        W43171  11.378  17.850   4.669  0.0712  0.1125 -0.1725
27363W        W43172  18.307  17.440   1.481  0.3230 -0.0058 -0.2352
27364W        W43173  10.650  10.220  11.206  0.2449 -0.0733  0.0330
27365W        W43174  18.150   2.555   3.884 -0.1384 -0.3088 -0.0272
27366W        W43175  19.128  15.438   1.938 -0.0108  0.0982  0.4350
27367W        W43176   3.772   7.557  14.102 -0.1016 -0.2417 -0.1421
27368W        W43177  10.472   1.077   4.859 -0.0092  0.2191  0.2435
27369W        W43178  10.926   9.764   9.907  0.4579  0.0835  0.2404
27370W        W43179  18.729   0.436  14.376  0.0379  0.3419 -0.0528
27371W        W43180  11.533   6.584  15.205  0.0333 -0.1869 -0.2756
27372W        W43181  15.173   3.806   3.311 -0.2519 -0.1491  0.0955
27373W        W43182  15.412   6.150   2.793 -0.3498 -0.1133  0.3973
27374W        W43183  18.306   4.237  15.074  0.0091 -0.6307  0.0987
27375W        W43184   0.945  18.728  15.102 -0.0434 -0.2002  0.0293
27376W        W43185   9.479   1.777   1.791 -0.1153 -0.0997 -0.0439
27377W        W43186   6.985  10.217   0.525  0.2547  0.1103 -0.0652
27378W        W43187   0.956   9.722   0.909 -0.2145  0.0539  0.1445
27379W        W43188   7.406  16.252   2.445 -0.1760  0.1756  0.1518
27380W        W43189  13.981  10.895   1.723  0.0497 -0.2283 -0.2391
27381W        W43190  13.824   6.106  12.041 -0.0361 -0.0196  0.3162
27382W        W43191   5.796   7.001  14.349  0.0065 -0.2743 -0.0077
27383W        W43192   1.870  18.864   0.899 -0.1561  0.2981  0.4548
27384W        W43193  12.643   2.015   3.539  0.0544  0.1634 -0.2847
27385W        W43194  11.695   8.021  11.688  0.1997 -0.3144  0.2721
27386W        W43195  10.421   5.755  15.082  0.1402 -0.2815  0.1122
27387W        W43196   5.041  10.192   3.968  0.0803 -0.0711 -0.1149
27388W        W43197  13.423  19.082  12.955  0.2647 -0.2340 -0.3188
27389W        W43198   6.597  10.267  10.308  0.3203 -0.0328 -0.0311
27390W        W43199   7.668   8.028  10.752 -0.0391  0.2759  0.0526
27391W        W43200   0.158  12.061  10.741  0.1836  0.2382 -0.3856
27392W        W43201   1.553   5.479  13.428  0.3305  0.3979  0.1862
27393W        W43202  11.403  11.119   3.631  0.5345 -0.1547  0.1004
27394W        W43203  11.054  18.561   3.995  0.0055 -0.0521 -0.3100
27395W        W43204   4.557  17.444   3.071 -0.0136 -0.0819  0.2815
27396W        W43205   3.467   3.084  11.075  0.0216  0.0439 -0.1689
27397W        W43206  12.306  14.809   0.190  0.0934 -0.1007 -0.2858
27398W        W43207   5.466   3.540   3.550  0.0664  0.0062 -0.2636
27399W        W43208  12.914   1.175   2.989 -0.1334 -0.0434 -0.1366
27400W        W43209   7.237  19.006   4.351 -0.1290 -0.2136  0.0384
27401W        W43210   3.606  14.877  12.306 -0.0783 -0.3196 -0.0333
27402W        W43211   2.435  15.471   3.956  0.1722 -0.2562  0.1686
27403W        W43212   0.153   0.520   1.255 -0.0821 -0.0642 -0.2386
27404W        W43213   3.295   2.146   1.777 -0.1018  0.2329  0.2033
27405W        W43214  14.192  11.569  13.270  0.1008 -0.0354  0.1174
27406W        W43215   7.234   3.489  14.656  0.1206  0.2649  0.2596
27407W        W43216  17.427   5.598   9.510 -0.0770 -0.0316  0.2473
27408W        W43217   9.884   0.512  10.738  0.2857  0.0438 -0.0184
27409W        W43218  16.620  10.476  11.342 -0.1075  0.3329  0.3162
27410W        W43219   0.265   4.903   3.687  0.2168  0.1211 -0.3626
27411W        W43220  17.333   3.405  10.474  0.2036 -0.3087  0.1226
27412W        W43221   5.312  11.342  10.967 -0.0938 -0.1756 -0.0871
27413W        W43222  12.699   2.709  14.612 -0.5427 -0.3692  0.1986
27414W        W43223  14.797   3.565  14.129 -0.0643  0.0191  0.2046
27415W        W43224   7.823  12.552  14.910 -0.2501 -0.0678 -0.4408
27416W        W43225   4.593   4.452  14.958 -0.1832  0.1927 -0.1061
27417W        W43226   2.033   4.359  12.073 -0.2203  0.2142 -0.0927
27418W        W43227  17.731   7.450  13.071 -0.1135 -0.1550 -0.1159
27419W        W43228   9.438  11.272   4.390 -0.3954  0.0619 -0.0129
27420W        W43229  17.971   1.260   5.409 -0.1779  0.2251 -0.1777
27421W        W43230   1.914   3.535  12.171 -0.0869  0.2790 -0.1672
27422W        W43231  13.773  18.974  14.041 -0.0102  0.2668  0.0323
27423W        W43232   1.323   6.619   0.017 -0.1761 -0.1280  0.1917
27424W        W43233   7.738   2.878  15.011  0.0436  0.2550  0.4018
27425W        W43234   8.854  14.150  13.966  0.2563 -0.0966  0.2255
27426W        W43235   2.601   6.280  11.682  0.0811  0.0975  0.1931
27427W        W43236  13.660  15.245   1.893  0.0790  0.0675  0.0443
27428W        W43237   5.980  14.359  14.089  0.0838  0.1367  0.0424
27429W        W43238  15.116   4.663  13.806 -0.2711  0.0569 -0.2592
27430W        W43239   0.713   1.000   4.564 -0.0190 -0.1962  0.3632
27431W        W43240  18.974  13.158   0.582  0.1502  0.0807  0.3168
27432W        W43241  13.803  16.211  14.418  0.2606  0.2676  0.0059
27433W        W43242  14.078   3.185   4.517  0.0907  0.2757 -0.1393
27434W        W43243   6.274   0.991   2.916  0.1194 -0.3457 -0.1664
27435W        W43244   8.160  10.026   3.367  0.0296  0.3049  0.3325
27436W        W43245  14.916   6.216   2.541 -0.2009  0.1852 -0.0115
27437W        W43246  18.815   8.909   0.028 -0.3444 -0.0756 -0.0045
27438W        W43247   3.895  12.414   9.896 -0.0411 -0.0004 -0.0695
27439W        W43248   5.792  16.787  14.535 -0.4464 -0.2609  0.0387
27440W        W43249  12.585  18.825  13.867  0.1843 -0.1332 -0.3650
27441W        W43250  15.777   2.246  11.446 -0.1695 -0.0246 -0.1385
27442W        W43251   9.698  16.804   3.147  0.0177  0.3506  0.0280
27443W        W43252   7.391   2.216   0.184  0.0651  0.0354  0.1396
27444W        W43253  15.604   3.198   4.436 -0.1636  0.1240  0.1015
27445W        W43254   0.769   4.040   0.526 -0.0868 -0.1543 -0.0944
27446W        W43255  17.173   6.298   0.927  0.1998  0.1019  0.3184
27447W        W43256  11.509  13.559  11.343  0.1216 -0.2408  0.1196
27448W        W43257  11.937   3.509  13.222 -0.0263  0.0683  0.1055
27449W        W43258  14.752  10.501  14.584 -0.0622  0.0230 -0.0570
27450W        W43259   6.666   4.901   3.228 -0.1656 -0.0672  0.1150
27451W        W43260  14.744  11.048   5.823 -0.0570  0.2100 -0.0532
27452W        W43261   0.482   5.822   2.074 -0.0635  0.0874 -0.0765
27453W        W43262  12.449   1.371   0.168 -0.1732  0.1021 -0.1690
27454W        W43263   1.817   9.923   3.428  0.3548 -0.1223 -0.3414
27455W        W43264  16.297   0.902  10.244  0.0615 -0.1728  0.1861
27456W        W43265   0.914   8.148   6.250  0.1183 -0.2392 -0.0997
27457W        W43266   8.248  17.246  15.193 -0.2453  0.0232  0.1402
27458W        W43267   3.856  15.768  13.067 -0.0930 -0.0089 -0.2437
27459W        W43268   2.883  12.629   0.770  0.0628  0.1406  0.1266
27460W        W43269   3.872  17.847  15.215 -0.0710 -0.1606  0.0927
27461W        W43270  17.970  14.406   1.486  0.0108 -0.0810 -0.1589
27462W        W43271  15.595  12.196  13.025  0.0430  0.0709  0.1746
27463W        W43272  11.096  18.618  12.301  0.2240  0.1829 -0.0104
27464W        W43273   9.049   9.086   0.424  0.1916 -0.4983 -0.0593
27465W        W43274  17.690  14.515   4.611  0.1393  0.2760  0.2367
27466W        W43275   5.910   5.499  12.745 -0.2331  0.0257  0.2458
27467W        W43276  14.652  15.204   1.180  0.1572 -0.0035  0.0148
27468W        W43277  11.380  14.592  11.657  0.4138  0.0256 -0.0120
27469W        W43278   7.107   5.815  12.722 -0.0852  0.0130 -0.0639
27470W        W43279   7.817  11.288   0.686 -0.1435 -0.3035 -0.1678
27471W        W43280   2.720   1.469  10.056  0.1776 -0.0732 -0.1294
27472W        W43281  16.642   9.107   9.778 -0.1063  0.5302 -0.3748
27473W        W43282   0.022   3.394   4.305  0.2598 -0.1784 -0.1985
27474W        W43283  14.301   1.691   1.913  0.2094 -0.1103 -0.0516
27475W        W43284  18.392   9.314  11.067 -0.3229  0.3458  0.2420
27476W        W43285   6.407   8.912  14.531  0.0042 -0.0657 -0.0196
27477W        W43286  15.858  19.130   3.442  0.1082  0.5016 -0.2843
27478W        W43287  16.936   6.009  14.058  0.0104 -0.0842  0.2143
27479W        W43288   3.084   4.023   2.871 -0.1050  0.4183 -0.2110
27480W        W43289   8.157  11.184   1.263 -0.0112  0.0526  0.3366
27481W        W43290  17.158  17.771  14.838  0.1179  0.1101 -0.1224
27482W        W43291   3.705   4.240   5.015  0.4006  0.3492  0.3748
27483W        W43292  14.491  12.807  10.737 -0.1334 -0.0847 -0.0029
27484W        W43293   8.087  12.781  11.415 -0.0159 -0.1029  0.2888
27485W        W43294   1.056  13.164   0.572  0.2860 -0.1375  0.0672
27486W        W43295  18.241  10.707  12.184 -0.1664 -0.2089 -0.0938
27487W        W43296   6.315   3.609   2.885  0.1187  0.0374 -0.0551
27488W        W43297  13.263   5.698   1.179  0.0771  0.0950  0.1191
27489W        W43298  12.682  13.812   4.928 -0.1867 -0.0182 -0.0347
27490W        W43299   8.582  14.498   2.416 -0.2213  0.2756 -0.1718
27491W        W43300  11.230  13.087  11.104  0.3260 -0.1655 -0.0676
27492W        W43301  18.289   1.289  11.134 -0.1428 -0.0414 -0.1130
27493W        W43302   4.661   5.629  12.884  0.0517 -0.0671  0.0896
27494W        W43303   4.253   8.752   1.330  0.4750 -0.1960  0.0532
27495W        W43304   5.443  18.218  11.381  0.0903  0.2434 -0.0784
27496W        W43305  18.892  14.136   3.092  0.1534  0.0670 -0.2380
27497W        W43306  17.831   9.317   5.050 -0.2182  0.1307  0.2780
27498W        W43307  16.730  11.323  14.928  0.1038  0.0520  0.2349
27499W        W43308   8.960   4.848  11.028  0.0605 -0.0374  0.1197
27500W        W43309  17.282  11.589  14.818 -0.1996  0.2558 -0.0200
27501W        W43310   1.361   0.129  11.007  0.0447 -0.0810 -0.0479
27502W        W43311  18.362   4.250  12.287 -0.2363 -0.0597 -0.0766
27503W        W43312   1.211   9.207   2.279  0.4936  0.0023 -0.0068
27504W        W43313  10.985   4.289  15.255 -0.0035  0.0654 -0.1200
27505W        W43314   6.122   2.657   4.564  0.2731 -0.1020 -0.1714
27506W        W43315  18.613   2.176   1.139 -0.3578  0.0501 -0.1900
27507W        W43316  13.607  10.258   1.589 -0.1153  0.0651  0.2106
27508W        W43317   8.495   1.585   2.809  0.1330 -0.1451  0.2716
27509W        W43318   8.493   8.027   0.788 -0.3673  0.2820 -0.1294
27510W        W43319   2.125   6.094  10.894 -0.0016  0.2088 -0.1334
27511W        W43320  12.788   7.733   0.081 -0.1926 -0.0421 -0.1659
27512W        W43321  18.063   7.778  14.935  0.2673 -0.0284  0.0090
27513W        W43322   6.315   3.831   9.734  0.1646 -0.1520  0.1397
27514W        W43323  14.776   9.816   2.507 -0.5013  0.1523 -0.0910
27515W        W43324   3.563   6.391  13.648  0.1142  0.2498  0.4336
27516W        W43325   5.089  13.552   0.568 -0.2531  0.0689  0.1010
27517W        W43326  14.135  11.510   2.874 -0.0210 -0.0288  0.1417
27518W        W43327   8.484   8.715  14.665 -0.1001  0.2359 -0.0627
27519W        W43328   6.232  16.020   3.662 -0.3735 -0.0690  0.1163
27520W        W43329   3.044  10.161   1.866  0.3447 -0.1269  0.1769
27521W        W43330   5.610   8.922  13.590  0.0126 -0.0970  0.1312
27522W        W43331  11.971  14.602   5.055 -0.1809 -0.0118 -0.0136
27523W        W43332  14.181   5.040  10.703  0.2118 -0.2878 -0.3259
27524W        W43333   5.947   5.948  14.249  0.2927  0.2181  0.2205
27525W        W43334  18.012   7.069   3.324 -0.1274  0.1236  0.0903
27526W        W43335  14.397  12.128  11.920  0.2351  0.1083  0.1391
27527W        W43336  17.354  10.763  11.698 -0.2878 -0.0772  0.0725
27528W        W43337  17.668   2.687  14.306 -0.1610 -0.1861 -0.3246
27529W        W43338   3.731  11.048   1.630 -0.3451 -0.0301  0.1462
27530W        W43339  10.183  13.062   2.165  0.0641  0.2364  0.2096
27531W        W43340   5.165  12.372   1.889 -0.2906  0.2912 -0.1089
27532W        W43341  15.580   0.150   3.882 -0.0473  0.3238  0.1483
27533W        W43342  18.448   0.753   4.174  0.1791 -0.0061  0.2155
27534W        W43343   8.376   5.505   3.028  0.0636  0.1047 -0.0964
27535W        W43344  11.320  12.897   2.506 -0.0393  0.0440 -0.1296
27536W        W43345  16.979   3.151  13.088 -0.2548 -0.1118  0.3700
27537W        W43346  11.932   3.526  12.281  0.2060 -0.1265  0.0356
27538W        W43347  18.366   4.232  10.423 -0.3963 -0.0626 -0.3703
27539W        W43348  10.054   5.901  13.680  0.0808 -0.1437 -0.3332
27540W        W43349  13.106  12.963  14.747 -0.2022 -0.1646  0.1478
27541W        W43350  15.558  13.663  12.247  0.0652 -0.0133 -0.2591
27542W        W43351   2.222  14.828   0.879 -0.0571  0.1440  0.1638
27543W        W43352   5.338   5.729  11.821  0.1925  0.2162  0.2837
27544W        W43353  16.508  15.713  12.585  0.1660 -0.0869  0.1413
27545W        W43354   5.378  16.510   3.559 -0.0581 -0.1454 -0.2346
27546W        W43355   3.262  11.387  14.118  0.3243  0.0208  0.0596
27547W        W43356   2.042  12.786  10.599  0.1634  0.1575 -0.1476
27548W        W43357   6.998  12.687   4.486 -0.0006 -0.0326  0.0008
27549W        W43358   1.476  12.939  11.531 -0.1564 -0.2705  0.1551
27550W        W43359  19.024   1.249  10.581  0.1116 -0.2066  0.4576
27551W        W43360  19.020   0.133  11.295 -0.1207 -0.2186 -0.0428
27552W        W43361  14.125   9.659   0.810 -0.0717  0.3120 -0.0396
27553W        W43362   2.107  15.648   1.367 -0.2917 -0.3748 -0.2094
27554W        W43363  16.068  12.242  14.281 -0.0296  0.0721 -0.0531
27555W        W43364   7.473  16.598   3.823  0.0113  0.0766  0.1615
27556W        W43365   1.435  11.603  11.675 -0.4894  0.1976 -0.2633
27557W        W43366   9.011   5.653  11.921 -0.4705 -0.0428  0.0723
27558W        W43367  12.553  12.768   1.892 -0.2371  0.0012 -0.1240
27559W        W43368  16.559  12.315  14.988  0.1474 -0.2009  0.1717
27560W        W43369   3.194  17.498   4.996  0.0070  0.0741  0.1817
27561W        W43370  17.369  13.104   3.712 -0.1009 -0.0469 -0.0105
27562W        W43371  13.332   9.206   2.138  0.2820 -0.2136  0.2605
27563W        W43372  14.167  10.061  13.728  0.0171  0.0825  0.1671
27564W        W43373   0.351  13.193   0.595 -0.0350  0.1362  0.5477
27565W        W43374  12.288   3.037  10.878  0.2390  0.2019  0.2335
27566W        W43375   2.250   1.466  13.909  0.4424  0.0867  0.2562
27567W        W43376  15.452   2.022  12.357 -0.2918 -0.3044 -0.1143
27568W        W43377  12.018  12.378   0.173  0.0857  0.0978  0.0367
27569W        W43378  17.458   3.096   5.115 -0.3434 -0.0537  0.1230
27570W        W43379  16.775   5.549   1.808 -0.1358 -0.1290 -0.1782
27571W        W43380   3.819   6.764  10.294 -0.1030 -0.1264  0.0523
27572W        W43381  16.596  15.251   2.897  0.2195 -0.4586 -0.1507
27573W        W43382  17.393   1.818  13.978  0.0527  0.0226  0.0293
27574W        W43383   7.964   8.169   0.966  0.0785 -0.2912 -0.0364
27575W        W43384   5.223   8.791  12.504 -0.2568 -0.1797 -0.0558
27576W        W43385  15.183  15.826  11.999  0.0653  0.2303 -0.0554
27577W        W43386   5.764  12.254   4.169  0.0563  0.1759  0.0143
27578W        W43387  14.025   7.583   1.470 -0.3218  0.1101  0.0199
27579W        W43388   0.998  13.733   4.058 -0.0215 -0.1419  0.1750
27580W        W43389  13.153   7.480  14.464  0.3047  0.0768 -0.2719
27581W        W43390   0.425   1.746  11.105 -0.0880  0.1547  0.1404
27582W        W43391  12.270   1.831   1.945 -0.0185 -0.0954 -0.0747
27583W        W43392   9.245  10.329   0.632  0.1640 -0.0730 -0.1617
27584W        W43393   6.755   6.630   3.126 -0.0926 -0.1023  0.2645
27585W        W43394   5.143  15.150  15.088 -0.0934 -0.0427  0.1892
27586W        W43395  10.074  10.090  13.768 -0.1399  0.2592 -0.2445
27587W        W43396   0.685  12.012  14.211 -0.0216  0.0710  0.2329
27588W        W43397  18.846   5.190   1.953  0.1592  0.4291 -0.1468
27589W        W43398  18.427   6.247  10.463 -0.1128  0.0628 -0.0277
27590W        W43399  14.393  15.817   2.313  0.0438  0.1442  0.2080
27591W        W43400  13.629  18.920   2.382  0.2347 -0.1867  0.0079
27592W        W43401  13.739  12.364   5.244 -0.0380  0.0512  0.1223
27593W        W43402  15.568   2.060   3.363  0.0436  0.3801 -0.5052
27594W        W43403  14.012   1.440   5.724 -0.1689  0.2531  0.1581
27595W        W43404  19.037  18.412   5.842 -0.0911 -0.0698 -0.0482
27596W        W43405  17.523   1.619  13.447  0.3297 -0.1624 -0.1005
27597W        W43406   0.381  10.599   3.517  0.1900 -0.0315 -0.1178
27598W        W43407   2.862   0.577   3.888  0.2032 -0.4504  0.1114
27599W        W43408   9.978   6.578  14.065  0.1958  0.1976 -0.2047
27600W        W43409  16.980   6.361  14.980  0.0170  0.2768  0.0977
27601W        W43410  11.233  17.155  12.929 -0.0215  0.0328  0.1176
27602W        W43411   2.825  12.779   4.534 -0.4305 -0.0066  0.2175
27603W        W43412   8.675   0.100  11.780  0.0671  0.0909 -0.0363
27604W        W43413  12.274  11.211  13.213 -0.3692  0.1369  0.0947
27605W        W43414  16.503  18.763  12.752 -0.2137 -0.3361  0.0369
27606W        W43415   0.413   6.458  10.769 -0.0374 -0.0496 -0.3815
27607W        W43416  11.469   3.143   1.769  0.0563  0.0544  0.2043
27608W        W43417   7.542  14.917  11.829  0.0658 -0.1535  0.0126
27609W        W43418   0.270   7.533  14.090 -0.0104 -0.1178 -0.2173
27610W        W43419  16.057  18.927   3.892 -0.2158  0.1271 -0.1530
27611W        W43420   5.778   9.040   3.113  0.0059 -0.0583 -0.3462
27612W        W43421   1.188   3.028   0.415  0.0761 -0.2460 -0.1812
27613W        W43422   4.276  10.194   0.186 -0.0513  0.2824  0.0522
27614W        W43423  13.072  15.776   9.938 -0.0565  0.0817  0.1158
27615W        W43424  12.304  17.548  13.231 -0.0627  0.0383  0.0679
27616W        W43425   6.756   1.944   0.950  0.0348  0.0649  0.0316
27617W        W43426  12.353   1.244   1.132  0.0819 -0.2431 -0.0527
27618W        W43427  10.019  17.260  14.613 -0.0260  0.2453 -0.0263
27619W        W43428  12.827   2.484  12.450 -0.1392  0.4560 -0.1387
27620W        W43429   5.797  14.402   2.660 -0.3362 -0.3248 -0.1130
27621W        W43430   6.592   6.206   0.763  0.0754  0.1498  0.1881
27622W        W43431   7.698   9.577   0.295  0.0010 -0.2055 -0.0560
27623W        W43432  13.024  17.932  12.585 -0.2123  0.1037 -0.0302
27624W        W43433  18.365  10.457   3.098  0.0102 -0.0308 -0.0154
27625W        W43434  13.714   7.578   0.031 -0.5229 -0.0597  0.0078
27626W        W43435   6.019   2.825   3.901  0.1018 -0.1147 -0.3706
27627W        W43436   8.567   0.738   3.291  0.0007 -0.1076 -0.3199
27628W        W43437   7.743  18.365  11.335 -0.0622  0.3381 -0.1415
27629W        W43438  17.875   8.972  15.000 -0.0540  0.0876 -0.0140
27630W        W43439  12.365  11.174   5.376 -0.2816 -0.1449 -0.4266
27631W        W43440   8.792   3.311  12.820  0.1752  0.2299  0.0077
27632W        W43441  14.906   6.262   0.609 -0.3653  0.0544 -0.0998
27633W        W43442  16.154   2.485  14.140  0.0101 -0.2108 -0.1210
27634W        W43443   2.234  18.890  12.191  0.3862  0.0487 -0.0343
27635W        W43444   1.947   5.722  13.124  0.3174 -0.0436  0.0460
27636W        W43445  11.473   3.443   3.622  0.1214 -0.0238  0.3635
27637W        W43446  11.743   9.494  14.697  0.1405  0.0042 -0.0556
27638W        W43447  17.017  15.243  14.425  0.1032 -0.0286  0.2495
27639W        W43448  14.433  10.867   0.192 -0.3340  0.0861 -0.2767
27640W        W43449  10.132  11.399   3.644  0.1491  0.0135  0.0010
27641W        W43450   7.981  16.788  13.398 -0.2853 -0.0541 -0.4695
27642W        W43451   8.043  17.468   2.421 -0.0564 -0.1032 -0.3904
27643W        W43452   8.435   7.517  14.343  0.0222  0.6938 -0.0709
27644W        W43453   3.345  15.569   0.684  0.0078  0.0638 -0.1680
27645W        W43454  11.837  14.577   0.457  0.0712 -0.3731  0.1396
27646W        W43455   7.060  12.294   3.451  0.2513  0.3327 -0.0531
27647W        W43456  13.496  14.650   1.226  0.2889  0.0129 -0.0291
27648W        W43457  13.165  15.782  13.759  0.2564  0.0684 -0.0634
27649W        W43458  12.801  10.684  11.319  0.0187  0.1078  0.2462
27650W        W43459  17.291   0.451   4.203 -0.0616  0.1559 -0.1652
27651W        W43460  11.646  12.249   2.951  0.1317 -0.0019  0.1572
27652W        W43461  15.263  18.778  13.928 -0.3561 -0.1142  0.0151
27653W        W43462   3.645   5.539  11.246  0.0651 -0.3033  0.0076
27654W        W43463  12.190  17.010   4.031 -0.2257  0.0681 -0.2884
27655W        W43464  14.449   4.277   5.034  0.1187  0.1647 -0.2781
27656W        W43465   0.976   0.388  13.591  0.0467  0.0308 -0.0950
27657W        W43466  13.205   4.379   3.704  0.1033 -0.3316  0.1769
27658W        W43467  16.882   4.179   4.567 -0.0371  0.0829 -0.0826
27659W        W43468   1.076   9.309  14.376  0.0045  0.0360 -0.2054
27660W        W43469   4.355   3.158  11.433  0.3572  0.3481 -0.0268
27661W        W43470  12.663  17.588  12.430 -0.0739 -0.0784  0.1225
27662W        W43471  12.614  17.879   4.558 -0.4608  0.3134  0.0693
27663W        W43472  15.958  10.410  14.175  0.2551  0.1473 -0.1074
27664W        W43473   1.615  11.841  12.940 -0.2969 -0.2410 -0.1495
27665W        W43474   9.839   5.352   3.902  0.1425  0.0810  0.1765
27666W        W43475  14.596   5.571   4.105 -0.4123 -0.3179  0.2782
27667W        W43476  10.538   3.583  10.862 -0.3225  0.0335 -0.1294
27668W        W43477   0.378   8.345  14.330  0.0712  0.0063 -0.1600
27669W        W43478   0.512  14.395  13.169  0.1748  0.1780  0.2876
27670W        W43479  12.586  17.816   2.813 -0.1635  0.2253 -0.2228
27671W        W43480  10.031   5.173   0.637 -0.0483  0.4099  0.2446
27672W        W43481   0.418   2.022  12.319  0.1710 -0.0365  0.0821
27673W        W43482  18.414  14.300  12.684  0.1673 -0.0867 -0.0513
27674W        W43483   0.077   9.629   0.005 -0.1833 -0.0930 -0.0034
27675W        W43484   6.402   2.442  12.790  0.0402 -0.2742  0.1796
27676W        W43485   4.007  16.861  11.446  0.0465 -0.0434  0.1624
27677W        W43486  14.464  12.924  12.604  0.0280  0.1325 -0.3856
27678W        W43487  11.439   7.568  12.482 -0.0371  0.1620  0.2693
27679W        W43488   8.376   3.824  10.821  0.0116 -0.0238 -0.0233
27680W        W43489  12.072   8.402  14.063  0.2683 -0.0447  0.3112
27681W        W43490   2.638   3.957   3.644 -0.2756 -0.2361  0.1593
27682W        W43491   7.697  15.939  13.841  0.0984  0.0344 -0.4092
27683W        W43492   7.832   3.816   3.170  0.1314 -0.0710 -0.1691
27684W        W43493  10.942   9.452  13.101  0.0219 -0.1836  0.0667
27685W        W43494   6.467   0.508   3.794  0.3017 -0.0866 -0.0584
27686W        W43495   1.230   6.630  12.038  0.0125 -0.1932 -0.3131
27687W        W43496  18.549   9.387   1.426 -0.1468 -0.4251 -0.2135
27688W        W43497  11.108   5.562   4.952 -0.2300  0.2205 -0.2619
27689W        W43498   9.803  10.043   2.034 -0.2348  0.3171 -0.2763
27690W        W43499  14.188  11.475  14.929 -0.0592  0.2088  0.4140
27691W        W43500  17.605   4.113  11.249  0.1792 -0.2186  0.2227
27692W        W43501   1.696  15.757   3.701  0.5005 -0.2473 -0.1700
27693W        W43502   3.740   1.446   3.377  0.1115  0.1227  0.0463
27694W        W43503  11.311  11.427  12.057 -0.1205  0.1403  0.1021
27695W        W43504  15.860   8.646   5.034 -0.2065 -0.0160  0.2136
27696W        W43505  17.646  11.135   4.469  0.1314  0.0241 -0.0611
27697W        W43506  18.323  16.522  12.892  0.2000 -0.2690 -0.1106
27698W        W43507  14.591   4.023  14.085 -0.1385  0.0848  0.3089
27699W        W43508  17.496   8.580  14.886 -0.0424  0.1035  0.0558
27700W        W43509  14.705   3.628   4.063  0.0274  0.1827 -0.1179
27701W        W43510   1.691  13.899   2.685  0.1547  0.0280  0.2782
27702W        W43511   1.243  13.138   4.656 -0.1337  0.1958 -0.0629
27703W        W43512  12.386   8.510   2.249  0.1809 -0.0146 -0.2644
27704W        W43513  11.457   6.889  13.541 -0.2873 -0.1662 -0.0209
27705W        W43514   9.712  12.007  13.407  0.0154  0.3574  0.2245
27706W        W43515   7.906  10.461  14.535 -0.1315  0.1662 -0.0272
27707W        W43516   8.609   7.131  13.147 -0.1372 -0.0932  0.2684
27708W        W43517   1.305   6.926   5.624  0.0959 -0.1181  0.0178
27709W        W43518   8.787   5.028   0.733  0.2137  0.0414  0.4078
27710W        W43519   6.403   4.129   0.637  0.0216  0.2457 -0.2543
27711W        W43520   4.583   0.523   3.504 -0.1505  0.2686  0.2358
27712W        W43521  18.820  16.915   2.982 -0.1186  0.0787 -0.0980
27713W        W43522   4.002  18.811   2.635 -0.0445  0.1415  0.0626
27714W        W43523   8.751   3.624   1.516 -0.2781  0.1100  0.2500
27715W        W43524   3.653   1.696   0.659  0.1297  0.0756 -0.0043
27716W        W43525  14.426   7.616  11.124  0.1185 -0.3310  0.2906
27717W        W43526   4.492  10.892   4.135 -0.0568 -0.3349  0.3570
27718W        W43527   5.012  16.616  11.390 -0.1165 -0.1358  0.4820
27719W        W43528   9.231   0.722   4.383  0.2292 -0.1332  0.4636
27720W        W43529  16.721  10.610   0.964  0.1845  0.2163  0.0099
27721W        W43530   1.793   3.622  12.669  0.1407  0.2824 -0.0858
27722W        W43531  14.241  18.922   0.403  0.0329  0.1992 -0.1660
27723W        W43532  14.503   4.493   2.099  0.0258  0.3025  0.4267
27724W        W43533  12.205  16.096   3.108 -0.1471  0.0848  0.0589
27725W        W43534   6.903   2.989   2.891 -0.2435  0.1489  0.0501
27726W        W43535   5.520   5.793  13.966  0.0024  0.0486 -0.1361
27727W        W43536  15.685   7.991  10.752 -0.1906  0.2495 -0.0702
27728W        W43537  14.618   4.697   5.101  0.1968 -0.2548  0.1429
27729W        W43538   0.448  11.145   0.042 -0.4605  0.0880  0.1311
27730W        W43539   5.246  17.509  11.344 -0.0777 -0.3919 -0.0786
27731W        W43540  17.291   4.532  11.308 -0.0720  0.1306  0.0401
27732W        W43541  14.920   2.255   4.260  0.0411 -0.0171 -0.3098
27733W        W43542  13.151   7.930  11.297  0.1257  0.2473  0.1157
27734W        W43543   6.423   2.123   5.136 -0.2008  0.1619  0.5260
27735W        W43544   4.045   9.301   2.679 -0.0996 -0.1084 -0.0469
27736W        W43545  11.484  16.165   2.390  0.3043  0.1117  0.2817
27737W        W43546   4.769   7.914   3.724 -0.1745 -0.2140 -0.0964
27738W        W43547  16.444   6.671   1.374 -0.4227 -0.1443 -0.0764
27739W        W43548  14.562   8.202  12.749  0.1339  0.1632  0.1283
27740W        W43549  15.678  10.255   4.799  0.4625  0.0384  0.1301
27741W        W43550  15.190  18.757   4.815 -0.0326 -0.0918 -0.2160
27742W        W43551  18.916   3.085  10.642  0.1243 -0.0517 -0.4538
27743W        W43552   0.169   0.978   1.007  0.0182 -0.0135 -0.0248
27744W        W43553   1.839   4.150  11.458 -0.1201 -0.0338  0.2063
27745W        W43554  11.208   3.534   2.181 -0.1115  0.0106  0.0482
27746W        W43555   7.619   9.570  12.425 -0.0045  0.0316 -0.0368
27747W        W43556   3.211   5.273  11.358  0.2628 -0.3812  0.2405
27748W        W43557   1.288   0.670   4.378 -0.1248  0.0218  0.0122
27749W        W43558  11.374   8.885  12.161 -0.0177  0.2411  0.0283
27750W        W43559  10.354   5.977  11.287  0.1532  0.0421 -0.5785
27751W        W43560  15.750  17.810  12.871 -0.3259  0.2979  0.0907
27752W        W43561   9.166   1.199  11.705 -0.1357  0.1131  0.3277
27753W        W43562   0.871  18.715  11.235 -0.0665 -0.0302 -0.2986
27754W        W43563   9.325   8.632   3.486  0.2696  0.3375 -0.0384
27755W        W43564  15.576  17.315   4.418  0.3093 -0.0374 -0.1658
27756W        W43565   4.719  17.174  11.927 -0.3827  0.0671 -0.4616
27757W        W43566   3.979   1.482   4.831  0.2860  0.0681  0.2001
27758W        W43567   4.315   5.419   4.865  0.2026  0.1249  0.2662
27759W        W43568  12.347  19.025  12.520  0.0976  0.0270  0.0464
27760W        W43569  10.661   6.593  12.478  0.1078 -0.2647  0.5236
27761W        W43570   8.337  16.581   3.034  0.0092  0.1164  0.0449
27762W        W43571  11.904  16.484  11.970 -0.4450  0.0934 -0.0755
27763W        W43572   1.051  16.967   0.974  0.2107  0.2567  0.1013
27764W        W43573   3.293  14.237  15.093 -0.1963 -0.2007  0.1966
27765W        W43574  12.440   7.717  13.319  0.1807 -0.0937 -0.3536
27766W        W43575  15.869  12.255   3.437 -0.1263 -0.2658 -0.0072
27767W        W43576  12.443   3.613  13.088  0.1612  0.1417 -0.0153
27768W        W43577   5.793   0.469  12.707 -0.2630 -0.2065  0.1761
27769W        W43578   0.758   6.785   2.241  0.1133  0.0186  0.0545
27770W        W43579   1.173  13.497   5.037  0.3223  0.0088  0.0138
27771W        W43580   8.006   3.308   1.476 -0.4576 -0.3178  0.0006
27772W        W43581  10.445  15.796  14.413 -0.0757  0.2017 -0.1094
27773W        W43582   4.839  12.219   2.297 -0.1686 -0.0784  0.0708
27774W        W43583   3.004   0.278   4.665  0.1830 -0.1113  0.2269
27775W        W43584   5.273   4.035  10.589 -0.1434  0.1131 -0.0298
27776W        W43585  12.012  14.130   4.875  0.0731  0.1803 -0.1418
27777W        W43586   0.718   9.069  13.621  0.1633 -0.0713  0.1318
27778W        W43587   3.679  13.180  13.851  0.0144 -0.2891  0.1565
27779W        W43588  11.391   1.766  13.658  0.1690  0.1402  0.0552
27780W        W43589  10.513  11.779  13.361 -0.0475  0.0369 -0.1886
27781W        W43590   6.115   7.287  14.710 -0.2803  0.0671  0.1555
27782W        W43591  11.047   0.893  14.572  0.0836 -0.2280  0.2124
27783W        W43592  11.952  12.312   5.317 -0.3091 -0.0881 -0.1241
27784W        W43593   1.388   3.809  11.845 -0.3161  0.2306 -0.1072
27785W        W43594   6.320  15.826   2.078  0.2290 -0.0214  0.0524
27786W        W43595  15.688   8.004   0.347 -0.1678 -0.1095 -0.3168
27787W        W43596   4.549  17.671   1.509 -0.3079  0.0313  0.0167
27788W        W43597   6.221   5.649   4.258  0.2097 -0.1793  0.1051
27789W        W43598   9.534  12.046   3.046  0.3996  0.1336  0.1616
27790W        W43599   8.190  10.681  10.338 -0.0178  0.1687  0.3249
27791W        W43600  14.446   3.901   3.033  0.2828 -0.3272 -0.0742
27792W        W43601   9.983   4.694  11.093  0.3022  0.0483 -0.0896
27793W        W43602  12.460  15.263   1.760 -0.3041  0.1402 -0.2893
27794W        W43603  16.247   5.163  11.410 -0.1084  0.0890 -0.3246
27795W        W43604   0.325  10.344  13.082 -0.1336 -0.0750  0.0382
27796W        W43605   9.815   4.755  10.188 -0.1460 -0.3824  0.1637
27797W        W43606   7.324   0.576   3.549  0.1542 -0.1039  0.0155
27798W        W43607   8.230  19.009  11.835 -0.0270  0.0177 -0.2232
27799W        W43608   6.652   8.082   3.630  0.2034  0.1463  0.2582
27800W        W43609   1.876   2.439  13.096 -0.0785  0.0076 -0.0373
27801W        W43610  17.933  10.082   0.974  0.0678  0.0335  0.2123
27802W        W43611  10.258   9.650  15.187  0.1207  0.0398 -0.2408
27803W        W43612  16.377  17.044  14.201  0.0135  0.2157 -0.0833
27804W        W43613   6.715   4.988  13.104 -0.2070  0.2015  0.4761
27805W        W43614   1.155   9.330   3.917  0.4090  0.0778  0.0350
27806W        W43615  11.607  18.635  12.595  0.0679  0.0867  0.0527
27807W        W43616  11.273  13.157  13.472  0.2104  0.0295 -0.2743
27808W        W43617  12.017   8.898  15.187 -0.0735  0.4125  0.0637
27809W        W43618   3.692   5.061  11.149  0.0137  0.3116 -0.1858
27810W        W43619  15.324   4.075   2.442 -0.0318 -0.1086  0.0341
27811W        W43620   9.471  12.134  13.973  0.1123  0.3178 -0.2271
27812W        W43621  11.941   8.115  10.964 -0.0883 -0.4916 -0.1384
27813W        W43622  14.281  11.976  15.110 -0.0512  0.0080  0.0934
27814W        W43623  16.550  13.383  14.355  0.3216  0.2012  0.0189
27815W        W43624   6.823  16.509   1.767 -0.1227 -0.0103  0.0403
27816W        W43625   0.737  19.116   4.914 -0.1905 -0.0282 -0.1406
27817W        W43626  11.201  17.475   2.804 -0.3225  0.0844 -0.0108
27818W        W43627  12.513   9.154  12.640  0.1808  0.3860  0.0684
27819W        W43628   8.623   1.667  10.572 -0.0167  0.0695  0.0878
27820W        W43629   0.620  18.257   1.978 -0.0823  0.2150  0.1800
27821W        W43630  11.386  12.434   0.631 -0.1007 -0.1100 -0.5537
27822W        W43631   7.485   0.866  11.430  0.0236  0.2338 -0.0306
27823W        W43632   7.576  10.738   9.466 -0.1569  0.2619 -0.1443
27824W        W43633   1.256  11.143   3.914  0.1939 -0.1219 -0.0674
27825W        W43634   2.476  18.349  14.435  0.0542  0.0761  0.1434
27826W        W43635  13.482  13.133   1.996  0.2814  0.0261  0.1665
27827W        W43636   2.780  16.814  12.701  0.0483 -0.0428 -0.1185
27828W        W43637   3.078  15.816   1.464 -0.0234  0.2372  0.0854
27829W        W43638   1.006  18.984   1.297  0.1200  0.2323 -0.2680
27830W        W43639   8.778   6.718   1.192 -0.0147 -0.0332 -0.0884
27831W        W43640  18.839   7.192   5.442  0.0829  0.0710  0.0552
27832W        W43641   1.936   1.829  12.379  0.4164  0.1289 -0.1446
27833W        W43642   0.063   0.449   1.786 -0.1961  0.1891  0.1868
27834W        W43643   2.299   5.854  11.473  0.1909 -0.1254 -0.2550
27835W        W43644   6.626   7.409   2.741 -0.0742  0.2918  0.1636
27836W        W43645   3.509  11.985   3.487  0.3784 -0.0587  0.7445
27837W        W43646   6.671   9.898   1.289  0.0363 -0.0159  0.1499
27838W        W43647   9.927  13.535  14.104  0.0622  0.0826  0.1787
27839W        W43648   0.415  10.409  14.113  0.1495  0.1766 -0.1095
27840W        W43649  16.163  16.682  11.336  0.0778  0.0959  0.2005
27841W        W43650   3.580  12.619   0.186 -0.0307 -0.0820 -0.2875
27842W        W43651  15.861   7.682  11.160 -0.1694  0.1794  0.0601
27843W        W43652   6.784  11.950  10.527  0.0039  0.1067  0.2816
27844W        W43653  14.078  12.870  15.038  0.3707 -0.3682  0.3428
27845W        W43654   9.990   9.016   1.026  0.0147 -0.1221  0.1570
27846W        W43655  17.125   3.248  12.612 -0.0473 -0.1484  0.2321
27847W        W43656  13.544  11.057   2.080  0.2000 -0.1589  0.0090
27848W        W43657   2.846  12.572  14.854 -0.3086 -0.0121 -0.0877
27849W        W43658  14.611  13.747   5.294  0.0583 -0.4706 -0.1629
27850W        W43659  12.235  15.503  13.745  0.2039 -0.2959 -0.1174
27851W        W43660   3.613   3.209   9.984 -0.0099 -0.0954 -0.2615
27852W        W43661   4.412  19.133  10.943  0.0041 -0.0335  0.0704
27853W        W43662  13.825   6.829   4.650 -0.1687  0.0590  0.1585
27854W        W43663  11.068   6.506  11.530 -0.4462 -0.1069  0.3268
27855W        W43664  17.853  17.030   0.019  0.0924  0.0052  0.1798
27856W        W43665   9.665   2.570   2.479 -0.3957  0.0834 -0.1169
27857W        W43666  12.981  16.959  13.110 -0.2595  0.1024 -0.0916
27858W        W43667   4.504   1.884   3.251  0.8453  0.0565 -0.0119
27859W        W43668   8.038  17.355  11.929 -0.0440 -0.0170 -0.3415
27860W        W43669   6.514  16.738  14.120  0.1015  0.4487  0.0796
27861W        W43670   5.148   6.666   1.069 -0.5293 -0.0959 -0.1425
27862W        W43671   8.004  12.440   0.104 -0.2498 -0.2076  0.2301
27863W        W43672  16.395  11.888  12.250 -0.2063 -0.0383  0.0912
27864W        W43673  10.217  18.053  11.438 -0.0192  0.0702 -0.2782
27865W        W43674   9.629  14.646   4.432 -0.0020  0.1719  0.1128
27866W        W43675  17.175   0.501   4.777 -0.0580  0.0530 -0.1173
27867W        W43676  14.915   1.285  12.860 -0.3522 -0.2618  0.1840
27868W        W43677   9.562  16.506   4.385  0.1103 -0.0282  0.2710
27869W        W43678   0.990  18.756  13.153  0.1141 -0.1544  0.3072
27870W        W43679  15.246  14.051  15.080 -0.0359 -0.1796 -0.0059
27871W        W43680   8.856   8.322   1.893 -0.0779 -0.0795 -0.3418
27872W        W43681  11.152  13.009  12.907  0.1247  0.1264 -0.1649
27873W        W43682  17.233   1.039  12.428  0.1852  0.0829  0.3088
27874W        W43683   6.439  16.877  15.145 -0.0698 -0.0905  0.2248
27875W        W43684   5.749  12.220   2.817  0.3131 -0.0127 -0.0194
27876W        W43685  15.303   2.471  10.309  0.1625  0.1342 -0.1448
27877W        W43686   5.906   0.571  14.201  0.2621  0.2228 -0.2312
27878W        W43687  16.990  16.610  13.135 -0.0851 -0.1087 -0.0520
27879W        W43688  10.374  13.854   1.103  0.2471  0.0739 -0.0633
27880W        W43689   4.898   8.907  11.978 -0.0444 -0.1280 -0.1309
27881W        W43690  11.922  12.412  10.834 -0.0178 -0.0717 -0.2083
27882W        W43691   3.552  10.228   4.621 -0.0025  0.0407 -0.2005
27883W        W43692  12.627  18.248  10.692  0.0961 -0.4842 -0.2942
27884W        W43693   1.845   3.470   3.968  0.0971  0.2178 -0.0893
27885W        W43694  12.825   1.211  14.525  0.2665  0.0120  0.3248
27886W        W43695   5.575   4.129  13.057  0.3963 -0.2362  0.0520
27887W        W43696   4.015  13.439  12.973 -0.2891 -0.2321  0.1624
27888W        W43697  11.026  17.717   3.216  0.0621 -0.0278 -0.2873
27889W        W43698  15.116  11.491   5.049  0.3290 -0.0768  0.0172
27890W        W43699   6.497  17.758  12.127 -0.0674 -0.0206  0.1782
27891W        W43700  12.845   3.931  13.283  0.0358 -0.2094 -0.1582
27892W        W43701  18.293  10.186  12.632  0.1170 -0.0420  0.1473
27893W        W43702   2.406   4.509  12.955  0.3876  0.2057  0.0657
27894W        W43703   0.771   7.270  12.822 -0.1707 -0.1227 -0.1737
27895W        W43704   9.892   5.080   2.280  0.0160  0.2800  0.1583
27896W        W43705  16.416   3.214   2.931 -0.0735  0.0978  0.0405
27897W        W43706  18.396  14.040   3.104  0.1468  0.0993  0.1110
27898W        W43707   9.787   8.997  14.590 -0.0853 -0.0588  0.1907
27899W        W43708  13.490  11.547   1.222 -0.0313 -0.0789 -0.3852
27900W        W43709  12.792   3.932   0.076  0.2784  0.0623 -0.0223
27901W        W43710   1.807   2.988   3.147  0.1465  0.0397 -0.0827
27902W        W43711  16.122   8.290   0.105 -0.1721 -0.1894 -0.0026
27903W        W43712  17.053  18.783  13.964  0.1438  0.0789 -0.1404
27904W        W43713  13.755   4.985  11.708 -0.3935  0.0167 -0.0671
27905W        W43714   5.755  11.757   0.466 -0.0689 -0.1640 -0.2373
27906W        W43715   6.877  11.671  13.166  0.1667  0.0548 -0.1442
27907W        W43716  15.992   2.917   4.608  0.4513  0.0892 -0.0278
27908W        W43717   2.643  16.773   5.284 -0.0154  0.3456 -0.0194
27909W        W43718   8.765   5.628   2.626  0.0246 -0.0030  0.0089
27910W        W43719   8.891   3.962  10.689 -0.0281 -0.3012 -0.0360
27911W        W43720   5.195   0.050   4.128 -0.5251 -0.0166  0.1087
27912W        W43721   1.759   1.973   0.401 -0.1625  0.2070  0.1158
27913W        W43722   9.848   7.067  12.928  0.0841 -0.0440  0.1132
27914W        W43723  12.358  18.619  10.922  0.0688  0.2961  0.3010
27915W        W43724  16.117  15.948  12.253 -0.0617  0.0159  0.1699
27916W        W43725   8.538  14.307   1.477  0.0370  0.1438 -0.1758
27917W        W43726  10.409  18.134  13.612 -0.1516 -0.1785 -0.1474
27918W        W43727  13.212   1.584  14.322  0.0424 -0.0899  0.2485
27919W        W43728   2.600   7.900  12.996 -0.0789  0.2391  0.2650
27920W        W43729  14.124   7.982   1.830 -0.0434 -0.4202  0.1380
27921W        W43730   8.570  17.357   3.588 -0.2008 -0.0380 -0.1761
27922W        W43731  18.716   2.689   3.345  0.1162  0.1190  0.0428
27923W        W43732   7.625  18.912   3.832 -0.3281 -0.0553 -0.0690
27924W        W43733   3.265   1.581   3.290  0.1116  0.2931 -0.1590
27925W        W43734   3.279  14.537  12.469 -0.0173  0.0436 -0.0149
27926W        W43735  16.591   4.521   2.891  0.2641  0.1533 -0.0061
27927W        W43736   2.321   5.838   1.549 -0.1294  0.1755 -0.0619
27928W        W43737   3.142   0.577  12.449  0.1789  0.1215  0.0300
27929W        W43738   9.871   7.575   4.459  0.1537 -0.1460 -0.1216
27930W        W43739   3.703   7.082   1.802 -0.0156  0.0784 -0.3142
27931W        W43740  18.107   6.992   0.834  0.0208 -0.0342  0.0361
27932W        W43741   8.468  16.922  13.173  0.0656 -0.0771  0.3340
27933W        W43742   2.111   9.520   1.731  0.0057 -0.1147  0.1660
27934W        W43743   3.149  15.374  12.470  0.3138 -0.3318  0.2834
27935W        W43744   8.304   6.378   4.813  0.5053  0.2306 -0.0925
27936W        W43745   2.852  16.030   5.031 -0.0414 -0.5188 -0.0028
27937W        W43746   2.592   3.882  11.674 -0.2695  0.3748  0.1353
27938W        W43747  15.165  18.186  14.385  0.3362  0.0318 -0.2581
27939W        W43748  15.146   3.509  10.767 -0.0880 -0.5682 -0.0833
27940W        W43749  14.310  16.110   0.405  0.0343  0.1424 -0.1623
27941W        W43750  13.823  14.211   1.458  0.1045 -0.1103 -0.0155
27942W        W43751  12.594   1.789   0.471  0.0902 -0.0074  0.1983
27943W        W43752   4.817   6.547  10.122  0.0777 -0.1817 -0.0298
27944W        W43753   8.616  15.010   3.199  0.2207  0.1213  0.1169
27945W        W43754  11.203   1.181  13.256 -0.1665 -0.2640  0.0585
27946W        W43755  16.799  16.836   6.042 -0.2024  0.1065  0.2628
27947W        W43756  18.697  16.413  11.760 -0.1070 -0.2139 -0.2698
27948W        W43757  14.220  17.595  14.216 -0.4028  0.1403  0.2213
27949W        W43758   8.031  13.544  13.791  0.2580 -0.1311  0.2700
27950W        W43759   3.093  14.174   2.197 -0.0893 -0.1405  0.3197
27951W        W43760  17.173   9.448  12.254  0.0741 -0.3715  0.0790
27952W        W43761   5.792  10.433   5.233 -0.0477  0.0183 -0.0513
27953W        W43762  14.492  16.086   5.352 -0.0369 -0.2214 -0.1800
27954W        W43763  17.981   0.725   3.914 -0.0430  0.2986 -0.0198
27955W        W43764  17.913   2.088  12.923  0.1327  0.2351  0.1521
27956W        W43765   2.416  14.572   3.984  0.3883  0.0088 -0.1039
27957W        W43766   4.010   5.772  14.875 -0.1177 -0.2374  0.1694
27958W        W43767   6.881  12.183   4.671 -0.0718  0.0512  0.0615
27959W        W43768  12.320   7.536  13.885 -0.4721  0.3305  0.3450
27960W        W43769  14.149   1.975  12.625 -0.0982  0.1165 -0.0669
27961W        W43770   1.826   9.822   0.063 -0.0353  0.0541 -0.2398
27962W        W43771  15.644   2.278  14.934 -0.0841 -0.0783  0.1412
27963W        W43772  13.639   5.963   2.914 -0.0348  0.0965  0.1829
27964W        W43773   7.793   2.893   4.487 -0.2052 -0.0444 -0.1640
27965W        W43774   1.816   5.732  11.188  0.1159  0.3961 -0.2289
27966W        W43775  13.115   2.249  12.781 -0.0666  0.0615 -0.1193
27967W        W43776  15.918   8.433   2.492 -0.3218 -0.0114 -0.1441
27968W        W43777   3.725   9.502   5.224 -0.0319 -0.3165 -0.3019
27969W        W43778  18.267   3.435   3.761  0.1163  0.1630  0.1959
27970W        W43779   2.973  18.855   3.105 -0.0626  0.3807  0.0070
27971W        W43780  15.849   4.059  10.604  0.0609  0.0843  0.1035
27972W        W43781   6.143  16.265  14.584  0.3541 -0.1419 -0.0914
27973W        W43782  14.941   2.407  10.600  0.2704 -0.1162 -0.0901
27974W        W43783  12.536   8.580   1.815  0.2945  0.2252  0.0792
27975W        W43784   7.693   1.722   0.351  0.2421 -0.0313 -0.0520
27976W        W43785  12.741   0.806   2.176  0.1387 -0.1047  0.0553
27977W        W43786   4.099  16.036   0.151 -0.2468 -0.0831 -0.0901
27978W        W43787   6.214   1.591  14.645  0.2964  0.1182 -0.3643
27979W        W43788   7.755  11.125   1.637 -0.0506 -0.0913  0.2323
27980W        W43789   5.323  17.210   4.146 -0.0511 -0.0093 -0.6242
27981W        W43790   1.132  16.787   0.523  0.2275 -0.1615  0.1063
27982W        W43791  15.211   5.665   5.028  0.1578 -0.2248 -0.0759
27983W        W43792  16.466  17.321  12.864 -0.1361 -0.0853  0.2377
27984W        W43793  16.314  17.487  10.191  0.0190  0.1962  0.2526
27985W        W43794  17.519  17.439  10.495 -0.2675  0.0346 -0.3254
27986W        W43795   6.016  15.816   5.100 -0.0694  0.0555  0.0844
27987W        W43796   6.057  11.172  14.529  0.2018  0.3265  0.0311
27988W        W43797   0.034   6.586   3.857 -0.3467 -0.0145  0.3246
27989W        W43798   7.698  14.025  15.058 -0.0732 -0.1292  0.1880
27990W        W43799   2.722  16.405  14.990  0.0693  0.0414 -0.1059
27991W        W43800   7.412  18.135   4.753 -0.0920  0.1280  0.1207
27992W        W43801  17.805  12.059  12.044 -0.0628  0.0337 -0.2273
27993W        W43802  11.392   8.137   0.796 -0.0167 -0.1894 -0.0300
27994W        W43803  14.114  18.617  10.098  0.0543 -0.3340 -0.0235
27995W        W43804  10.810  13.356  11.201 -0.0315 -0.1276 -0.3431
27996W        W43805   8.102  14.148   4.228 -0.0768 -0.1770  0.1238
27997W        W43806   8.793   8.066  12.778  0.2355  0.2580 -0.0651
27998W        W43807  16.930  16.347  11.918  0.1348 -0.1491 -0.0359
27999W        W43808   1.775  14.870   2.428  0.1508 -0.1561 -0.2040
28000W        W43809   4.891  15.981   4.166 -0.2185  0.0540 -0.1008
28001W        W43810   0.656  11.428   1.397  0.1313  0.1189 -0.0726
28002W        W43811  11.626  17.896  11.939 -0.2428 -0.0351 -0.2189
28003W        W43812   6.765   3.767  14.821 -0.0205  0.0319 -0.2246
28004W        W43813  11.547   7.842  14.281 -0.0436 -0.2976 -0.3505
28005W        W43814   0.900   3.184  14.147  0.2160  0.1385  0.0448
28006W        W43815  13.186   2.060   3.212 -0.0652  0.2440 -0.0783
28007W        W43816   5.122  18.088   9.792  0.2645  0.0193  0.2124
28008W        W43817  18.984   5.604   4.839  0.0346 -0.2104  0.2455
28009W        W43818  13.899   8.601   4.625  0.0295 -0.0124 -0.0134
28010W        W43819   1.321   7.143   2.460  0.5155 -0.4304  0.4045
28011W        W43820   8.448   8.205   4.302  0.0184  0.0777  0.6255
28012W        W43821  14.903   7.564   0.049 -0.2056  0.1070  0.1224
28013W        W43822   5.182   5.527  12.837 -0.0851 -0.0485  0.0056
28014W        W43823   2.086   7.508  11.710 -0.3201 -0.0317 -0.1731
28015W        W43824   5.008   3.185   0.175  0.2924  0.0926  0.0311
28016W        W43825  15.962   7.403   2.911 -0.1228 -0.0912  0.2419
28017W        W43826   7.028   9.799  13.213  0.1596 -0.0823 -0.1952
28018W        W43827  13.856   7.212  13.913  0.1936  0.0597 -0.0850
28019W        W43828   3.087  10.151   4.172  0.1925  0.0543 -0.1574
28020W        W43829   1.747   3.575   2.744  0.1884  0.1424  0.0878
28021W        W43830   0.152   1.120   4.580  0.4113 -0.2505  0.1546
28022W        W43831  17.627   6.542   0.905  0.0265 -0.0416 -0.1390
28023W        W43832  13.892  17.836   5.185  0.0674 -0.0200 -0.0660
28024W        W43833   5.847   0.659   1.887 -0.0209  0.0770 -0.0665
28025W        W43834  18.680   0.141  12.801  0.1071  0.0756 -0.1051
28026W        W43835   4.195   4.584   1.479 -0.2590 -0.1189  0.0323
28027W        W43836   5.703  12.207   0.618  0.1941 -0.2340 -0.1515
28028W        W43837   7.638   4.087  10.757  0.0961  0.0163 -0.0423
28029W        W43838  18.180   1.343  14.315  0.1061 -0.1495  0.2294
28030W        W43839   6.146   9.121   4.098 -0.0774 -0.0848 -0.4017
28031W        W43840  12.090   0.885   2.886  0.0546 -0.1208 -0.1358
28032W        W43841  16.620   4.934  11.722  0.0309  0.0823 -0.1326
28033W        W43842  10.999   9.221  12.250  0.0987  0.1601  0.0122
28034W        W43843   3.264   7.243   4.282  0.2923  0.2138  0.3423
28035W        W43844  10.252   0.421  12.405  0.1516  0.4063  0.0694
28036W        W43845   3.133  18.928  11.791  0.0794 -0.1149 -0.1431
28037W        W43846   0.018  14.846   0.922 -0.0158  0.1581  0.1850
28038W        W43847   7.100   5.817   5.164 -0.2287 -0.4164  0.1692
28039W        W43848   3.660  16.465  13.637 -0.2181  0.4080 -0.0421
28040W        W43849  17.789   9.560  12.224  0.5148 -0.1889 -0.1306
28041W        W43850  16.882  10.308  10.377  0.1534  0.0207  0.3661
28042W        W43851  18.427   5.026   4.592  0.0094 -0.1002  0.1343
28043W        W43852   1.131   5.460  13.054  0.0496  0.4073 -0.1519
28044W        W43853   7.024   1.407  10.368  0.1859 -0.0046  0.1691
28045W        W43854  12.184   3.155   5.394 -0.0171 -0.1424 -0.0704
28046W        W43855  17.598   4.253  10.522 -0.0270 -0.2800  0.1210
28047W        W43856  10.563  10.566   1.277  0.5310  0.1224  0.0646
28048W        W43857   2.257  16.972   1.041 -0.2911  0.2024  0.2182
28049W        W43858   0.149   2.747  11.526  0.2200  0.4477 -0.2334
28050W        W43859  11.840   1.004   1.119 -0.1459  0.1089 -0.0456
28051W        W43860  12.724  12.235  11.181 -0.2180  0.0438  0.1088
28052W        W43861   0.586  12.434  11.450  0.2117 -0.1609  0.1221
28053W        W43862   1.913   5.372   2.615  0.0836  0.0027  0.0044
28054W        W43863  18.168   4.639  12.012  0.1663  0.4119  0.0847
28055W        W43864  13.887  10.697  14.224  0.0634  0.0682  0.0470
28056W        W43865   3.459  15.190   5.201 -0.1645  0.1052  0.0455
28057W        W43866  14.728   1.164   4.559  0.1484  0.2485  0.5332
28058W        W43867   9.978  12.558   2.314  0.1133 -0.2604 -0.2436
28059W        W43868   9.976  11.891  12.142 -0.0082 -0.2572 -0.1944
28060W        W43869  11.418   8.413  10.924  0.2314 -0.4122  0.0598
28061W        W43870  16.403   7.502  12.930 -0.1366  0.2708 -0.1197
28062W        W43871   8.342  17.405  11.480 -0.0146 -0.4305 -0.0098
28063W        W43872   7.506   3.084  11.541  0.0643  0.0465  0.1181
28064W        W43873  13.912  13.841  14.624 -0.3472  0.1098  0.0570
28065W        W43874  18.142   5.735  14.823  0.3423 -0.3868  0.3916
28066W        W43875  17.041   2.927  11.662 -0.0571  0.2487 -0.2635
28067W        W43876  12.848  15.589  11.180  0.0536  0.0812 -0.0223
28068W        W43877   1.594   5.661   4.805  0.2184  0.1652  0.1244
28069W        W43878   2.083  18.327   4.772 -0.0295  0.0424  0.1054
28070W        W43879  11.822   8.848  13.186 -0.0219  0.2117  0.1472
28071W        W43880   2.888  13.119   3.291  0.3160  0.1805  0.2413
28072W        W43881  16.470   6.983   4.541  0.2315  0.0682  0.1436
28073W        W43882  10.427  14.180   4.276 -0.4531  0.2181  0.0517
28074W        W43883  14.162  13.399   4.355  0.1783  0.2130 -0.0264
28075W        W43884  13.625   8.618   3.606 -0.0697 -0.3233  0.1795
28076W        W43885  14.822  17.755  13.041 -0.1504  0.2603 -0.1232
28077W        W43886   6.839   3.341   4.531  0.1351 -0.0448  0.3146
28078W        W43887   3.744   0.649   4.128  0.1377 -0.2200  0.2155
28079W        W43888   5.089   7.886  10.359  0.2498 -0.0604  0.1485
28080W        W43889  10.065  12.681   2.810 -0.0916  0.1367  0.0161
28081W        W43890   0.144   7.054   2.061 -0.0432 -0.3111  0.0210
28082W        W43891  10.740   5.279   2.844  0.1000 -0.2349 -0.2531
28083W        W43892   9.386   9.927  11.400  0.1576 -0.1744  0.2142
28084W        W43893   1.767   7.776  12.096  0.0916  0.3260 -0.4402
28085W        W43894   0.542   0.443  13.394 -0.1673 -0.0124  0.0545
28086W        W43895  13.500   7.977  14.564 -0.1205  0.1289 -0.2223
28087W        W43896   6.276  13.262   4.281 -0.1517  0.1816  0.0730
28088W        W43897   9.217  14.915  11.063  0.2069 -0.0329 -0.0331
28089W        W43898   9.374   3.692   0.047 -0.2211 -0.1415 -0.0751
28090W        W43899  13.855   2.250   5.346 -0.1294  0.0900 -0.1426
28091W        W43900   0.915  10.468  11.159 -0.2472  0.0705 -0.1579
28092W        W43901   9.420   9.081   1.215 -0.2008 -0.0609 -0.0587
28093W        W43902   6.914  10.512  11.616  0.3420 -0.0110 -0.1381
28094W        W43903  11.868   4.943   2.751 -0.0104 -0.3550  0.0875
28095W        W43904   5.173  15.229   3.813  0.1743 -0.1286  0.1541
28096W        W43905   9.850   0.021  14.754 -0.1860 -0.3409  0.0585
28097W        W43906   6.570  17.413  10.699  0.0646  0.2124  0.0862
28098W        W43907   5.994  10.559   2.159 -0.2069  0.2096 -0.3467
28099W        W43908   0.272   0.169  14.101 -0.3354 -0.2877 -0.3432
28100W        W43909  11.188   7.463   3.345  0.1402  0.1434  0.1372
28101W        W43910   5.783  10.816   2.736  0.0091  0.1541  0.2702
28102W        W43911  10.814  13.506   1.045 -0.1093  0.1308 -0.1438
28103W        W43912  10.746  14.230   2.902 -0.0294  0.1280 -0.1442
28104W        W43913   2.775   8.103   3.146 -0.1769 -0.0415  0.0330
28105W        W43914  16.145   3.387  13.169  0.0180  0.0884 -0.2954
28106W        W43915   6.600   9.333  10.495  0.1033  0.0999 -0.2072
28107W        W43916  15.854  13.905  13.717 -0.1539 -0.6066  0.0463
28108W        W43917  16.680  18.988  14.276  0.6005  0.4251  0.1855
28109W        W43918   2.641  12.185  11.254 -0.0017  0.1745 -0.0967
28110W        W43919   1.341  16.340  13.900 -0.0428  0.2321 -0.1349
28111W        W43920   3.153   0.154  13.431  0.1820 -0.4947  0.1102
28112W        W43921  16.459  12.600   5.490 -0.1204  0.1078  0.0330
28113W        W43922   3.011   5.877   5.361  0.0280  0.1844  0.1719
28114W        W43923  18.750  12.890  13.497  0.0639 -0.2410  0.3527
28115W        W43924  11.719   5.090  10.110  0.0777 -0.2098 -0.1542
28116W        W43925  17.651   1.829   4.814 -0.0780 -0.0274 -0.0073
28117W        W43926   0.098   0.304   4.403 -0.2135 -0.0500  0.1524
28118W        W43927  18.717   1.208   2.837 -0.1855  0.1187 -0.0562
28119W        W43928  16.707   3.474   4.684  0.3103 -0.1666  0.0785
28120W        W43929   1.472   0.496   2.835 -0.2262  0.1408 -0.1444
28121W        W43930  11.887   3.528   9.433  0.3160  0.2428 -0.0877
28122W        W43931   0.962  18.308   3.670 -0.0013 -0.0274  0.2600
28123W        W43932   3.052  17.351   3.715 -0.2756  0.2478 -0.1942
28124W        W43933   2.106   4.550  12.541 -0.0773 -0.0681  0.0202
28125W        W43934   3.125  15.296  11.973  0.2389  0.2787  0.4463
28126W        W43935   9.920  14.519  11.270  0.3058 -0.2185  0.1125
28127W        W43936  19.018  10.161  12.759  0.2421 -0.0168 -0.0065
28128W        W43937  14.171  17.119   3.528  0.2106 -0.0512  0.0000
28129W        W43938   2.925   9.052   4.328  0.1213  0.4107 -0.0348
28130W        W43939  11.858  13.587   0.872  0.1154 -0.1560  0.2998
28131W        W43940  11.448   9.797  11.152  0.3005 -0.1113 -0.2760
28132W        W43941   9.006  11.906  12.544  0.0667  0.0742 -0.1025
28133W        W43942   6.688  10.775   3.247 -0.0016  0.0479  0.3347
28134W        W43943  16.712  17.853  11.594 -0.2584 -0.2779 -0.1023
28135W        W43944   5.041   0.011  14.612 -0.1503  0.2619 -0.0736
28136W        W43945   0.074  18.459  14.076 -0.0213 -0.3086 -0.0248
28137W        W43946   6.934   3.814   2.373  0.1728  0.1306  0.0831
28138W        W43947  13.570   2.528  13.012  0.1128 -0.2332 -0.1137
28139W        W43948  14.898  17.316   3.688 -0.1715  0.1508  0.1871
28140W        W43949   1.219  13.348   3.606  0.0725 -0.0971  0.1427
28141W        W43950   3.036   8.467  12.889 -0.1281 -0.2792  0.2560
28142W        W43951   8.242   9.776   1.299 -0.1338 -0.2565  0.2019
28143W        W43952  17.267   4.995  12.675  0.1129  0.1240 -0.2175
28144W        W43953  15.515   0.027   4.372 -0.0293 -0.1419  0.0917
28145W        W43954  12.706  18.898   5.194 -0.1946  0.0293 -0.0663
28146W        W43955  12.345  10.553  14.190 -0.2139  0.2562  0.0435
28147W        W43956  13.575   8.583  12.896 -0.2290 -0.1001  0.2230
28148W        W43957  12.155   4.073  10.689  0.1339  0.3267 -0.0949
28149W        W43958  16.057   2.530  14.729 -0.0032  0.2232 -0.2393
28150W        W43959  12.933  18.855   4.080 -0.0931  0.2469 -0.1597
28151W        W43960   1.460   0.599  12.956  0.0688 -0.1262 -0.1583
28152W        W43961  15.940  16.055   2.328  0.0648 -0.2711 -0.0643
28153W        W43962  17.800  11.111   2.273  0.3628  0.0307  0.4504
28154W        W43963   2.962   6.312   4.162 -0.3560  0.0140 -0.0607
28155W        W43964  11.163   7.207   1.030  0.0890  0.0398 -0.0937
28156W        W43965   3.738  18.369  13.528 -0.3316 -0.0702  0.0446
28157W        W43966  13.398  12.619  14.494 -0.2072  0.0308 -0.0300
28158W        W43967  10.602   9.797   4.942  0.0426  0.0620 -0.0044
28159W        W43968   6.945   8.798   4.477 -0.0942 -0.1302  0.1958
28160W        W43969  10.788   6.988  13.110  0.5063 -0.1238 -0.3213
28161W        W43970  11.493  18.195  14.583  0.0847 -0.1725  0.0344
28162W        W43971   0.674  12.856   0.411 -0.2061  0.1278  0.1292
28163W        W43972   7.933   2.791  12.779  0.0436 -0.2136  0.2893
28164W        W43973  12.047   8.047   4.291 -0.2026  0.0686  0.5410
28165W        W43974   8.154   0.618  10.795  0.1068 -0.1458  0.1875
28166W        W43975   4.135  11.508   2.814  0.0569 -0.0071 -0.1620
28167W        W43976   9.831   4.449  10.678 -0.1772 -0.0189 -0.1952
28168W        W43977  15.161   6.158  12.639 -0.3450 -0.0265 -0.0719
28169W        W43978   0.836  17.757   5.478 -0.2804  0.3454  0.0613
28170W        W43979   1.351  11.377   4.910  0.0353 -0.5832 -0.4990
28171W        W43980  14.873  18.627  13.461  0.2602  0.0444  0.0953
28172W        W43981   7.125   0.943   3.327  0.0963 -0.1235 -0.0224
28173W        W43982   7.579   8.036  12.412 -0.0135 -0.0154 -0.1299
28174W        W43983   1.968   3.952   3.927 -0.0093 -0.4284  0.1303
28175W        W43984   2.553   5.055   3.820 -0.0836  0.1629 -0.2128
28176W        W43985  16.498  12.841  14.021 -0.1143 -0.1608 -0.2057
28177W        W43986  14.624   5.036  12.147  0.0462 -0.0608  0.3303
28178W        W43987  12.721  15.360   3.212  0.1205  0.2988 -0.1446
28179W        W43988  11.181   9.593  10.756  0.0752 -0.0344 -0.0445
28180W        W43989  14.207   0.914  13.575  0.0194 -0.5610  0.0061
28181W        W43990  11.179   2.429   1.501 -0.0916  0.2023 -0.0526
28182W        W43991   8.903  11.203  13.227  0.1848 -0.1044 -0.1111
28183W        W43992   8.774  13.960  11.440 -0.4790 -0.2897 -0.0023
28184W        W43993   3.512   8.176  11.959 -0.3285 -0.3414  0.1994
28185W        W43994   0.253   1.581   1.164  0.1197  0.0677  0.0360
28186W        W43995  18.465  15.278  10.832  0.2076  0.0710  0.2639
28187W        W43996   9.336   5.943   5.124 -0.0284 -0.1114 -0.0219
28188W        W43997   8.327  13.660  11.640  0.1178 -0.0524  0.1351
28189W        W43998   3.146   1.551   0.672  0.1342  0.0466  0.4182
28190W        W43999   0.446  10.463  11.107  0.3671  0.1219  0.2314
28191W        W44000   2.278   4.268   3.548 -0.1104  0.0136 -0.0232
28192W        W44001  14.209   6.276   0.769  0.0400 -0.1861  0.0731
28193W        W44002  15.929  12.840   2.068  0.1706 -0.3821 -0.0528
28194W        W44003   7.507   2.576   3.615  0.1887  0.3458 -0.0667
28195W        W44004   5.658   2.698  13.156 -0.3365  0.0340  0.1693
28196W        W44005   4.956   5.581   3.460  0.0597  0.0020  0.1381
28197W        W44006  11.052   1.299   1.460 -0.4024  0.0571  0.0188
28198W        W44007   8.872  15.983   3.791 -0.0121 -0.1245 -0.2690
28199W        W44008  17.641   1.931   2.015  0.2835  0.1003  0.0716
28200W        W44009  15.074  12.964  11.762 -0.1912 -0.0639  0.2996
28201W        W44010  11.788   9.602   4.328 -0.1242 -0.1624  0.0608
28202W        W44011  16.081  11.773  14.460 -0.0815 -0.0200 -0.2393
28203W        W44012   9.236  13.921  11.254  0.0029  0.1135  0.3220
28204W        W44013  16.548   0.016  11.909  0.1005 -0.2520 -0.1980
28205W        W44014   2.640  16.443  13.041  0.3598 -0.0988  0.0026
28206W        W44015  18.399   3.562  14.964  0.0729 -0.0236 -0.1075
28207W        W44016  11.880   8.420  12.837  0.0690  0.1399 -0.2955
28208W        W44017   5.183  12.942   4.880  0.2672 -0.0303  0.1962
28209W        W44018  10.208   0.653  11.907  0.0269  0.0195 -0.2060
28210W        W44019  13.044   8.361  14.667  0.2812  0.4035 -0.0830
28211W        W44020   8.823  15.279   1.740  0.1005 -0.3241  0.0718
28212W        W44021  11.854   0.040  12.477 -0.1611  0.2612 -0.0463
28213W        W44022   2.520  14.735   1.355 -0.0971  0.1483  0.2474
28214W        W44023  18.835  16.139  12.181 -0.1725  0.0832  0.0586
28215W        W44024  16.161   8.254   9.466 -0.0881 -0.1872  0.0172
28216W        W44025  15.416   1.175  14.055 -0.2393  0.2617  0.3540
28217W        W44026   4.821   4.385   2.365  0.1301  0.1425 -0.0360
28218W        W44027   7.484   3.855   4.563 -0.0932  0.1340 -0.3800
28219W        W44028  11.772  17.824  14.302 -0.0737 -0.0278 -0.0832
28220W        W44029  10.087  12.858  14.596 -0.2543  0.2965  0.1099
28221W        W44030   6.831   5.773  14.617 -0.1988 -0.0898 -0.0547
28222W        W44031   5.965   3.042   1.798 -0.2031  0.3332 -0.0218
28223W        W44032   1.710   6.631   4.393  0.0181 -0.3772  0.0484
28224W        W44033  17.626  18.077  10.591 -0.2825 -0.0449  0.2292
28225W        W44034  11.769  16.983  12.249 -0.0766 -0.0113  0.0668
28226W        W44035   9.383   1.227   1.972 -0.1610 -0.1590  0.1243
28227W        W44036   9.110   6.377   0.765 -0.2241  0.2573 -0.1389
28228W        W44037  16.927   9.809   1.130  0.1460 -0.0208 -0.0415
28229W        W44038   0.174  15.814  13.953 -0.0507  0.0682 -0.3013
28230W        W44039   4.914  11.431  12.535 -0.0812  0.2715  0.1030
28231W        W44040  12.195   3.870  14.175 -0.0270 -0.0101  0.1278
28232W        W44041   6.144   8.562   1.968 -0.4495  0.1352  0.1951
28233W        W44042  18.065  10.484   4.020  0.1414  0.0114 -0.3057
28234W        W44043  15.481   1.566   1.543 -0.0428  0.1997  0.0709
28235W        W44044   2.332  18.945  13.689  0.0056  0.2177  0.0911
28236W        W44045  10.332   8.086   1.482  0.1010  0.1940  0.1783
28237W        W44046  10.146  17.785  12.339 -0.0287  0.2735 -0.2168
28238W        W44047   4.876  13.482  14.867 -0.1115 -0.2999  0.3283
28239W        W44048  13.306  18.695   4.994 -0.1641  0.2432 -0.3349
28240W        W44049  11.431  18.231   3.056 -0.1033 -0.1449  0.1155
28241W        W44050   8.887  15.868  10.268  0.2077 -0.0119 -0.0001
28242W        W44051   1.337   6.294  13.572 -0.1675 -0.1760  0.3599
28243W        W44052  10.444   4.623  10.106  0.2231  0.4899 -0.0756
28244W        W44053  13.177  10.803   3.745  0.4397 -0.1402  0.4841
28245W        W44054   7.118   7.395   5.185  0.2663 -0.0836  0.0892
28246W        W44055  11.830  13.844  12.973  0.0891 -0.0563 -0.0818
28247W        W44056   4.560   8.983   6.010 -0.1416  0.2265 -0.1214
28248W        W44057   5.127   5.921   4.906 -0.0085 -0.2072  0.0877
28249W        W44058  10.398  16.826  14.597  0.2742  0.2652 -0.0665
28250W        W44059  16.098   4.198   1.757 -0.0047  0.4496  0.1083
28251W        W44060  11.641  12.157   1.589  0.3236 -0.0104 -0.0706
28252W        W44061   4.254   1.639  14.999 -0.1570 -0.2592 -0.2637
28253W        W44062  14.013   4.315   0.927 -0.0305 -0.3685 -0.3746
28254W        W44063   7.786   6.858   4.749 -0.0645  0.0967  0.2051
28255W        W44064  10.324   5.280  12.313 -0.2735 -0.1961 -0.0832
28256W        W44065   8.874  18.280   1.518 -0.0201  0.0304 -0.1272
28257W        W44066   4.232  19.056  14.666 -0.1211 -0.0180  0.0491
28258W        W44067  17.357   8.891   5.811 -0.1083 -0.0237  0.2297
28259W        W44068  15.535  17.624  13.690 -0.0155 -0.1409 -0.0319
28260W        W44069  12.029  18.655  12.304  0.2088 -0.4948 -0.0983
28261W        W44070   4.761  13.034   5.739 -0.4110  0.1394 -0.0214
28262W        W44071  11.389  11.700   3.753  0.1930  0.0360 -0.1852
28263W        W44072  15.185   0.773   3.591  0.3044 -0.0663 -0.1340
28264W        W44073   1.022  12.316  10.581 -0.1537 -0.0672 -0.1681
28265W        W44074  10.727   4.725   0.957 -0.1359  0.1564  0.1139
28266W        W44075  16.000  13.475  13.446 -0.3939  0.3668 -0.0218
28267W        W44076  18.276  15.955   0.771  0.1838  0.1863 -0.1139
28268W        W44077   4.815   9.894  14.243 -0.0801 -0.0214 -0.1354
28269W        W44078  11.578   9.129  15.009 -0.0799 -0.1473 -0.1202
28270W        W44079   3.023   6.183  13.921 -0.1904  0.2157 -0.3334
28271W        W44080   1.501  11.576  12.224  0.1529 -0.1243 -0.0039
28272W        W44081  18.633   2.930   4.411  0.0864  0.0653 -0.0460
28273W        W44082   3.631  12.922  12.380 -0.1194 -0.0518  0.0653
28274W        W44083   2.223   6.649   0.037 -0.0059  0.0259 -0.0650
28275W        W44084  18.216   6.617   5.435 -0.1544 -0.0049 -0.3156
28276W        W44085  10.011   4.012   0.887  0.4017  0.0063  0.1815
28277W        W44086   8.678  10.370   3.738  0.0671  0.0796  0.3975
28278W        W44087  14.846  13.129  15.207  0.3751 -0.1636  0.1603
28279W        W44088  16.960   1.894  14.919  0.0537 -0.0636 -0.0034
28280W        W44089   2.860   9.647  14.493  0.0878  0.0825 -0.0913
28281W        W44090  15.028  13.145   2.983 -0.2758  0.0263 -0.3427
28282W        W44091  18.120   4.675   0.670 -0.0500  0.1686  0.0882
28283W        W44092  11.656   8.121  13.207  0.0541 -0.2381  0.1266
28284W        W44093   4.056  17.406   4.616  0.3765 -0.1277  0.0454
28285W        W44094   5.748   6.831  10.340 -0.1209 -0.1476  0.1537
28286W        W44095   1.850  12.308  13.843 -0.1814 -0.3063 -0.1831
28287W        W44096   0.771   2.646   1.255  0.2926 -0.0706 -0.1148
28288W        W44097  12.210   0.843   4.841  0.0538 -0.2044  0.0205
28289W        W44098  14.120   6.252  12.928  0.1349  0.2537  0.1254
28290W        W44099  15.580   0.961   4.755 -0.1602  0.0126 -0.4267
28291W        W44100  16.097  18.950   4.402  0.2747  0.0944 -0.1087
28292W        W44101   7.401   4.108   2.321 -0.3702 -0.0709  0.1534
28293W        W44102   4.195  17.759   4.994 -0.1414  0.0976  0.1338
28294W        W44103   9.962   8.191   5.172  0.3603 -0.0123  0.0603
28295W        W44104   5.252   8.948  14.616  0.2233 -0.0622 -0.3289
28296W        W44105  15.640   9.100   3.287 -0.1345 -0.0335 -0.1296
28297W        W44106   9.224   4.778   0.944  0.0447  0.0053  0.1767
28298W        W44107  17.548   4.070  14.600 -0.0001 -0.1036  0.0686
28299W        W44108  18.802   9.452   2.766  0.0518 -0.0732 -0.2626
28300W        W44109   5.138  12.832  13.603 -0.2208 -0.1857 -0.2518
28301W        W44110  12.838  11.273   3.315  0.0367 -0.1345 -0.0589
28302W        W44111  17.097  10.241   0.942 -0.1767 -0.3520  0.3447
28303W        W44112   8.595  10.308   3.259  0.1206 -0.2017 -0.4773
28304W        W44113  16.407   6.335  14.969  0.0903  0.4168  0.0050
28305W        W44114  16.211   9.316   4.720 -0.0362  0.0892  0.1922
28306W        W44115  12.725   6.147   1.310  0.1626 -0.0913 -0.2107
28307W        W44116   4.537   9.161   5.543 -0.0090 -0.2071  0.2808
28308W        W44117  18.032   0.780   1.074 -0.3119 -0.0709 -0.3394
28309W        W44118   1.456  10.582   3.626 -0.1166  0.1198 -0.0342
28310W        W44119  16.259   2.521   2.323 -0.2457  0.0093 -0.2442
28311W        W44120  12.729  12.199  10.535 -0.3740 -0.2471  0.0536
28312W        W44121   5.515  14.153  11.185 -0.1690  0.0937  0.1264
28313W        W44122  12.181   4.058   3.152 -0.0001 -0.4621 -0.1912
28314W        W44123  17.104   2.391  14.642  0.0485  0.2120  0.0147
28315W        W44124  11.416   8.276   3.814 -0.0145  0.0504  0.0053
28316W        W44125   6.919  10.315   1.236 -0.0178  0.1706  0.0659
28317W        W44126   9.118   8.767   3.027 -0.2150  0.0412  0.0459
28318W        W44127  15.696  10.716   2.287 -0.1981  0.1647  0.0696
28319W        W44128   5.262   9.749  12.536  0.2855 -0.3428  0.3860
28320W        W44129  11.751   5.212  14.821 -0.3307  0.0599  0.0595
28321W        W44130  15.813  11.849   3.842 -0.0776 -0.1744 -0.1545
28322W        W44131   1.355   5.864   0.955 -0.0144  0.1587 -0.0762
28323W        W44132  14.588  13.451  14.427 -0.3569  0.2239  0.1808
28324W        W44133  14.336   9.399   4.527 -0.0951 -0.1210  0.0661
28325W        W44134   8.712   6.963  15.059 -0.2790 -0.2583 -0.3589
28326W        W44135  19.108  12.355  13.332  0.5272  0.2193 -0.1203
28327W        W44136  10.523   4.094  11.517 -0.2469  0.3526  0.2690
28328W        W44137   2.409   1.705   2.811 -0.3683  0.0693  0.3582
28329W        W44138   1.997  18.717   5.085  0.2710  0.0361 -0.4549
28330W        W44139  15.467  13.446   2.766  0.0664 -0.0338 -0.0332
28331W        W44140  18.806  17.996   3.257  0.1193 -0.2039  0.0789
28332W        W44141   7.134  15.839  12.989 -0.0112 -0.1583 -0.0230
28333W        W44142  12.727   7.471  10.575 -0.1444 -0.3499 -0.0046
28334W        W44143  10.973   2.820  10.235  0.1370 -0.1874 -0.2677
28335W        W44144   7.065  18.259   2.807  0.0964 -0.2819  0.0976
28336W        W44145  15.303   5.074  14.246 -0.0683 -0.1121  0.1844
28337W        W44146   6.714   1.216   3.106 -0.2982 -0.0110 -0.1738
28338W        W44147   1.296  17.202   1.781 -0.1983 -0.1638 -0.1390
28339W        W44148   9.560   4.173   1.423  0.1193  0.0004 -0.1718
28340W        W44149   1.288   2.775   0.860 -0.0484  0.0167 -0.0892
28341W        W44150   3.999  14.208  11.874 -0.2142  0.0209 -0.2523
28342W        W44151   2.199  15.599  12.037 -0.0819 -0.2513 -0.0326
28343W        W44152  18.111   2.644  13.995 -0.0866 -0.1838  0.2040
28344W        W44153  10.754  13.178  13.677 -0.0447 -0.0315  0.0849
28345W        W44154  17.923  12.357   1.289 -0.0252 -0.0222  0.0844
28346W        W44155  10.198   2.846  11.893 -0.0594  0.1020  0.0486
28347W        W44156   2.400   2.355   3.415  0.1139  0.2039  0.3360
28348W        W44157   7.472   6.365   0.371  0.1628 -0.2220  0.0248
28349W        W44158   7.284  11.985  10.727 -0.2164 -0.1287 -0.1099
28350W        W44159   1.463  12.924   1.953 -0.2037 -0.0252 -0.1405
28351W        W44160  13.266  12.408  14.034  0.1982  0.2261 -0.1173
28352W        W44161  15.248  17.044   2.190  0.0696  0.0713  0.2318
28353W        W44162  18.019   0.277  10.434 -0.1904  0.0037  0.0112
28354W        W44163   3.671  14.955   2.964 -0.3362 -0.1371 -0.2331
28355W        W44164   3.324   7.892  10.297 -0.3935  0.2942  0.2697
28356W        W44165  10.778  16.655   3.993  0.1714  0.0859 -0.2291
28357W        W44166  16.843  11.718  14.052  0.1167  0.2239 -0.0022
28358W        W44167  15.932   1.750  12.376 -0.0534 -0.3795  0.2262
28359W        W44168   7.977  15.173   2.007 -0.1285 -0.4688  0.0450
28360W        W44169  11.515  18.599   0.894  0.3285 -0.0608 -0.0091
28361W        W44170   7.113  17.492   3.824  0.2771  0.1382  0.1637
28362W        W44171   1.085  17.466   5.107  0.0280 -0.0775  0.2684
28363W        W44172  10.913   4.662   4.199  0.1228 -0.1160  0.0936
28364W        W44173   1.473   7.124   3.571  0.2313  0.0391 -0.1346
28365W        W44174  13.316   6.015  13.998 -0.0490 -0.0308 -0.1089
28366W        W44175   2.170  10.151   0.099  0.0667 -0.0644  0.0644
28367W        W44176   9.214   2.814   1.068 -0.0543 -0.0122  0.1015
28368W        W44177  18.044  10.763   1.927 -0.0029  0.1285  0.2305
28369W        W44178  17.963   6.537  12.594 -0.4832  0.1139 -0.0434
28370W        W44179  15.228  11.030   4.179  0.0536  0.1468 -0.1656
28371W        W44180  16.994   8.843   2.699 -0.2436  0.2354 -0.1940
28372W        W44181   9.756  18.663  12.500 -0.1603  0.0873  0.1004
28373W        W44182   5.245   2.751   3.444 -0.1150 -0.2042 -0.0684
28374W        W44183   5.193  14.239   1.995 -0.3596 -0.1048  0.1725
28375W        W44184   9.530  17.318   4.673  0.2284  0.0411 -0.0722
28376W        W44185  13.401  13.904  14.368 -0.0675 -0.3552  0.0557
28377W        W44186  18.313  10.704   3.529 -0.2391 -0.3214 -0.0207
28378W        W44187  15.298   2.399  13.650  0.1969  0.0613 -0.0979
28379W        W44188   5.265   5.484   4.610 -0.0685  0.1831  0.2154
28380W        W44189   9.697   5.015  12.443 -0.1165  0.1979  0.1031
28381W        W44190   4.996  16.009  10.643  0.0673 -0.4562 -0.0601
28382W        W44191  12.034  11.545   3.302  0.0925  0.0888  0.0762
28383W        W44192   8.632  13.737  12.822  0.3062  0.1139 -0.0756
28384W        W44193   7.494  14.962   1.267  0.1618 -0.0463  0.0019
28385W        W44194   3.942  17.823  10.935 -0.1301  0.0201 -0.1355
28386W        W44195   5.817   8.580   5.880 -0.3004 -0.0518 -0.0510
28387W        W44196   6.434  10.892  14.263 -0.3732  0.0272 -0.2187
28388W        W44197  16.844   0.392   2.022 -0.0042  0.0293  0.0202
28389W        W44198   6.669  14.060  10.433  0.0808  0.2081 -0.2532
28390W        W44199  14.386   6.418  11.412  0.0321 -0.1298  0.0148
28391W        W44200  10.827   5.440  14.192  0.1840 -0.1409  0.1073
28392W        W44201   9.053  15.400  10.177  0.1179  0.3217 -0.0854
28393W        W44202  11.816  13.277   4.261  0.2504 -0.0694 -0.1421
28394W        W44203  16.879  13.767   4.990 -0.3362 -0.2387 -0.3763
28395W        W44204  14.859  14.646   4.295  0.2047  0.1249  0.2417
28396W        W44205  14.678  12.109  11.447  0.0939  0.3471 -0.1896
28397W        W44206   6.621  16.482  11.771  0.0389  0.1607  0.0189
28398W        W44207  12.542  16.609  13.961  0.0777  0.0223 -0.3071
28399W        W44208  16.648  18.060  12.775 -0.4304  0.2137  0.3616
28400W        W44209  18.456   8.666   3.666 -0.0466  0.2203  0.0602
28401W        W44210   5.726   7.037  11.232 -0.0772 -0.0573 -0.1213
28402W        W44211  16.907   5.953  13.569  0.2780 -0.0256 -0.1932
28403W        W44212  11.879   3.883  11.078 -0.0650  0.1360 -0.0612
28404W        W44213   6.369   9.941   4.913 -0.3249  0.2514  0.3873
28405W        W44214  10.632  19.017  11.958  0.2364 -0.1862 -0.2034
28406W        W44215  16.601  18.431  14.220 -0.1873  0.0134  0.1600
28407W        W44216   7.538  12.483   0.490 -0.2036 -0.3085 -0.1759
28408W        W44217   2.146   3.152   5.179 -0.0023  0.0629 -0.1502
28409W        W44218   9.367   0.349   3.616  0.3800 -0.3823 -0.2157
28410W        W44219  11.107   7.626  12.982 -0.0624  0.0166  0.3306
28411W        W44220   7.633  12.959  13.659 -0.2262 -0.0293 -0.0284
28412W        W44221  14.964  16.659  11.666  0.3045 -0.1032 -0.2719
28413W        W44222   2.801  18.686  11.030 -0.0010  0.2588  0.3351
28414W        W44223   9.983  12.714  13.291  0.1534 -0.2504 -0.0950
28415W        W44224  10.273  14.972  11.905 -0.0440 -0.0409 -0.0583
28416W        W44225   3.416   8.351   0.811  0.0298  0.0078  0.1239
28417W        W44226  16.738   4.525   0.842  0.0819 -0.1800  0.1942
28418W        W44227   4.012   2.364   3.679 -0.0751 -0.2951 -0.1097
28419W        W44228   3.114  18.348   4.567 -0.0027  0.2381  0.2347
28420W        W44229   3.537  10.493  11.144  0.1182  0.0175  0.0438
28421W        W44230  10.466  19.030  13.120  0.2438 -0.3813 -0.2029
28422W        W44231  15.992  10.055  10.612 -0.6165 -0.1345 -0.3788
28423W        W44232   4.007   5.149   0.715  0.1711 -0.0327 -0.3128
28424W        W44233  17.476   9.732   2.463  0.0781  0.0598 -0.2748
28425W        W44234   4.880  13.870  13.921  0.0575 -0.1808 -0.0958
28426W        W44235   4.301  13.020  12.848  0.1033 -0.3057  0.1694
28427W        W44236  16.100   4.136   1.247  0.1463 -0.0096 -0.4059
28428W        W44237  13.435  12.109   2.953  0.3025 -0.1336 -0.1927
28429W        W44238   5.698  10.380  14.633 -0.1251 -0.0326  0.2872
28430W        W44239  15.130  13.434  12.123 -0.1051 -0.2230 -0.2581
28431W        W44240  14.729   7.647  12.939  0.2366  0.3318 -0.2340
28432W        W44241   7.754   4.736  13.889  0.1049 -0.2037 -0.0204
28433W        W44242  11.348   6.614  12.919 -0.1576 -0.1033  0.1270
28434W        W44243  18.662   1.144   2.200 -0.2167 -0.4522 -0.2222
28435W        W44244   5.400   7.801  14.938  0.1219  0.3703  0.3229
28436W        W44245   2.912  13.146   2.288  0.3284 -0.2120  0.1980
28437W        W44246  10.942   9.294   5.820  0.4626  0.1642  0.0272
28438W        W44247  14.272  17.584   3.588 -0.4289 -0.3660 -0.0639
28439W        W44248   4.012  14.808  12.584 -0.0184  0.3074 -0.3192
28440W        W44249  11.797   1.127   2.453 -0.0576 -0.1016 -0.1508
28441W        W44250  17.462   0.692  12.853  0.0061  0.3227 -0.1187
28442W        W44251  11.705  18.348   1.416 -0.1146 -0.0403 -0.3893
28443W        W44252   4.856  17.999   1.748  0.1191 -0.1033 -0.0357
28444W        W44253  14.770   5.988  11.798 -0.0812 -0.1958 -0.3724
28445W        W44254  15.920   6.780  11.345  0.0906 -0.1680 -0.0277
28446W        W44255   7.926   3.118  11.221  0.1927  0.0882  0.0885
28447W        W44256  13.480  12.877  15.095  0.2263  0.0103  0.1449
28448W        W44257  12.954   7.490   1.063  0.3301 -0.0989 -0.7267
28449W        W44258  13.505  12.013  11.540  0.1200 -0.0872 -0.2280
28450W        W44259  15.148   6.064  14.476 -0.0563 -0.0385  0.2458
28451W        W44260   3.875   0.827   4.643  0.1033  0.0379 -0.0142
28452W        W44261  17.332  15.068  14.717 -0.1624  0.0590  0.2496
28453W        W44262  15.563   1.129   3.655 -0.0945  0.1688  0.1668
28454W        W44263   4.502  13.758   9.418 -0.0976 -0.1296 -0.0868
28455W        W44264   1.049  16.254  12.985 -0.5765  0.0309  0.1127
28456W        W44265  10.095  10.474   1.171  0.2868 -0.0373 -0.4979
28457W        W44266   5.364   3.662  13.901  0.2116 -0.1451  0.0556
28458W        W44267   7.507   7.601   2.173 -0.1419 -0.1789  0.0147
28459W        W44268  14.326   0.702  14.434  0.1019  0.0794  0.4369
28460W        W44269  16.393   5.231  10.710 -0.0074  0.0072 -0.4179
28461W        W44270   9.485  16.877  13.070  0.1050 -0.0439  0.4513
28462W        W44271  12.320   4.942   0.973 -0.1977  0.0399 -0.0381
28463W        W44272   3.984  17.272   2.934  0.1325 -0.1353 -0.1082
28464W        W44273   4.634  16.992  13.905  0.1954  0.0307  0.0834
28465W        W44274   1.757  17.021  14.433 -0.2761  0.0396 -0.0473
28466W        W44275   2.812  12.721   3.635 -0.3409 -0.1336  0.2851
28467W        W44276   2.603  14.620   3.125 -0.3775  0.4565  0.1048
28468W        W44277  12.484   8.744   5.216  0.1302  0.1246 -0.0760
28469W        W44278  17.413  15.663   4.641 -0.1379 -0.0848  0.0217
28470W        W44279  13.193   5.800  12.648 -0.0384 -0.2446  0.1319
28471W        W44280   7.935   0.822   4.817 -0.0364 -0.1529  0.0684
28472W        W44281   5.481   6.761   3.143 -0.1536 -0.1579  0.0921
28473W        W44282  11.171   3.482  12.625 -0.0508  0.2065 -0.2582
28474W        W44283   7.914   6.332  10.701  0.0213 -0.1358 -0.4646
28475W        W44284  17.096  11.407  12.953  0.0341  0.1521 -0.0389
28476W        W44285  14.457   8.230   2.273  0.2045 -0.2719 -0.0465
28477W        W44286  12.344  17.549   3.894 -0.3580  0.0108  0.4372
28478W        W44287  14.704  13.697  13.561 -0.1522  0.0244  0.0574
28479W        W44288  19.036  18.582   2.045  0.1374 -0.4071 -0.0034
28480W        W44289   3.780  13.321  10.877  0.1711 -0.1250  0.1761
28481W        W44290  15.301  10.804  12.484  0.1347  0.1248 -0.1484
28482W        W44291  16.558   2.991   1.157  0.0595 -0.1736  0.1656
28483W        W44292  10.208   0.968   0.762 -0.2805 -0.0862 -0.1246
28484W        W44293   3.755   9.005  12.850 -0.1747 -0.1850  0.1623
28485W        W44294   1.331   9.761   1.196 -0.1094 -0.0810  0.1959
28486W        W44295   3.506   8.117   3.740 -0.0505  0.0796  0.0809
28487W        W44296   3.884   6.525   0.697 -0.0100  0.1479 -0.0715
28488W        W44297   4.105   8.842   2.826 -0.3660 -0.2535  0.1583
28489W        W44298   2.628  12.627   0.340  0.1927 -0.2458  0.0487
28490W        W44299  14.708  12.820   1.733 -0.0810 -0.2278 -0.2880
28491W        W44300   0.180  11.941   5.754 -0.3147 -0.1687 -0.0576
28492W        W44301   1.669  11.068  12.238 -0.0932 -0.1997  0.2430
28493W        W44302  10.043  13.381   0.996 -0.1630  0.2534  0.2398
28494W        W44303  14.086  14.107  12.214 -0.2076  0.2439  0.0203
28495W        W44304  18.635  12.468  11.837 -0.2426 -0.1968  0.1107
28496W        W44305  16.123   3.847  11.983 -0.1053 -0.3349  0.2652
28497W        W44306   6.294   5.047  15.082 -0.0295  0.1848 -0.0112
28498W        W44307   0.520   3.895  15.268  0.0609 -0.0037  0.0416
28499W        W44308  17.236  12.396   3.505 -0.0612 -0.2349 -0.2950
28500W        W44309   6.662  15.524  15.159  0.1703  0.2787  0.3479
28501W        W44310  18.280   2.802   3.395  0.2208 -0.0023 -0.1363
28502W        W44311  18.035   6.412   1.969 -0.0622  0.1729  0.1642
28503W        W44312  14.613  15.327  13.138 -0.1257 -0.1997 -0.0981
28504W        W44313   0.981  12.695  11.517  0.2590  0.2905  0.2890
28505W        W44314   6.819  16.764   0.123 -0.4087  0.0398  0.1676
28506W        W44315  17.788   4.315   0.816  0.0423 -0.1450  0.5583
28507W        W44316  13.833  14.924   4.209  0.3034 -0.1541 -0.2392
28508W        W44317  11.893   9.594   3.235  0.1433 -0.1369 -0.1319
28509W        W44318   6.733   8.835   4.079 -0.0531 -0.0266  0.2453
28510W        W44319   1.238   2.684   1.371  0.0891  0.1591 -0.2317
28511W        W44320  18.342  11.910   0.153 -0.1558 -0.0299  0.2031
28512W        W44321   2.955  12.263  14.460 -0.0676 -0.3802  0.2211
28513W        W44322  18.620   9.884  11.861  0.1248  0.3484 -0.0438
28514W        W44323  17.110   1.397  12.036 -0.1031  0.5500 -0.0982
28515W        W44324  16.854   1.371   4.758 -0.2448  0.0917  0.0926
28516W        W44325  15.438  17.173  12.033 -0.0491  0.2374 -0.0499
28517W        W44326   3.212   3.717   0.579 -0.0460 -0.0287 -0.1966
28518W        W44327  16.906  12.687  13.750  0.1436  0.3347  0.0556
28519W        W44328  16.097   6.946  14.466 -0.0025  0.2212 -0.3481
28520W        W44329   1.438  10.278   9.987  0.1867  0.1046 -0.2001
28521W        W44330   8.545   8.714  10.546 -0.1294  0.0808  0.2374
28522W        W44331   0.190  13.430   5.130  0.0460 -0.0911 -0.0490
28523W        W44332   6.589   2.929   1.929  0.1303 -0.0277 -0.1430
28524W        W44333  17.618  10.488   1.102 -0.0081 -0.0275  0.1507
28525W        W44334  14.961   0.793  12.111  0.1368 -0.5161  0.1234
28526W        W44335   1.760   5.934  14.508 -0.0307  0.0517 -0.0540
28527W        W44336   4.532  12.966   2.018  0.1557 -0.0927  0.1429
28528W        W44337   0.875  17.331  11.042 -0.1312  0.2867 -0.0548
28529W        W44338   5.992   6.827  10.850 -0.0743  0.1617  0.1201
28530W        W44339  13.229  10.525  11.619 -0.3504 -0.1066 -0.0309
28531W        W44340  14.355   1.699  12.277 -0.1154 -0.3309  0.2124
28532W        W44341  17.447   7.124  14.262 -0.1893  0.1247  0.0785
28533W        W44342  17.231  11.864   2.839  0.3068 -0.2611 -0.4414
28534W        W44343  17.240   2.614   4.986 -0.4195  0.1749  0.1129
28535W        W44344  14.619  14.048   1.442 -0.2816 -0.3185 -0.2779
28536W        W44345  16.566  14.895   2.522 -0.0448 -0.0751  0.0737
28537W        W44346  13.216   0.775  12.634  0.1397 -0.1296 -0.0156
28538W        W44347   7.458   9.666   2.762  0.0097 -0.0223  0.0784
28539W        W44348  15.022  13.866   2.222  0.0582  0.2978 -0.3729
28540W        W44349   4.507  17.474  13.572  0.0240  0.5013 -0.0957
28541W        W44350   1.085   8.723   0.199  0.2312  0.1159 -0.2009
28542W        W44351  17.082  10.558   3.157 -0.0758  0.0252 -0.0553
28543W        W44352  19.130  11.957   2.117 -0.2001  0.1791 -0.1726
28544W        W44353   5.437   5.742   2.058 -0.3784  0.1192  0.2793
28545W        W44354  12.622  14.303  13.998 -0.2640  0.1606  0.0098
28546W        W44355  11.081   5.036  13.206 -0.2649  0.1294 -0.3994
28547W        W44356   7.290  13.714  11.101  0.0740  0.1606 -0.2636
28548W        W44357   4.255   1.441  13.329  0.1270 -0.0824  0.0661
28549W        W44358  12.814  16.079   2.623 -0.2544  0.0026 -0.0139
28550W        W44359   6.875   1.123  13.686 -0.1367 -0.2493 -0.0002
28551W        W44360  17.717  16.656   3.726  0.1466 -0.2284 -0.1293
28552W        W44361   6.501   3.895   3.217 -0.1031 -0.0939 -0.0058
28553W        W44362   0.960  16.969  10.713 -0.4181  0.1826  0.0166
28554W        W44363  13.432  14.190  12.836  0.2790 -0.1518 -0.1303
28555W        W44364  12.549  17.237   4.709  0.2318  0.0350  0.0547
28556W        W44365   8.260  13.919   1.765  0.0614  0.0521  0.1896
28557W        W44366  11.946   1.919  13.081  0.3118  0.1192  0.1402
28558W        W44367   7.738  13.311   5.026  0.1539  0.0374 -0.0022
28559W        W44368   7.393   0.254  11.200  0.0405  0.0887 -0.0003
28560W        W44369   6.598   2.268  10.363  0.1222  0.0206 -0.1436
28561W        W44370   7.005   7.234   3.700 -0.0505 -0.0073  0.0764
28562W        W44371  11.870  17.963  14.932 -0.1150  0.0277  0.0332
28563W        W44372   8.335   9.252   0.749  0.1990  0.0499 -0.0048
28564W        W44373   1.503   0.483  13.518  0.0025 -0.1702  0.0677
28565W        W44374   3.754   0.087  10.004 -0.2967 -0.0269  0.1987
28566W        W44375   0.865  16.548  13.592 -0.2507 -0.1602 -0.1522
28567W        W44376  12.716   3.597   1.356  0.0737 -0.1167  0.2584
28568W        W44377   5.854  18.725   4.558  0.1154 -0.1367 -0.0955
28569W        W44378   8.989   9.883   2.917  0.0412 -0.1584 -0.2970
28570W        W44379  18.436  11.051   3.080 -0.0115  0.2226  0.0545
28571W        W44380   2.843   3.618   4.416 -0.2931 -0.0274 -0.2750
28572W        W44381  13.355  18.084  10.395  0.1369  0.1143  0.2163
28573W        W44382   6.001  15.637  10.269 -0.1236 -0.2042 -0.1590
28574W        W44383   5.992  16.123  13.536 -0.0387  0.0611  0.0896
28575W        W44384  15.713  10.205   1.376 -0.0685 -0.0432 -0.2667
28576W        W44385  12.933   4.953   0.257 -0.0220 -0.1451 -0.0465
28577W        W44386  13.765  16.466  12.685 -0.0029 -0.2908 -0.0443
28578W        W44387   6.408   4.641   4.867 -0.0034  0.2123 -0.0566
28579W        W44388  12.828  18.839  10.923 -0.0146  0.1335  0.1995
28580W        W44389  13.027   5.034  12.016  0.2763 -0.3200 -0.0358
28581W        W44390   8.192  14.849  14.722 -0.1195  0.3088  0.1737
28582W        W44391  17.025  12.981   3.311  0.0913 -0.4000 -0.0495
28583W        W44392   5.048  18.277  14.203  0.0557 -0.3023 -0.1760
28584W        W44393  17.989   4.346  10.882 -0.0015 -0.2809 -0.1033
28585W        W44394   5.340  11.330  13.523  0.1901  0.0659 -0.1035
28586W        W44395   8.674   6.387  13.679  0.0819 -0.1975 -0.1116
28587W        W44396   2.097  16.283   0.676 -0.2751  0.1179 -0.1693
28588W        W44397  12.911  15.022  14.465 -0.1140 -0.0734 -0.7472
28589W        W44398   9.040   9.386   3.156  0.0569 -0.0347 -0.0094
28590W        W44399   9.960   9.483  10.312  0.3529  0.2469 -0.2408
28591W        W44400   6.059  16.163   4.143  0.0170 -0.0944  0.0274
28592W        W44401   9.247   0.585   4.896  0.3688 -0.0752 -0.1951
28593W        W44402   7.387   7.557   1.596 -0.0147  0.0049 -0.1078
28594W        W44403   9.716   8.652   3.176 -0.3356 -0.1041  0.0199
28595W        W44404  18.181   5.769   3.575 -0.2898  0.1368 -0.0893
28596W        W44405   8.612  11.884   2.328  0.1895  0.3392 -0.2923
28597W        W44406  15.685   8.373  14.595 -0.0754  0.3332  0.1563
28598W        W44407  15.879  18.557   1.023  0.1699  0.0182  0.1969
28599W        W44408   3.988  16.899  13.163 -0.0750  0.2263 -0.1185
28600W        W44409   0.826   5.195   8.931 -0.1719 -0.1717  0.3410
28601W        W44410   5.688   0.649   4.587  0.2112 -0.1728 -0.2595
28602W        W44411  12.921   4.942   9.561  0.0209  0.1459  0.2735
28603W        W44412   3.259  15.155   3.219  0.0353 -0.1614 -0.0854
28604W        W44413   6.995  14.803   5.525  0.3346  0.4475  0.1554
28605W        W44414   8.519  19.050  13.490  0.2611 -0.1538 -0.1491
28606W        W44415  18.122   5.176   1.204  0.0437  0.1076  0.1404
28607W        W44416  14.633  11.319  11.814 -0.1255 -0.1299 -0.1416
28608W        W44417   9.792  10.930   2.190 -0.0411 -0.0600 -0.1794
28609W        W44418   6.783  10.613   2.738  0.0313  0.0006 -0.2527
28610W        W44419  17.931  12.566   4.398 -0.0707 -0.1428  0.1552
28611W        W44420  10.672  11.206   3.676  0.0645 -0.0937  0.3572
28612W        W44421   8.041  12.518  10.324  0.1345  0.1255 -0.0673
28613W        W44422  17.751   4.388  12.535  0.0114 -0.1152 -0.0678
28614W        W44423  12.062   9.864   4.787 -0.3717 -0.2484 -0.5393
28615W        W44424   1.718   1.697  13.507  0.1377 -0.3410  0.0381
28616W        W44425   4.761   9.307  13.261  0.0905  0.0182 -0.2423
28617W        W44426  11.940   5.981   3.468  0.1276 -0.2165  0.0687
28618W        W44427   7.658  11.375  12.935  0.0480 -0.2459 -0.1288
28619W        W44428  12.088  17.369  11.321 -0.2672  0.2651  0.0118
28620W        W44429   2.937  12.697   9.772 -0.2344  0.1178  0.1030
28621W        W44430  18.560   4.372   1.484 -0.2040  0.1085 -0.4280
28622W        W44431   7.250  12.321   5.102 -0.0561 -0.1971 -0.1356
28623W        W44432  16.654  15.203  12.602 -0.1415  0.1060  0.2884
28624W        W44433   5.670  14.389   3.515  0.0972 -0.2681  0.1424
28625W        W44434   6.268   1.486   3.034 -0.0788  0.0186  0.1483
28626W        W44435   4.150  15.282   4.607 -0.2858  0.3557 -0.0414
28627W        W44436   0.867   1.309  11.419  0.1110  0.1678 -0.0865
28628W        W44437   0.532   0.035  13.154  0.0466 -0.0158 -0.0365
28629W        W44438   9.333   2.417  11.812 -0.2900 -0.0612 -0.2098
28630W        W44439  16.261  18.239   1.156 -0.0293  0.1949 -0.0451
28631W        W44440   2.352   7.508   2.944  0.0781 -0.1611 -0.2004
28632W        W44441  13.141  17.297  12.591  0.0335  0.0862  0.1422
28633W        W44442   5.344   1.998   4.345 -0.2484  0.1440 -0.3302
28634W        W44443   3.876   7.306  11.601  0.1429  0.2951 -0.0697
28635W        W44444  18.846  14.578  12.177  0.0211 -0.3897  0.1065
28636W        W44445   5.604  10.622  12.281  0.1151 -0.1232  0.1809
28637W        W44446  10.526  16.961  12.772  0.0718 -0.0236  0.2247
28638W        W44447   3.691   9.135  14.166 -0.0058  0.0840  0.2968
28639W        W44448  18.750  14.523   0.878  0.1242 -0.3291  0.1949
28640W        W44449   3.807  11.505   4.238  0.1762 -0.1737  0.1287
28641W        W44450  12.900   8.313  11.059  0.1555  0.1205  0.1229
28642W        W44451   9.305   5.174   3.104 -0.3096 -0.1799  0.2034
28643W        W44452   7.163   5.427   0.958  0.1271  0.0807 -0.2216
28644W        W44453   5.372  16.816   0.867  0.2200  0.0249 -0.1885
28645W        W44454   5.340  11.822  13.575  0.0819 -0.0947  0.3563
28646W        W44455  15.496  11.427   3.582  0.0617  0.0740  0.5061
28647W        W44456  12.979   4.504  12.122 -0.1328 -0.0941  0.1312
28648W        W44457   4.383  19.055   0.522 -0.5267 -0.2919 -0.0090
28649W        W44458   2.285   1.993  10.646  0.0541 -0.1942  0.3244
28650W        W44459  15.273   9.377  10.525 -0.0873  0.2706  0.1360
28651W        W44460   1.473  14.494  12.014 -0.0637  0.0568 -0.1731
28652W        W44461  18.415   0.254  11.527  0.1516 -0.2300 -0.0908
28653W        W44462  12.246   4.442  10.437 -0.0833 -0.0843 -0.0616
28654W        W44463  14.280  16.706   2.738  0.1936  0.1548  0.0552
28655W        W44464  16.333  18.985   2.470  0.1561  0.2317 -0.3159
28656W        W44465   7.769   4.068  12.216 -0.0701  0.0238 -0.1528
28657W        W44466  15.493   6.382  15.248  0.3654 -0.1756  0.3976
28658W        W44467   1.251  12.872  12.762  0.0324  0.3179 -0.0000
28659W        W44468   0.360   6.089   2.494 -0.0363  0.2296 -0.1339
28660W        W44469  15.458  15.388   3.555  0.2752  0.2684 -0.0832
28661W        W44470  13.665   1.354  14.137 -0.2410  0.3661 -0.1073
28662W        W44471  16.287  12.201  11.870 -0.4231 -0.0667  0.2190
28663W        W44472   9.046   3.949   5.053 -0.1378  0.0588  0.3750
28664W        W44473   3.693  14.637  15.246  0.0568 -0.0450 -0.0986
28665W        W44474   3.256  16.473   4.713  0.3524  0.3251  0.0958
28666W        W44475  11.303  17.753   2.377 -0.1996  0.0141 -0.0730
28667W        W44476  13.216  18.485   0.145 -0.2368 -0.2914 -0.2120
28668W        W44477  11.355   1.995   2.273 -0.0642  0.1320 -0.2201
28669W        W44478  10.544   1.528  11.121 -0.1519 -0.2286 -0.1694
28670W        W44479  14.022  15.897   5.092  0.0457  0.1726  0.0114
28671W        W44480  18.343  11.582  10.985  0.0892 -0.4447 -0.3008
28672W        W44481   8.840  15.418   2.339  0.0621 -0.2920  0.1774
28673W        W44482   0.691  11.446   1.911  0.2705  0.2501  0.0218
28674W        W44483  17.893   8.596  10.766  0.2461 -0.2000  0.3708
28675W        W44484  10.224   1.745  11.938  0.1163 -0.2710  0.1032
28676W        W44485   9.643   6.013   0.561 -0.0417 -0.2338  0.2922
28677W        W44486   9.153   7.645  13.805  0.0992  0.1062 -0.4326
28678W        W44487  14.398   1.526   4.463  0.0133 -0.1161 -0.1401
28679W        W44488  15.165  15.892   3.413  0.3915 -0.2808  0.1470
28680W        W44489   6.759   0.776   2.899 -0.1715 -0.2184  0.1508
28681W        W44490  14.044  16.232   2.859 -0.0120  0.0897 -0.0905
28682W        W44491  17.484  11.186   9.938 -0.2849  0.0495  0.1960
28683W        W44492   6.430  10.078   3.935  0.2252 -0.0152  0.0833
28684W        W44493   2.391  14.198   4.797  0.2034  0.3009 -0.0473
28685W        W44494   1.214   7.083  15.134 -0.0647  0.1038  0.2765
28686W        W44495  15.643  17.221  10.802  0.0306 -0.1499  0.1465
28687W        W44496   0.842   7.683  13.335 -0.0759  0.0165 -0.1459
28688W        W44497  17.619  16.750  13.593  0.1791  0.3182  0.2346
28689W        W44498  11.953   0.865   3.390  0.2151 -0.0554  0.0414
28690W        W44499   6.386   7.914   1.348  0.0471 -0.1695 -0.0318
28691W        W44500   8.338   2.018  13.600 -0.0775  0.0328 -0.0771
28692W        W44501   9.021   3.298  10.839  0.1181  0.3867 -0.0322
28693W        W44502  17.057   0.102  11.171  0.2203 -0.0110 -0.3384
28694W        W44503   3.159  12.493  13.134 -0.1576  0.0301  0.2641
28695W        W44504   1.113  12.334  15.007 -0.2342 -0.2634 -0.0039
28696W        W44505  17.333   7.501   3.261  0.3138  0.3504  0.4809
28697W        W44506   8.496   9.586  13.814  0.1127 -0.2630 -0.0223
28698W        W44507  10.764  18.153  14.086  0.2597  0.0323 -0.2673
28699W        W44508   0.032  15.960   3.880  0.1463  0.2666 -0.1712
28700W        W44509   1.156  10.841   3.201 -0.2079  0.1893  0.1789
28701W        W44510  18.985  11.499   5.600  0.2413 -0.1934 -0.2747
28702W        W44511   5.969  16.575  15.039 -0.3031 -0.1361 -0.0445
28703W        W44512  16.376  11.123  15.213 -0.0877  0.1602  0.1598
28704W        W44513  14.516   4.296   1.083 -0.0703  0.1226 -0.0957
28705W        W44514  14.700   6.653   4.211  0.3485 -0.0636  0.0666
28706W        W44515  14.780   3.919   4.445  0.4887  0.1261 -0.0119
28707W        W44516   7.887   1.142   1.257 -0.1786  0.0264  0.1423
28708W        W44517   6.147  10.601  14.695 -0.0911 -0.1610  0.1307
28709W        W44518   4.437   4.083   2.389 -0.7340  0.1942  0.1223
28710W        W44519  13.974  10.300  10.750  0.0677 -0.0973  0.0346
28711W        W44520  12.894   4.080   4.550  0.1127  0.2619 -0.0584
28712W        W44521   5.221   3.947   3.790 -0.2282 -0.1356 -0.1461
28713W        W44522   8.265   8.362  11.357  0.1277 -0.3867  0.0705
28714W        W44523   2.603   3.097  10.536 -0.0762  0.3974 -0.0572
28715W        W44524   9.085  13.578  10.855 -0.0178  0.1565 -0.1488
28716W        W44525  15.504   6.081  11.015  0.0450  0.1200 -0.2903
28717W        W44526   7.198   3.516   3.113  0.2081 -0.0440 -0.0335
28718W        W44527   4.003   6.650  14.896 -0.0874 -0.0507 -0.0518
28719W        W44528   5.665   6.384  15.160  0.0898 -0.2458 -0.2645
28720W        W44529   7.179  15.804   5.059 -0.2077  0.0159 -0.0851
28721W        W44530   2.591  13.965   2.440  0.1627 -0.1646 -0.2086
28722W        W44531   4.221   9.214   1.092 -0.0454 -0.0880  0.1209
28723W        W44532   0.543   0.322   4.050  0.1210  0.1486  0.3480
28724W        W44533   0.504  16.754  10.082  0.1698  0.1691 -0.1167
28725W        W44534  11.572   1.625  11.762  0.0591  0.2625 -0.3055
28726W        W44535   8.392  16.919  12.540  0.2213  0.3337  0.3039
28727W        W44536   3.711  17.352   2.444 -0.1110  0.3548  0.0046
28728W        W44537   5.313  13.610   4.316  0.2581  0.0162  0.2482
28729W        W44538   8.317  13.893  10.269 -0.4538 -0.0394 -0.3121
28730W        W44539   7.975  14.142   4.825 -0.3549 -0.0463  0.0679
28731W        W44540   4.590   8.922  13.476  0.0376  0.0988 -0.0568
28732W        W44541   6.041  15.733   9.666  0.0223  0.3234  0.4927
28733W        W44542   0.633   2.799  11.117 -0.0683 -0.0121 -0.3416
28734W        W44543   5.918   9.713   0.474 -0.1222 -0.2730 -0.1157
28735W        W44544  10.044  11.079  14.716 -0.0179 -0.0251  0.1461
28736W        W44545  17.085  18.007  11.923 -0.0314  0.3124  0.0969
28737W        W44546   3.297  18.854  12.218  0.0923  0.1725 -0.3171
28738W        W44547   1.047   7.311  10.191  0.1473  0.1076 -0.0392
28739W        W44548   6.091  12.765  14.068 -0.0812  0.0842 -0.1054
28740W        W44549   8.366  10.297   1.822  0.2650  0.1143 -0.0285
28741W        W44550   4.876   5.698   1.003 -0.4000 -0.2876  0.4159
28742W        W44551  12.459   2.180   0.036 -0.4527 -0.0913 -0.1422
28743W        W44552  10.815  18.705  14.120 -0.6277  0.2716  0.0836
28744W        W44553   7.984  15.291   1.301 -0.1272  0.0965  0.0616
28745W        W44554   3.788   1.196   4.246 -0.0137  0.1638  0.2343
28746W        W44555   8.963  17.674   3.297 -0.0475 -0.0768 -0.1779
28747W        W44556   7.361  17.875   1.680 -0.0625  0.0557 -0.0877
28748W        W44557  16.225  10.153   4.718 -0.1108 -0.0220 -0.0964
28749W        W44558  13.777   1.498   2.635 -0.3153  0.3488  0.1219
28750W        W44559   8.787  11.011  14.933 -0.0170 -0.0554  0.3734
28751W        W44560   9.755   3.106  12.888 -0.1014  0.0105  0.1595
28752W        W44561   0.474   5.092   4.249 -0.0559  0.2325  0.1663
28753W        W44562  18.865  14.964  11.864  0.2352  0.6169 -0.3622
28754W        W44563   0.026  10.708  13.935  0.0285  0.1599  0.1384
28755W        W44564   3.114   2.226   4.479  0.0117  0.6532  0.2898
28756W        W44565  13.657   5.896  14.710  0.0966 -0.0259 -0.0028
28757W        W44566  14.449   9.057  11.665 -0.1680 -0.0699  0.0335
28758W        W44567   1.221   6.092  12.729 -0.1248  0.2561 -0.0066
28759W        W44568   0.138   9.444  14.500  0.0457  0.2378  0.0777
28760W        W44569  11.682   6.574  12.558 -0.2532 -0.0040  0.1726
28761W        W44570  15.630   2.862   1.144  0.0004 -0.0079 -0.1905
28762W        W44571   6.094  17.174  14.825 -0.3316  0.2736  0.0997
28763W        W44572   0.857  10.293  14.825 -0.1881 -0.0139 -0.2102
28764W        W44573  11.492   7.268   3.040  0.1290  0.0762  0.0225
28765W        W44574  10.155  17.267   3.559 -0.1383 -0.5029  0.1480
28766W        W44575   0.544   2.006   2.166  0.1309  0.2715  0.4285
28767W        W44576   8.507  10.571  11.527  0.3089 -0.2365  0.1846
28768W        W44577   3.572  14.707  14.699 -0.1826 -0.2398 -0.2111
28769W        W44578  18.708   4.397  11.222  0.1893 -0.0533 -0.0093
28770W        W44579  19.130  15.638   3.353 -0.1240 -0.0126  0.0025
28771W        W44580   1.560   2.633  11.950  0.1314 -0.0509 -0.0239
28772W        W44581  15.724   0.911   0.181 -0.1267 -0.0212 -0.2284
28773W        W44582   7.075   9.863  12.707  0.4038 -0.1587  0.0219
28774W        W44583   3.392   8.107   4.732  0.2074  0.0922 -0.1139
28775W        W44584  14.937   2.004   2.490 -0.1606  0.2281  0.5842
28776W        W44585  12.248   4.860   4.265 -0.0397 -0.0635  0.1598
28777W        W44586   1.092   2.771  11.900  0.2994  0.1914 -0.1366
28778W        W44587   0.018  13.821  10.452 -0.0813  0.2837  0.1817
28779W        W44588   1.575   8.911  12.949  0.1118  0.0112  0.0276
28780W        W44589   6.522  16.107   4.628 -0.1056 -0.1165  0.2696
28781W        W44590  13.389   8.552   3.155  0.0842  0.0865 -0.0096
28782W        W44591   7.979  12.359  11.721  0.0622 -0.0742 -0.2111
28783W        W44592   4.313  11.157  13.378  0.0741  0.1348 -0.0192
28784W        W44593   4.411  11.901  13.760 -0.0389  0.2027  0.4216
28785W        W44594  16.676   5.724  10.241 -0.1075  0.1173  0.2632
28786W        W44595   2.002   4.037  10.530  0.0389 -0.0155 -0.2284
28787W        W44596  10.268   7.061   0.446  0.1808 -0.4278  0.3096
28788W        W44597   9.700   3.488   4.653  0.0559  0.1086 -0.3114
28789W        W44598  11.035  18.555   0.675 -0.0594  0.3702  0.0707
28790W        W44599   9.811   9.981  12.188  0.0207 -0.2238 -0.2362
28791W        W44600   0.760   7.810   0.082  0.0822 -0.0093 -0.2506
28792W        W44601   6.499   2.310  11.911 -0.0715 -0.0128  0.1391
28793W        W44602   0.915  18.588   1.837  0.1892  0.1133 -0.2538
28794W        W44603   3.915  18.037   1.019 -0.0286 -0.1494  0.2567
28795W        W44604   0.174  14.428  12.306  0.0676 -0.0182 -0.2949
28796W        W44605  18.179   6.362  11.086  0.2344 -0.0938  0.0010
28797W        W44606  14.709   2.610   3.327 -0.1176  0.0761 -0.2552
28798W        W44607   1.908   7.621   1.066  0.3844 -0.0657  0.1388
28799W        W44608  15.516  10.131   3.380  0.0681 -0.1462  0.2111
28800W        W44609  12.761   2.547  12.908 -0.0615  0.1858 -0.0374
28801W        W44610   4.693  12.630  11.600 -0.1071 -0.2397 -0.1274
28802W        W44611   9.668  10.549  10.895 -0.0462 -0.1704  0.0682
28803W        W44612   9.925  10.229   5.000  0.2982  0.0150 -0.0044
28804W        W44613  15.620  15.054   3.914 -0.0138 -0.0125 -0.1447
28805W        W44614   3.065   5.528  15.150 -0.4610  0.0464  0.1484
28806W        W44615  11.899  11.314  12.829 -0.2364  0.0563 -0.0198
28807W        W44616   0.333  13.067  14.428 -0.0299  0.2512 -0.3134
28808W        W44617   4.120  13.054   1.701  0.0936  0.0168 -0.3644
28809W        W44618  17.315  18.425   1.876 -0.0598  0.3521 -0.1919
28810W        W44619  10.384   7.808  11.871 -0.0439 -0.0786 -0.3426
28811W        W44620  10.141  14.060  11.320 -0.1887 -0.1398 -0.0905
28812W        W44621  14.676   8.923  13.488 -0.1254  0.2833 -0.0170
28813W        W44622   5.697  18.976   3.097 -0.1007  0.0563  0.0808
28814W        W44623  17.712   3.147   1.101  0.1393 -0.0044 -0.0757
28815W        W44624   9.100  15.588  14.287  0.0340 -0.0940 -0.0927
28816W        W44625  15.096   1.208  14.634 -0.4604 -0.0327 -0.0482
28817W        W44626  17.041   9.171   5.093  0.3014  0.2874  0.1349
28818W        W44627  14.342   5.125   1.694  0.0542 -0.0593  0.0300
28819W        W44628  11.614   8.549   1.889  0.2073  0.2346  0.0094
28820W        W44629  14.347   9.544   5.884  0.1271 -0.1232  0.0243
28821W        W44630   4.915   2.453  10.511 -0.0832  0.0594  0.3438
28822W        W44631   1.859   4.685  11.701  0.1473  0.1421  0.2117
28823W        W44632   7.701  14.684   0.563  0.2643  0.1355  0.2006
28824W        W44633  15.198   7.955   0.987 -0.0530  0.1561  0.2008
28825W        W44634  13.780   4.463   0.439  0.0589  0.0533  0.3056
28826W        W44635   9.121   3.935   1.586  0.1038 -0.0878 -0.4063
28827W        W44636   0.872   6.596  10.977 -0.1254  0.1087 -0.1347
28828W        W44637  18.387   9.636   2.502  0.0700 -0.1831 -0.1045
28829W        W44638  10.500  17.919   4.745  0.1373 -0.0270 -0.2668
28830W        W44639   9.561  11.577   3.425  0.0243 -0.0453  0.2010
28831W        W44640  16.586  17.054  11.995  0.0278  0.1836  0.0439
28832W        W44641  10.905  18.564  10.819  0.4689 -0.0600  0.1087
28833W        W44642   9.696  15.790   0.260  0.0117 -0.2222 -0.0236
28834W        W44643  13.818  15.223  13.486  0.1644 -0.0627  0.0094
28835W        W44644  16.835  11.950   2.177  0.1811  0.0105 -0.4393
28836W        W44645   8.762  16.590  12.814 -0.0116  0.2664 -0.0129
28837W        W44646   0.598  12.900  13.704 -0.0907  0.0740  0.0449
28838W        W44647   2.200  15.071  11.420  0.0719 -0.1157  0.2285
28839W        W44648   4.218   9.274  10.725 -0.0992 -0.3147  0.2168
28840W        W44649   6.491   5.082  13.532  0.0668 -0.3107 -0.0851
28841W        W44650  11.600  17.816  12.584  0.0925 -0.1507  0.1749
28842W        W44651  18.672  12.488  12.880  0.0748  0.2485  0.0359
28843W        W44652  16.791  14.756   2.977  0.1425  0.2024  0.0324
28844W        W44653   0.418  16.222   1.315 -0.0139  0.4398  0.2459
28845W        W44654   1.734   0.360   0.952  0.0783  0.2670  0.3473
28846W        W44655   6.199   9.549   1.010 -0.0364  0.1606 -0.1224
28847W        W44656  15.026   6.237  13.108 -0.3500  0.1016 -0.0318
28848W        W44657   0.587  16.344  13.227  0.2714  0.0600 -0.2456
28849W        W44658  18.074   7.152  13.266 -0.1849 -0.2622 -0.0280
28850W        W44659  12.835  10.028   4.182  0.0678  0.1441 -0.0884
28851W        W44660  12.250   5.635   3.677  0.0890 -0.0126 -0.0623
28852W        W44661   2.116  17.441   4.124  0.5255 -0.1477  0.1391
28853W        W44662  10.613   6.802   2.136  0.0066  0.0334 -0.2229
28854W        W44663   7.802   9.408  14.686 -0.0543 -0.0828 -0.0452
28855W        W44664  16.902  18.252  14.703  0.0987 -0.0036 -0.1216
28856W        W44665   5.132   5.936   4.344 -0.1191 -0.3604  0.2358
28857W        W44666  12.908   5.215   3.795  0.3007 -0.3265  0.1169
28858W        W44667  17.023   8.297  14.693 -0.0862  0.1546 -0.1202
28859W        W44668   9.651   9.403  14.816  0.0155 -0.3302  0.0015
28860W        W44669  17.289  17.086   2.506 -0.1621 -0.2431 -0.1269
28861W        W44670   5.346   8.458  13.731 -0.2372  0.0616  0.0242
28862W        W44671  13.517   3.332  12.373  0.2254 -0.0983  0.0485
28863W        W44672  10.348   9.165   1.903  0.0005  0.3241 -0.1281
28864W        W44673   6.627  14.087   2.573  0.0445 -0.1994  0.0562
28865W        W44674   1.445   8.468   2.901 -0.0743  0.0694 -0.0933
28866W        W44675  14.745   6.667  11.181 -0.1977 -0.0856  0.1237
28867W        W44676   9.926  17.782   2.851 -0.1364  0.3645 -0.0580
28868W        W44677  14.443  16.915  14.401 -0.1036 -0.2036  0.0805
28869W        W44678  17.897   2.264   3.473 -0.0229 -0.3135  0.0626
28870W        W44679  18.227   5.357  10.943 -0.2002  0.0785  0.0917
28871W        W44680   8.207   0.957  11.797 -0.0326 -0.3855 -0.0737
28872W        W44681  11.013   7.328  14.735  0.1018  0.2783 -0.1946
28873W        W44682   0.659  11.523  15.000  0.0893  0.1440 -0.0965
28874W        W44683   5.686   6.508  11.420 -0.0801 -0.5271  0.2449
28875W        W44684   8.655  17.276  14.148 -0.1886  0.0403 -0.1137
28876W        W44685   6.849   7.242  10.439  0.1460 -0.1661 -0.0438
28877W        W44686  16.591  16.738   2.755  0.3731 -0.0443 -0.3048
28878W        W44687  13.356   9.554   3.692  0.0060 -0.2377  0.1921
28879W        W44688   0.792  10.933   4.508  0.1163 -0.1779 -0.1589
28880W        W44689   8.608  17.415  10.575  0.2288 -0.1312  0.0440
28881W        W44690  11.272  18.059  11.574 -0.0209  0.1047  0.0629
28882W        W44691  10.675  12.635   4.436 -0.0006 -0.0739 -0.0751
28883W        W44692  12.819   0.222   0.265  0.0233 -0.0197 -0.3898
28884W        W44693   1.976   5.519  14.651  0.3332  0.0694 -0.3591
28885W        W44694   1.429  10.111   5.043  0.3105  0.0662  0.2702
28886W        W44695  11.997  10.728   3.076 -0.1150 -0.0030 -0.3470
28887W        W44696   7.472   3.472  13.200 -0.0544 -0.1248 -0.1443
28888W        W44697   4.982   4.668   1.971 -0.3411 -0.0077  0.0430
28889W        W44698  14.932  10.573   4.090 -0.0156  0.0522  0.0191
28890W        W44699  17.349  13.547  12.781  0.2566 -0.1761 -0.1215
28891W        W44700   7.757   3.445  12.310  0.0125 -0.3577 -0.3497
28892W        W44701   5.897   6.677  12.404 -0.2581  0.0760 -0.2081
28893W        W44702   4.181   0.922  10.153 -0.0537 -0.1627  0.3790
28894W        W44703   1.597  14.698   0.845  0.1897  0.0554  0.0836
28895W        W44704  12.698   6.100   1.837 -0.0589  0.3235  0.2565
28896W        W44705  13.584   3.766   1.128  0.3061  0.0326  0.0411
28897W        W44706   2.996  12.802  10.260 -0.1408 -0.1487  0.0756
28898W        W44707   3.845   0.629   0.188  0.0527 -0.1471 -0.0447
28899W        W44708  10.188  16.453  14.328 -0.2042  0.0522 -0.0875
28900W        W44709  18.953  12.759  10.394 -0.0498  0.1436 -0.3373
28901W        W44710   9.214   6.560   9.975 -0.1872 -0.1456  0.1548
28902W        W44711   6.033   6.246   5.349 -0.3754  0.1178  0.1730
28903W        W44712   8.748  14.812   1.398  0.0227 -0.2463  0.1568
28904W        W44713  11.400   4.703   2.990 -0.0771  0.1813 -0.0296
28905W        W44714  14.103   5.754  12.188 -0.2791  0.0942 -0.0229
28906W        W44715  11.992  16.342   2.674  0.1630  0.2188  0.2058
28907W        W44716  13.730   0.831  13.708 -0.0771 -0.3611  0.1742
28908W        W44717   9.390  13.610  12.892 -0.2239  0.0327 -0.1207
28909W        W44718  15.913   5.928  10.729  0.1450 -0.1242 -0.3258
28910W        W44719  17.813   8.849   3.383 -0.0379  0.0599 -0.2874
28911W        W44720   4.322  10.285   1.096 -0.0821 -0.1427 -0.0889
28912W        W44721   1.282   9.922   0.267 -0.2338  0.0415  0.1789
28913W        W44722   7.201  18.932   0.697 -0.0335 -0.1991  0.2921
28914W        W44723  13.559  18.156   2.839 -0.2297 -0.3848  0.4418
28915W        W44724   4.853   1.417   1.575  0.0001 -0.2891 -0.1186
28916W        W44725  13.987   0.954   0.705 -0.1396 -0.3213 -0.0362
28917W        W44726  13.693   5.956   0.743 -0.0578 -0.2675 -0.1375
28918W        W44727   2.515   2.224   1.092 -0.1205  0.3154  0.0698
28919W        W44728  16.426  12.481  12.534  0.1541 -0.0711 -0.4284
28920W        W44729  16.053  16.795   4.000  0.0922  0.1191 -0.0269
28921W        W44730   7.593  17.430   3.742 -0.2050 -0.1176  0.0646
28922W        W44731   6.894   4.767   1.381  0.0214 -0.2684 -0.1410
28923W        W44732  19.014  15.416  13.977 -0.1326  0.2483 -0.4741
28924W        W44733  10.570  18.591   0.650  0.0344 -0.2997 -0.0999
28925W        W44734   7.382   8.993  14.275  0.0068 -0.2697 -0.2867
28926W        W44735  11.113   4.659  12.855  0.0281 -0.0600  0.0129
28927W        W44736  15.466  13.762  10.849 -0.0303 -0.1541 -0.2441
28928W        W44737   4.441   3.064   0.757  0.0576  0.0971 -0.0024
28929W        W44738  11.540  14.608   0.874 -0.0685 -0.1518 -0.1427
28930W        W44739   2.299  12.456   2.806 -0.2401  0.0085 -0.2184
28931W        W44740  17.536   1.572   2.711 -0.4120  0.1531 -0.4016
28932W        W44741  16.088   8.821   3.673  0.1557  0.1273 -0.2826
28933W        W44742   4.482   2.869   4.281  0.1062 -0.0535 -0.0153
28934W        W44743  14.809   1.932  12.833 -0.1247  0.2890  0.2660
28935W        W44744   6.837   4.771  15.102 -0.1062 -0.2852 -0.0416
28936W        W44745   3.775  15.901  14.084 -0.1785  0.0005 -0.6231
28937W        W44746  11.200   1.681   1.827  0.0638 -0.2559  0.3443
28938W        W44747  12.936  14.177  12.190 -0.0740 -0.0951  0.0739
28939W        W44748   6.025  18.486   0.341 -0.0757 -0.0764 -0.1621
28940W        W44749   2.853  11.661  10.950 -0.1343 -0.0709 -0.1944
28941W        W44750  13.464  13.812  11.627 -0.1426  0.2006 -0.1699
28942W        W44751   9.412   3.096  10.511 -0.0894  0.1368  0.0630
28943W        W44752  15.813   5.014  12.743 -0.3828 -0.3935  0.2298
28944W        W44753   7.876   6.419   4.506 -0.2126  0.0830 -0.1651
28945W        W44754  14.338   2.974  13.808 -0.1621 -0.0009 -0.2616
28946W        W44755   3.807   9.546   1.061  0.0312 -0.2593  0.1162
28947W        W44756  14.186  11.622  12.645 -0.1871  0.0638 -0.1013
28948W        W44757  16.030  17.805   2.986  0.0757  0.2364  0.2796
28949W        W44758  13.872   3.596   2.350 -0.0255  0.2594  0.1277
28950W        W44759  14.557   4.511   2.745  0.0902  0.2359 -0.0561
28951W        W44760   6.461  17.945  13.060 -0.2698 -0.1377  0.1361
28952W        W44761  17.571   7.229   5.154 -0.0639 -0.2476 -0.4930
28953W        W44762   0.565  10.653  14.614  0.2572  0.0170 -0.2490
28954W        W44763  14.448   6.666  13.895  0.2184  0.2261 -0.1901
28955W        W44764   5.707   9.587  12.222  0.1573 -0.0437  0.0771
28956W        W44765  10.439  15.352   2.350  0.0472  0.0219 -0.0089
28957W        W44766  10.893   2.499   2.741 -0.1532 -0.0317  0.0569
28958W        W44767  18.629   4.694   4.184  0.1650 -0.1305 -0.2715
28959W        W44768   3.766  14.400  12.385 -0.3912 -0.0759  0.0713
28960W        W44769   2.806  15.190   4.276 -0.0001  0.0569 -0.1540
28961W        W44770   7.013  11.213  13.235 -0.0358  0.1031 -0.1066
28962W        W44771  11.847  18.137   1.929 -0.2250 -0.4128 -0.0301
28963W        W44772  16.221  13.671  15.118  0.2325  0.0669 -0.1101
28964W        W44773  15.459  19.000   1.665  0.0217  0.0422  0.0210
28965W        W44774   3.281  17.011   0.890  0.0284 -0.1705  0.2286
28966W        W44775  16.432  11.276   3.465  0.0921  0.0156 -0.0990
28967W        W44776  13.162  12.963  14.185  0.1644  0.0269  0.0399
28968W        W44777  11.250  11.389   5.644  0.0823  0.0293 -0.2994
28969W        W44778   5.292  13.992   1.384 -0.1792 -0.1652 -0.0802
28970W        W44779  17.715  12.194  12.887 -0.4926 -0.1621 -0.0175
28971W        W44780   8.653  15.731  12.882  0.0200  0.2199  0.2286
28972W        W44781  18.803   0.230   2.601  0.0046  0.1287  0.2022
28973W        W44782  18.640  18.319  14.988  0.0381  0.0283  0.0620
28974W        W44783   9.586   9.018  11.207  0.0807 -0.4077 -0.0819
28975W        W44784  17.357  12.489  15.088 -0.2170 -0.1110 -0.0492
28976W        W44785   3.919  13.760  11.689  0.2552  0.0005  0.0748
28977W        W44786   9.566  19.009   2.045  0.0241 -0.0109 -0.0262
28978W        W44787   1.747  16.527  13.562 -0.1228 -0.1595  0.0474
28979W        W44788  11.629   4.121   3.039 -0.1440  0.0380  0.1499
28980W        W44789  16.948  12.253   2.617 -0.0169 -0.1274 -0.0346
28981W        W44790  14.573  17.073   2.816 -0.2090  0.0863 -0.0909
28982W        W44791  18.513   9.021   2.686  0.0187 -0.1812  0.1555
28983W        W44792  16.594  14.005  13.195  0.1388  0.4507  0.1795
28984W        W44793   2.244   3.458   2.436  0.0237  0.4000  0.0506
28985W        W44794  10.871   3.778   4.682 -0.1162  0.0209 -0.0931
28986W        W44795   3.587  17.491   5.307  0.0679  0.1529 -0.1231
28987W        W44796  11.526  12.562  14.823 -0.1017 -0.2845  0.1636
28988W        W44797   1.200   2.724  11.351 -0.0719 -0.0907 -0.0215
28989W        W44798   2.371   8.063  15.119  0.0939  0.2656  0.2004
28990W        W44799   8.327  16.125   2.905  0.2799 -0.1064 -0.1265
28991W        W44800  15.678  13.548   5.355 -0.0273  0.0239  0.1162
28992W        W44801   8.021   9.605   1.731  0.0232 -0.1829  0.1717
28993W        W44802   3.402   8.402  13.510  0.0687 -0.2036 -0.1365
28994W        W44803  16.380   1.685  12.592  0.1683 -0.2535  0.0804
28995W        W44804  13.846   7.965  13.354 -0.0606  0.2809 -0.2368
28996W        W44805  10.941  19.099   1.670  0.2990 -0.3600 -0.0514
28997W        W44806   5.082  14.261   5.461 -0.1275 -0.3772 -0.1573
28998W        W44807  15.159   3.010   1.001  0.0092  0.1784  0.0856
28999W        W44808  18.656  16.428  13.950 -0.0173 -0.1169 -0.0198
29000W        W44809  10.397  17.000   3.195 -0.4787  0.0799  0.0302
29001W        W44810  14.568   7.814  14.508 -0.0258 -0.0846 -0.0837
29002W        W44811   0.683   5.542  14.108  0.1410  0.3180  0.2000
29003W        W44812   8.321  14.239  10.733 -0.4292  0.1144  0.1058
29004W        W44813  10.106  18.259  10.951  0.0288  0.1422 -0.0272
29005W        W44814  18.443  12.903  11.968  0.0134  0.2070 -0.1060
29006W        W44815   2.570   0.137   2.301  0.2377 -0.4272 -0.0456
29007W        W44816   1.537   7.880   0.023 -0.0379 -0.1016 -0.0515
29008W        W44817   4.389   9.572  14.417  0.1543 -0.1380  0.3003
29009W        W44818   5.934   5.054  14.638  0.0811 -0.1785  0.0476
29010W        W44819   2.504   8.823  14.095 -0.1470  0.0356  0.2988
29011W        W44820   5.358   0.574   0.646 -0.0684 -0.0960  0.1456
29012W        W44821  13.893  13.006   2.327  0.1317 -0.1908  0.1158
29013W        W44822  17.900   8.476  11.831 -0.1933 -0.0027 -0.3137
29014W        W44823   7.131   0.776  14.087 -0.1481 -0.0390  0.0983
29015W        W44824  12.982  13.288   1.957 -0.1393 -0.0857  0.1687
29016W        W44825  16.937  14.363  14.952  0.0559  0.0435  0.1430
29017W        W44826  10.309  10.651  12.016 -0.1116 -0.0534 -0.1790
29018W        W44827   9.160   5.158  13.274  0.0510  0.4141  0.2815
29019W        W44828  13.312  17.335   4.555 -0.1492 -0.2537 -0.1112
29020W        W44829   7.602   1.738   2.407 -0.0557  0.1502 -0.1819
29021W        W44830   3.496   2.513   4.388 -0.0469 -0.0820 -0.0833
29022W        W44831   3.386  17.541  14.955 -0.0466 -0.3453  0.0669
29023W        W44832  11.202  16.776   4.153  0.0842  0.1155  0.1147
29024W        W44833   2.312  18.922   2.007 -0.0269  0.0379 -0.1231
29025W        W44834  13.029  10.379   0.931 -0.0938 -0.0728 -0.2195
29026W        W44835   7.702  16.013   9.897  0.1727 -0.2624 -0.0564
29027W        W44836  17.470   9.384  15.247  0.1492  0.0587 -0.1165
29028W        W44837  11.855   1.322   3.120 -0.1510  0.0795  0.0731
29029W        W44838   4.944   9.331   2.962  0.2858  0.2434 -0.1467
29030W        W44839   0.298  10.460   3.999 -0.0430 -0.3068  0.2448
29031W        W44840  10.971  17.517   1.458 -0.3199  0.0414  0.0298
29032W        W44841  13.899   9.744  13.232 -0.2668 -0.1657 -0.1547
29033W        W44842  11.034   7.225   2.389 -0.2262 -0.2799  0.2687
29034W        W44843  16.537  15.265   1.065 -0.6206 -0.0316  0.0265
29035W        W44844  14.871  10.967   1.085  0.0329 -0.1493 -0.0620
29036W        W44845  15.698  14.896  13.400  0.3561  0.0605  0.2452
29037W        W44846   6.199   7.963   4.050  0.1398 -0.4034  0.0078
29038W        W44847  10.600  16.564  14.995  0.1484  0.0952 -0.2484
29039W        W44848   6.853  14.666   2.753  0.2113  0.2236  0.1976
29040W        W44849  10.105   8.293  14.494  0.0850 -0.0143  0.1486
29041W        W44850  15.343  17.829   1.564  0.1540 -0.3134  0.3281
29042W        W44851  13.205   7.052  13.002 -0.1075 -0.1491  0.1810
29043W        W44852   8.385   4.956  11.746 -0.0499 -0.1032  0.0773
29044W        W44853  15.092   2.220  11.914  0.0286 -0.1932  0.0211
29045W        W44854   7.799   5.492  14.585 -0.0690  0.0360  0.0148
29046W        W44855   4.976  18.117   2.685  0.1266  0.0663 -0.0830
29047W        W44856   8.952   3.976   4.535 -0.2796  0.1671 -0.0858
29048W        W44857   7.993   2.407   3.563  0.0370 -0.1407  0.0205
29049W        W44858  16.583  15.082   4.883 -0.0318  0.0666 -0.2475
29050W        W44859   2.178  17.720   3.066 -0.1493  0.0416  0.1135
29051W        W44860  16.264  10.297   0.104  0.0622  0.2736 -0.0996
29052W        W44861  15.012   5.953  13.998  0.0904  0.0408  0.1044
29053W        W44862   1.609  12.072   3.134 -0.2693  0.0968 -0.0990
29054W        W44863  17.817   8.901   5.589 -0.0461  0.0766  0.3644
29055W        W44864  16.714  10.358  10.855  0.0004 -0.1467 -0.0042
29056W        W44865   4.423  17.845   0.311 -0.1161  0.1569  0.0219
29057W        W44866  13.697  15.024  10.430 -0.0928 -0.2248 -0.2054
29058W        W44867   6.888  18.492  10.676 -0.0620 -0.0929  0.1602
29059W        W44868   2.812   8.009  11.674 -0.0067  0.0296  0.3532
29060W        W44869   3.195   6.810   0.111  0.0250 -0.1037  0.0639
29061W        W44870   1.163  13.830   3.607 -0.3049  0.0660 -0.1112
29062W        W44871  12.694   0.771   3.080 -0.0090  0.4556 -0.4155
29063W        W44872   2.367   1.006   1.202 -0.0659  0.0928  0.1689
29064W        W44873   3.857  15.406  13.902  0.0803 -0.1610  0.0672
29065W        W44874  12.021  17.005  11.829 -0.1688 -0.3683  0.1174
29066W        W44875   1.148  14.235   2.847 -0.1052  0.3801  0.1855
29067W        W44876   0.157  11.971   4.292 -0.0789 -0.4211 -0.0162
29068W        W44877  12.539   4.056  13.898 -0.0303  0.1409 -0.3145
29069W        W44878  10.223   8.670   3.487  0.0312  0.4112 -0.0461
29070W        W44879  10.520   9.585  14.426 -0.4200  0.0427 -0.2115
29071W        W44880  12.584  18.318  13.700  0.1666 -0.0752 -0.0247
29072W        W44881  11.716   2.511  14.498 -0.3056  0.0903 -0.0272
29073W        W44882   8.612   3.322   2.990  0.0688  0.0145 -0.3596
29074W        W44883   6.523  11.209   0.774  0.0749 -0.0748  0.0200
29075W        W44884  12.993   6.648  11.513 -0.0851 -0.3042 -0.1322
29076W        W44885   4.005  11.341  10.612 -0.0620  0.0608 -0.1501
29077W        W44886  18.921   3.790  11.001  0.0680  0.4045  0.0735
29078W        W44887   6.639  18.082   2.469  0.0258  0.1014 -0.0264
29079W        W44888   1.572  12.629   4.933 -0.0906  0.2078 -0.1705
29080W        W44889   8.229  12.981   3.824 -0.2785 -0.1305 -0.0113
29081W        W44890  15.004   7.630   1.365  0.0996 -0.0493 -0.1042
29082W        W44891   1.232  11.951  13.230  0.0505 -0.3297 -0.2794
29083W        W44892  17.341   1.151   3.036 -0.0922  0.2511 -0.1354
29084W        W44893  12.427  17.135   3.592 -0.0938  0.1861  0.0306
29085W        W44894  14.974   8.847  13.044 -0.0583  0.3170 -0.2952
29086W        W44895  12.348  14.659  11.979 -0.0067 -0.3615  0.0016
29087W        W44896   3.381  17.710  12.207 -0.2305  0.1740 -0.2616
29088W        W44897  19.084  14.190   2.539  0.2827  0.0092 -0.2126
29089W        W44898   9.481   4.995   2.676 -0.0602  0.0815 -0.1921
29090W        W44899  13.481   3.183  14.119 -0.2249  0.0481 -0.2371
29091W        W44900  16.981   9.680  14.279 -0.3256  0.0426 -0.2044
29092W        W44901   5.037   3.946  13.665 -0.1623 -0.1952  0.4178
29093W        W44902   3.492   7.628   4.037 -0.1222  0.0267  0.0283
29094W        W44903  13.572   9.318  13.372  0.0886 -0.1728 -0.2194
29095W        W44904   0.757   5.497   3.001  0.0557  0.0864  0.2463
29096W        W44905  16.816   4.559  14.524 -0.2120  0.1199  0.4120
29097W        W44906  16.894  12.720  13.250 -0.1931 -0.1445  0.0478
29098W        W44907   1.747   4.278  10.887  0.1885 -0.1788  0.0132
29099W        W44908  18.295   4.798  15.117  0.0860  0.0113 -0.1251
29100W        W44909   6.920   8.017  13.046  0.0812  0.0533  0.1439
29101W        W44910   8.952   5.182   2.171  0.3060  0.1045  0.0970
29102W        W44911   5.267   1.460   4.345  0.2135  0.0140  0.1540
29103W        W44912  16.553   7.772   0.104 -0.1287 -0.1211 -0.2413
29104W        W44913   1.575  15.436  12.358  0.0771  0.0383 -0.2181
29105W        W44914   3.812   1.452  13.620  0.1489  0.0741 -0.1956
29106W        W44915   5.731  15.730   0.143 -0.2598 -0.0200  0.3442
29107W        W44916  11.212   8.257   3.056  0.3418  0.3875  0.1247
29108W        W44917  10.792  14.972   2.161 -0.2867  0.1473  0.2088
29109W        W44918   3.487  12.301   0.680 -0.1536  0.1478 -0.3595
29110W        W44919   5.315   1.749   1.221  0.3444 -0.3094 -0.2591
29111W        W44920   6.380  11.046  14.976 -0.2395 -0.0428 -0.2255
29112W        W44921   9.371  14.302  13.170 -0.0337  0.1315  0.1896
29113W        W44922  17.801   3.868   1.616 -0.3296 -0.3479  0.2349
29114W        W44923   6.549   7.168  14.080  0.0610 -0.1845 -0.0309
29115W        W44924   5.009   3.279  14.018  0.0525 -0.1016 -0.1728
29116W        W44925   0.181  18.264   4.059  0.2094 -0.0443 -0.0248
29117W        W44926  11.073  11.588  11.526  0.3451 -0.1838 -0.1396
29118W        W44927   9.450  11.068   4.845 -0.0322  0.1008  0.0142
29119W        W44928   4.822   8.649   4.327 -0.2880  0.0325 -0.0977
29120W        W44929   9.518   4.667   2.271  0.1568  0.2727 -0.3472
29121W        W44930   3.316  18.985   1.979 -0.1970  0.0352 -0.0896
29122W        W44931   5.942   2.297   1.811  0.1105 -0.0363 -0.1579
29123W        W44932  12.684   1.545   3.782  0.1299  0.0446  0.0600
29124W        W44933  17.421   9.252   5.436  0.1364  0.1180  0.2331
29125W        W44934   7.165  16.519   2.793 -0.0316  0.1554 -0.1741
29126W        W44935  11.006   6.412  11.033 -0.1271 -0.2194  0.0238
29127W        W44936  10.991  13.499   2.010  0.2190  0.1199 -0.2966
29128W        W44937   3.784   9.312  11.061  0.1314 -0.0082 -0.0138
29129W        W44938   2.648  16.875  14.738  0.0712 -0.4711 -0.3354
29130W        W44939  16.217   2.613   0.353 -0.2873 -0.2735  0.1476
29131W        W44940  14.379   7.682   2.271  0.0611  0.0932  0.0839
29132W        W44941   8.589  16.548   4.483 -0.1146  0.2987  0.0419
29133W        W44942  13.999   1.480  10.375 -0.0909  0.2856 -0.1912
29134W        W44943   6.968   0.404   3.893 -0.4243 -0.2194 -0.0809
29135W        W44944   2.841   2.682   4.858 -0.0608  0.4408 -0.2772
29136W        W44945  12.078  15.800  11.378  0.0779 -0.1583 -0.1820
29137W        W44946  11.394  13.763   3.381 -0.2989 -0.0913  0.3081
29138W        W44947   2.737  12.217   2.380  0.2582  0.0289 -0.2945
29139W        W44948  17.314   5.928  12.068 -0.0980  0.0915  0.1261
29140W        W44949   5.998   8.675   5.399  0.0203 -0.2082  0.1815
29141W        W44950   2.305   0.703   4.468  0.1553  0.0958 -0.2047
29142W        W44951  16.592  14.380   5.843 -0.2578 -0.1478  0.2160
29143W        W44952  13.859   4.798  12.232  0.1830  0.1625 -0.0340
29144W        W44953  17.686  15.335   0.271  0.4059 -0.1536  0.2533
29145W        W44954  17.532  17.697  11.966 -0.0109  0.1726 -0.3018
29146W        W44955   1.417  16.609  14.481 -0.4691 -0.1090 -0.1643
29147W        W44956  18.622   6.781  10.597 -0.1418  0.1472 -0.3036
29148W        W44957  10.605   9.975   0.080 -0.0484  0.2642  0.2222
29149W        W44958  16.438   2.825  13.922 -0.0540  0.2841  0.2441
29150W        W44959  12.246  17.295   2.262  0.2544 -0.0707 -0.0388
29151W        W44960   1.008   1.361  10.783 -0.1130  0.0271  0.0379
29152W        W44961   1.225   6.517   2.404  0.3655  0.1554  0.1565
29153W        W44962   9.622  17.596  13.634  0.0798 -0.0418  0.1136
29154W        W44963  17.525  16.861   9.836  0.1529 -0.0997  0.0103
29155W        W44964   5.607   4.960  11.175 -0.3075 -0.1328  0.3896
29156W        W44965  17.421   0.419   1.011 -0.0675 -0.2789 -0.1775
29157W        W44966  18.576   7.490  13.276  0.1002  0.0775  0.0778
29158W        W44967  17.925  12.987  11.260  0.0400 -0.7026 -0.1510
29159W        W44968  19.096   2.787   2.728  0.3370  0.2927  0.3867
29160W        W44969  13.845  11.871   2.616 -0.1935 -0.2304  0.1198
29161W        W44970   8.140  11.604   3.156 -0.0095  0.1910 -0.2611
29162W        W44971   2.826   9.724   4.980 -0.2041  0.0975  0.0035
29163W        W44972  15.379  14.911  12.293  0.3426  0.3210  0.5108
29164W        W44973   7.568  16.260  12.180  0.0327 -0.1805 -0.1776
29165W        W44974   8.941   0.513  13.167  0.0079 -0.0987 -0.1211
29166W        W44975  12.536   4.975  12.880 -0.3716  0.3854  0.1280
29167W        W44976  18.071   9.204  13.535  0.0121  0.0336 -0.0845
29168W        W44977   9.135  18.852   0.771  0.0531  0.4540  0.0843
29169W        W44978  13.852   2.509  10.452 -0.1054  0.1702 -0.2150
29170W        W44979  12.992   4.182  11.702  0.0359 -0.2106 -0.2725
29171W        W44980  11.005  16.257  14.871 -0.2375 -0.0485 -0.0493
29172W        W44981   2.557  15.288  14.423 -0.1064  0.0505 -0.1263
29173W        W44982  10.317  10.155   4.768 -0.4664 -0.1090 -0.2916
29174W        W44983   3.427  12.228   4.633 -0.0696 -0.0439 -0.1595
29175W        W44984   2.924  18.823  15.217 -0.1935 -0.1831  0.0054
29176W        W44985   3.545   6.869   0.595 -0.4042  0.2593  0.0964
29177W        W44986  17.166  10.310   4.218 -0.1154  0.2306  0.1700
29178W        W44987  18.232  11.778   1.482 -0.1245 -0.1442  0.2376
29179W        W44988   7.047   3.664  12.070  0.1031  0.0054  0.0709
29180W        W44989   5.330  15.741  11.956  0.1559  0.1017  0.1475
29181W        W44990   3.830  15.014   4.355  0.3098 -0.1120 -0.3648
29182W        W44991   6.943   9.283  11.545 -0.0023 -0.0286 -0.1376
29183W        W44992   0.439  13.119  13.223 -0.0599 -0.1036 -0.2310
29184W        W44993   0.963   7.122   4.789 -0.1490 -0.4357  0.2445
29185W        W44994  18.802  18.419   2.820  0.2347  0.1397  0.1747
29186W        W44995   3.236   5.782  11.002  0.0212 -0.2458 -0.1358
29187W        W44996   8.990   8.186   5.142 -0.0708 -0.0277  0.2877
29188W        W44997   5.170  11.587  14.250  0.3044  0.2482 -0.1474
29189W        W44998   6.330  15.182   3.314  0.0602 -0.1430  0.0293
29190W        W44999   7.993   5.058   2.438 -0.1165 -0.2922 -0.0978
29191W        W45000  17.122   3.027   4.680  0.0470  0.0410 -0.0024
29192W        W45001   5.114  14.918  14.673 -0.0787  0.3178 -0.1161
29193W        W45002  10.124  13.419   5.780 -0.1701  0.2621  0.0326
29194W        W45003   6.942  11.827   1.042  0.1327 -0.1322  0.0234
29195W        W45004   1.724  18.618   1.505  0.3161 -0.0790 -0.0194
29196W        W45005   5.182   2.804  15.112  0.6066  0.1675 -0.0898
29197W        W45006   4.492   6.089   0.870 -0.0716 -0.0342  0.0641
29198W        W45007   3.276  12.499  15.099  0.1155  0.0360  0.1022
29199W        W45008  18.278  10.090  14.439 -0.1387  0.1357 -0.2458
29200W        W45009   1.113  16.592   5.079  0.2247  0.4783  0.2882
29201W        W45010   0.972   6.830   9.972 -0.0262 -0.0069 -0.1544
29202W        W45011  13.153  16.967   4.319  0.1368 -0.0396 -0.1386
29203W        W45012  18.200  14.321   5.185  0.1171  0.1375  0.0234
29204W        W45013   1.949   6.874  10.410 -0.2252  0.1526  0.1036
29205W        W45014   2.851  11.002   0.880  0.1166  0.2621  0.0488
29206W        W45015  12.113  18.017   4.713 -0.0237  0.0733  0.1971
29207W        W45016   4.293  16.003  11.777  0.2716  0.0177 -0.2507
29208W        W45017  13.431   6.886   4.276  0.0284 -0.1520 -0.1423
29209W        W45018   0.720   0.239   1.473 -0.0399 -0.1742  0.2500
29210W        W45019  10.001  15.621  14.245 -0.1248  0.0501  0.0494
29211W        W45020  10.242   7.896   4.684 -0.1016  0.0084  0.1573
29212W        W45021   6.651   5.008  10.834 -0.0952  0.2012 -0.1318
29213W        W45022  13.595   3.802  12.333  0.1412  0.0033  0.0665
29214W        W45023  17.273   8.309  13.295  0.0297  0.3000 -0.2105
29215W        W45024   8.004  12.557   4.065 -0.1830 -0.0710 -0.0844
29216W        W45025  10.970   8.648  10.853  0.1530 -0.1323 -0.4522
29217W        W45026  13.807  11.642  15.206  0.1372  0.1634 -0.3005
29218W        W45027  11.672  14.188   3.262  0.1693  0.0891  0.2455
29219W        W45028   9.347  10.931  10.807 -0.0200 -0.1076  0.0793
29220W        W45029   3.665  14.025  12.670 -0.0753 -0.2316  0.1402
29221W        W45030  14.294  14.907  14.482  0.0337 -0.1626 -0.1155
29222W        W45031   1.402   0.642   5.469  0.2554  0.0184  0.2418
29223W        W45032   8.934   3.928  13.746  0.0820 -0.0584 -0.1426
29224W        W45033   1.100  14.790   1.224 -0.0273 -0.1944 -0.2092
29225W        W45034   8.116  17.589  10.532  0.3634 -0.0072  0.2963
29226W        W45035  14.386  16.191  11.378 -0.6161 -0.1238 -0.2414
29227W        W45036  18.205  13.461   1.814  0.1175 -0.0734 -0.2672
29228W        W45037  14.345   2.390  15.064 -0.1523 -0.2049  0.1673
29229W        W45038  13.714  10.348   0.242 -0.1790 -0.1420  0.0150
29230W        W45039   3.438   9.309   1.821  0.2083  0.4146  0.2699
29231W        W45040   7.387   1.131   1.019  0.1595  0.0423  0.3377
29232W        W45041  12.177   7.935  11.874  0.1911  0.2519 -0.5449
29233W        W45042   3.342   9.849   5.062  0.0357  0.0697 -0.3147
29234W        W45043   4.669  14.258  13.517  0.0701 -0.0802  0.0759
29235W        W45044   5.587  18.433   0.640 -0.0957  0.2827 -0.1338
29236W        W45045  14.387  12.363  13.258  0.1087  0.3027  0.2633
29237W        W45046   7.659   6.839  14.295 -0.0307 -0.0997  0.0986
29238W        W45047   0.873  19.058   4.147  0.0143 -0.1210 -0.0808
29239W        W45048  12.621  16.164   0.027  0.1039  0.2421 -0.1948
29240W        W45049   5.987   2.386   3.003  0.0333 -0.1701 -0.3025
29241W        W45050   3.263  16.813   1.499  0.0280 -0.1692 -0.4019
29242W        W45051  17.527   9.992   2.023  0.5071  0.0557  0.2331
29243W        W45052   7.809  14.639  11.489 -0.3283 -0.0375 -0.1456
29244W        W45053  14.972   1.177   1.683  0.1556  0.2414 -0.0294
29245W        W45054  16.278   5.393   1.015 -0.0553 -0.0217 -0.0272
29246W        W45055   8.640   8.776  11.383 -0.1474 -0.2388 -0.0217
29247W        W45056   9.052  17.051  10.847  0.2838  0.0601  0.1126
29248W        W45057  11.764  13.199  11.720 -0.1216 -0.0444 -0.4024
29249W        W45058  16.395  11.644   5.471  0.0331  0.0303 -0.1745
29250W        W45059  14.808  10.765   0.474  0.0110  0.1349 -0.0813
29251W        W45060   9.907  18.298  12.899  0.1359 -0.1745  0.0130
29252W        W45061   7.227   0.109   3.368  0.4958  0.0388 -0.0710
29253W        W45062   4.352   6.239  11.096 -0.0023  0.0751 -0.1769
29254W        W45063  15.792   3.804   1.934 -0.2675 -0.1305 -0.1729
29255W        W45064  18.079  16.851  12.655 -0.0001 -0.0596  0.0219
29256W        W45065   3.776  12.252  14.372  0.1160  0.0305 -0.4804
29257W        W45066  11.005  10.773   3.767  0.3032 -0.1848 -0.0196
29258W        W45067   4.230  12.774   0.182 -0.3143 -0.1938  0.0620
29259W        W45068   6.952   7.719   5.900  0.0573  0.1845 -0.0941
29260W        W45069   3.633  16.216   0.238 -0.0133  0.1637 -0.0727
29261W        W45070   0.554   8.025  12.994  0.1427 -0.2321 -0.2303
29262W        W45071  14.471   5.437  14.619 -0.1406  0.3905 -0.1574
29263W        W45072  10.965   7.771   2.229  0.0450 -0.0287 -0.4574
29264W        W45073  11.864   2.082   1.883 -0.0734 -0.1187  0.0860
29265W        W45074  18.454  11.252  13.514  0.0048 -0.2047 -0.1131
29266W        W45075   3.943   4.202  11.358  0.3496 -0.0480  0.2044
29267W        W45076  12.287  17.812   5.567 -0.2612  0.0295  0.0302
29268W        W45077  10.767  16.789   2.203 -0.1543  0.0359 -0.0424
29269W        W45078   3.291   0.292   9.699 -0.1266 -0.0260 -0.0307
29270W        W45079   8.231   0.946   0.562  0.1630  0.3593  0.2555
29271W        W45080  16.909  15.651   0.538  0.1133 -0.0868  0.0859
29272W        W45081   1.826   5.277   0.396 -0.1300 -0.4846 -0.1113
29273W        W45082  14.783   9.968  11.203 -0.0874 -0.1413  0.1172
29274W        W45083  18.576   6.233  14.655 -0.1116 -0.1208 -0.2077
29275W        W45084   7.230   9.046  10.037  0.3906 -0.0504 -0.2833
29276W        W45085   3.616   4.453  10.330 -0.0147 -0.0107  0.1211
29277W        W45086  14.263   1.313   3.888  0.1699  0.1415  0.1597
29278W        W45087   1.518  19.024   1.342  0.0811 -0.0217  0.0459
29279W        W45088   0.514   5.379  14.834  0.3271  0.1543 -0.3586
29280W        W45089   6.243   7.146  13.592 -0.0577 -0.2297 -0.3194
29281W        W45090   7.089   9.076  10.579  0.0647  0.0291  0.0663
29282W        W45091  18.429   1.630   3.030  0.0081 -0.2886 -0.0244
29283W        W45092  10.591   6.293  15.103  0.0275 -0.2969  0.1214
29284W        W45093  13.008   7.054  13.980 -0.1221 -0.0365 -0.1330
29285W        W45094  11.631  17.864   3.750  0.1347 -0.2181  0.0932
29286W        W45095  12.211  13.937   2.330  0.1035 -0.3071 -0.0687
29287W        W45096  17.084  10.076  14.947 -0.0391 -0.3078 -0.2969
29288W        W45097  15.820  13.618  10.547  0.0810  0.2424  0.1035
29289W        W45098   7.585  15.799  14.783 -0.1367 -0.4348 -0.0112
29290W        W45099   6.202  10.441  12.198 -0.2915 -0.3064 -0.2030
29291W        W45100   8.829   9.625  10.399 -0.1607  0.1277  0.0783
29292W        W45101   9.901   6.570  15.036 -0.0628 -0.1273  0.1496
29293W        W45102  17.368   7.971   0.461  0.1476  0.3903  0.5082
29294W        W45103   8.571  16.370   0.510  0.0910  0.0697  0.1354
29295W        W45104  17.996  13.108   0.675  0.1713 -0.1637 -0.1747
29296W        W45105  10.342   7.228  13.046 -0.1203 -0.3849 -0.0984
29297W        W45106   2.707   0.044  10.865 -0.1274  0.1025  0.0600
29298W        W45107   7.859   0.083   2.305  0.0118 -0.0166  0.0805
29299W        W45108  17.181  17.426   2.879 -0.1897  0.1402  0.2911
29300W        W45109   5.858   1.907   5.119 -0.0553  0.1279  0.5134
29301W        W45110   2.347  13.794  10.664 -0.2114 -0.1823  0.2866
29302W        W45111   1.649  18.369  11.805  0.0061  0.2209  0.0094
29303W        W45112  10.126   4.471  15.071  0.2490 -0.2525  0.1169
29304W        W45113  17.206   2.202  13.055  0.1752 -0.0643 -0.0807
29305W        W45114   4.091  16.126   1.859  0.1230 -0.0358  0.1985
29306W        W45115  12.791   2.177  13.605 -0.1710 -0.3933  0.2169
29307W        W45116  15.781   8.592   3.341 -0.2007 -0.1848 -0.2483
29308W        W45117   1.336   2.587   3.138  0.2762  0.3069 -0.0771
29309W        W45118  12.998   7.913   3.708  0.0701 -0.1703 -0.2161
29310W        W45119  19.070  10.510  11.235  0.0894 -0.0097  0.2735
29311W        W45120  11.449   6.580   1.923  0.0407 -0.1474  0.3794
29312W        W45121  14.268  10.957  10.915  0.0196  0.3324  0.0186
29313W        W45122   5.938   5.599   3.843  0.1852  0.1562  0.0315
29314W        W45123   0.721  14.052   3.562  0.2355  0.0183  0.5690
29315W        W45124   0.980   3.151  10.942  0.0848  0.2103 -0.3653
29316W        W45125   8.565   5.188  15.136 -0.1815 -0.2312  0.1210
29317W        W45126   7.053  14.673   0.471  0.2715  0.1740 -0.0648
29318W        W45127   6.987  14.879  11.009 -0.1360 -0.0779 -0.1678
29319W        W45128  18.646  13.323   4.114  0.0439  0.1024  0.0967
29320W        W45129   8.974  19.106  13.734  0.2201  0.0554 -0.1672
29321W        W45130   3.936  10.827  14.706 -0.0174  0.2960 -0.1116
29322W        W45131   3.964   7.332  10.538 -0.1486  0.2011  0.0010
29323W        W45132  11.744  10.962  13.192  0.1465  0.1575 -0.1353
29324W        W45133  15.855   6.134   0.872  0.0480 -0.2804 -0.2686
29325W        W45134   9.988  11.065   0.385 -0.1030  0.1276 -0.0541
29326W        W45135   5.108  14.559   4.431 -0.0783  0.0033  0.1763
29327W        W45136  17.775   7.566  10.911  0.2204  0.0197 -0.2305
29328W        W45137   4.963   9.512  11.092 -0.1436 -0.2866  0.0872
29329W        W45138  11.686   3.192  11.350 -0.2067 -0.2130  0.0037
29330W        W45139  14.836   6.350  14.175  0.1009 -0.0988  0.0893
29331W        W45140  13.048   5.781   2.046 -0.0980  0.0115  0.1144
29332W        W45141  18.299  16.946  13.118  0.0871  0.0703  0.3594
29333W        W45142  11.084  15.185   5.113 -0.1109  0.0778 -0.0991
29334W        W45143   2.442   5.552   3.753  0.1184 -0.0459  0.3907
29335W        W45144  16.861  11.839  10.877 -0.0562 -0.0794  0.0770
29336W        W45145  12.127   6.810  15.235  0.0147  0.2246 -0.2343
29337W        W45146   2.967  14.335   2.705 -0.2636 -0.0688 -0.1143
29338W        W45147  12.289   7.469   2.200  0.0105  0.0370  0.1842
29339W        W45148   4.602   5.669  14.408  0.1378 -0.3447  0.2251
29340W        W45149   2.934  16.404  10.826  0.1950 -0.1266  0.1091
29341W        W45150   9.826   0.076   3.479 -0.0374  0.6413  0.0461
29342W        W45151   9.784   8.170  10.873  0.0508 -0.1032  0.0997
29343W        W45152  18.660  18.795   4.633 -0.2199  0.0616  0.2251
29344W        W45153   8.504  16.687   2.142  0.2755  0.0674 -0.0399
29345W        W45154  13.825   7.681  13.835 -0.3260 -0.2243  0.2252
29346W        W45155  18.078  18.745   9.493  0.0820  0.1749  0.0473
29347W        W45156  10.032   4.599   2.156  0.0109 -0.0882 -0.1626
29348W        W45157  16.365  10.265   2.903 -0.1455 -0.1191  0.1697
29349W        W45158  12.273   1.304  14.399  0.0110  0.2943  0.1724
29350W        W45159  16.036  12.350   4.044 -0.1217 -0.0280 -0.0884
29351W        W45160  11.627  18.131  10.668 -0.0228 -0.3814  0.0060
29352W        W45161  17.743  10.906  14.080 -0.1725  0.0071  0.3352
29353W        W45162   2.948   7.067  13.131 -0.1486 -0.0056  0.6542
29354W        W45163   2.922  10.204  15.257  0.3685 -0.2091  0.0376
29355W        W45164   6.113  10.665   3.292 -0.1803 -0.0246  0.1754
29356W        W45165  11.281   5.552  13.962  0.2100  0.2658  0.0943
29357W        W45166  14.181  18.616   3.962 -0.4241 -0.4148  0.1880
29358W        W45167   9.630  11.221   3.738 -0.1080 -0.1863  0.0347
29359W        W45168  17.064   3.554  10.946  0.2664 -0.2088 -0.2206
29360W        W45169   9.006   4.167  14.195 -0.0755 -0.2569 -0.1496
29361W        W45170   5.728  14.761  13.858  0.0888  0.2097 -0.1728
29362W        W45171   9.142  12.627  15.106 -0.3081 -0.1535  0.2615
29363W        W45172   6.195  16.635   9.791 -0.1092 -0.0535  0.1275
29364W        W45173   4.237   9.128  13.112  0.2397 -0.3524  0.2758
29365W        W45174   0.248  15.896  13.363  0.2508 -0.3153 -0.1286
29366W        W45175  10.053  15.144  14.197  0.0843  0.0697  0.4356
29367W        W45176  15.798  17.753   2.522  0.4665  0.2291  0.1303
29368W        W45177   3.845  10.246   9.999 -0.0680  0.0355  0.1419
29369W        W45178   2.744   7.106  13.589 -0.0300  0.0035  0.4202
29370W        W45179  14.120   2.516   5.016  0.2240  0.1721 -0.1708
29371W        W45180   3.999   5.944   0.744 -0.1586  0.0522 -0.2709
29372W        W45181  15.830   5.487   0.272  0.1023 -0.0484  0.2083
29373W        W45182  10.045   9.176  13.301 -0.2007 -0.0062 -0.0703
29374W        W45183  12.227   2.462  10.928 -0.4219  0.0773 -0.0413
29375W        W45184   3.682  17.771   4.873 -0.1019 -0.1994 -0.2374
29376W        W45185   7.762   0.356   3.366  0.1343 -0.4111 -0.0980
29377W        W45186   1.371   0.900  13.775 -0.1266 -0.0575 -0.3685
29378W        W45187  14.742  10.410   1.051 -0.0969 -0.1265 -0.1413
29379W        W45188   2.365  11.690  11.061 -0.1772 -0.0098  0.1244
29380W        W45189  18.476   1.106  13.917  0.2518  0.1358 -0.0178
29381W        W45190   3.094  18.657  10.389  0.4893 -0.0176  0.0190
29382W        W45191   6.169   9.963  12.709  0.0933 -0.2211 -0.3186
29383W        W45192  13.763  11.984  12.475 -0.0220 -0.0446  0.1920
29384W        W45193  14.891  12.905   4.233  0.0524 -0.1317 -0.0404
29385W        W45194   8.510   4.242  14.465  0.1850 -0.1234 -0.1151
29386W        W45195   7.233   9.947  10.885 -0.2340  0.1429 -0.0597
29387W        W45196   9.145   6.856   2.418 -0.0433  0.0363 -0.0683
29388W        W45197  18.255   8.044  12.572 -0.4073  0.3892 -0.1791
29389W        W45198  17.780  13.964  15.241  0.0124  0.2235  0.3325
29390W        W45199  12.067   7.234   0.233 -0.1636  0.0411  0.3111
29391W        W45200  18.398   7.776   4.124 -0.4991  0.0521  0.0006
29392W        W45201  11.292   0.894  12.533 -0.1906  0.1684  0.1126
29393W        W45202  16.320   2.565   4.422 -0.0499 -0.0530 -0.2410
29394W        W45203   4.992   7.115   2.219  0.0540 -0.2294  0.2928
29395W        W45204  13.210   1.205  14.799 -0.1053  0.0457 -0.2253
29396W        W45205  12.884  16.582   2.614  0.2363  0.2082 -0.0826
29397W        W45206  14.594   6.327   2.188  0.3501  0.4462  0.3720
29398W        W45207   1.220  18.567  13.563 -0.3615 -0.1807 -0.0983
29399W        W45208   5.746   2.223  10.220 -0.2664 -0.1844  0.0310
29400W        W45209   7.347   8.784   9.646  0.0037  0.1303 -0.3537
29401W        W45210   2.122   8.630  11.133 -0.3217 -0.0388 -0.0348
29402W        W45211   9.794  17.538   3.728 -0.0731  0.1509  0.1530
29403W        W45212  16.005  16.506   5.289  0.1586  0.3975  0.1242
29404W        W45213   6.342  17.333   0.991 -0.0948 -0.0557 -0.0797
29405W        W45214  12.461   8.131   5.027 -0.3134 -0.0081 -0.0579
29406W        W45215  18.397   8.790  13.543  0.3279 -0.0677  0.1130
29407W        W45216  13.965   1.956  14.666  0.3462  0.1630  0.0082
29408W        W45217  18.752  10.068   3.345 -0.2995  0.1777  0.0049
29409W        W45218   3.162  17.893   2.823  0.1054 -0.1654 -0.1747
29410W        W45219  13.147  18.947   0.240 -0.0626 -0.0939 -0.1465
29411W        W45220   9.312   3.817  11.049  0.0813  0.0829 -0.0745
29412W        W45221  10.587   8.001  14.174 -0.4122 -0.4749  0.4044
29413W        W45222  17.739  11.799   5.588 -0.2620  0.2291 -0.0077
29414W        W45223   1.085   3.835   1.583 -0.1250  0.0618 -0.0102
29415W        W45224   8.075   3.052  12.377  0.0081  0.3231  0.0471
29416W        W45225  13.789  11.229  14.187  0.1642  0.0156 -0.0435
29417W        W45226   7.069  14.161   2.792 -0.0383 -0.4177  0.1227
29418W        W45227   3.268   9.568  14.872 -0.3058 -0.0747 -0.0774
29419W        W45228   7.417   8.589   4.605  0.3553 -0.2964  0.1064
29420W        W45229  12.990  10.904  14.388  0.0875 -0.1221 -0.0017
29421W        W45230   7.283  10.453  10.173  0.0804  0.1621  0.3569
29422W        W45231  17.803   7.336   2.239  0.4114 -0.0038  0.0022
29423W        W45232   6.522   0.525  10.307  0.1258  0.1360 -0.0073
29424W        W45233   3.881  18.487  12.116  0.1300 -0.0906 -0.3319
29425W        W45234  14.138  19.106  12.708 -0.0604  0.1857 -0.1871
29426W        W45235  16.478  13.680  12.154 -0.2113  0.0609 -0.0005
29427W        W45236   3.773   6.700  12.798  0.3302 -0.0396  0.3838
29428W        W45237   5.962  16.771   1.602  0.0951  0.1851 -0.1494
29429W        W45238   9.356   2.545   2.089  0.0080 -0.3074  0.6012
29430W        W45239   0.486  15.009  10.774  0.3469  0.0106 -0.2442
29431W        W45240   5.301  18.811   0.334  0.1137  0.1361  0.1708
29432W        W45241  10.470   6.008  13.414  0.6491 -0.0469  0.0086
29433W        W45242  16.692   6.850  12.456 -0.5234  0.1547  0.1281
29434W        W45243  12.805  17.649   5.684  0.0102  0.0549  0.0874
29435W        W45244  15.223   1.024  11.190 -0.1926 -0.1460  0.2621
29436W        W45245  18.813  10.873  13.295 -0.2899  0.1375  0.4527
29437W        W45246   8.003   6.477  15.010  0.3479  0.1299 -0.0594
29438W        W45247   8.495   4.125  12.674 -0.2825  0.0947  0.2284
29439W        W45248   0.891   7.293   5.623  0.0505  0.1267 -0.2475
29440W        W45249   2.851  10.056  14.749 -0.0076  0.0660 -0.0156
29441W        W45250  15.159   4.265   3.579 -0.1970  0.3610 -0.2304
29442W        W45251  14.663  11.704  14.703  0.0424 -0.1721 -0.1364
29443W        W45252   9.222  11.910   3.756  0.2434 -0.0785  0.1175
29444W        W45253   6.718   2.324  14.932  0.1402 -0.0809 -0.2035
29445W        W45254  17.627  19.071   2.026  0.0058 -0.1074 -0.1385
29446W        W45255   9.945   9.240   0.109  0.0621 -0.2563  0.1395
29447W        W45256  18.769   6.630  14.461  0.0814  0.0571 -0.2212
29448W        W45257  13.393   1.626   0.145  0.3264  0.2656  0.0123
29449W        W45258  12.575   2.706  11.519  0.1093  0.1017 -0.0753
29450W        W45259   3.642  12.069   0.101  0.2360  0.0604 -0.1970
29451W        W45260  17.982  16.222   1.374  0.1762  0.1744 -0.0438
29452W        W45261  10.712  17.881   1.263  0.0071  0.1802  0.1857
29453W        W45262  14.727   2.862   2.121 -0.2074  0.0367  0.0327
29454W        W45263   1.917  14.685  12.228 -0.3482  0.0617 -0.0828
29455W        W45264   4.345   8.419   3.287 -0.0418  0.0955 -0.0658
29456W        W45265  17.286  12.197   1.081 -0.0747  0.2634  0.2388
29457W        W45266   8.103  10.295  11.278  0.1195  0.2118  0.2108
29458W        W45267  17.857   8.793   3.854  0.1586 -0.4459 -0.1259
29459W        W45268   4.546   7.317   3.399  0.1023  0.0778 -0.0333
29460W        W45269  16.360  11.399  12.213 -0.2252 -0.1995  0.1929
29461W        W45270   9.052  10.800   3.787 -0.2655  0.1651  0.1889
29462W        W45271   7.733  13.202   3.660 -0.2450 -0.2332  0.1656
29463W        W45272  10.199  12.151   3.004  0.0674  0.0918 -0.4392
29464W        W45273   6.415  12.989   3.801  0.3583 -0.0792 -0.1327
29465W        W45274  18.547   5.748  12.346 -0.0371  0.0945  0.0040
29466W        W45275  18.078   4.387   1.645 -0.1215  0.0198 -0.0502
29467W        W45276   0.399   3.069   3.540 -0.0134 -0.0166  0.1361
29468W        W45277   0.324  18.749   4.939 -0.1330 -0.0786  0.1980
29469W        W45278  16.185  17.168   3.036  0.1575  0.0206  0.0325
29470W        W45279   8.812   3.029  15.007 -0.0070 -0.2924  0.0158
29471W        W45280  15.089  13.335  14.340 -0.2097 -0.0293  0.0930
29472W        W45281  11.156   7.172  10.455  0.1708  0.0526  0.2596
29473W        W45282  12.942  16.879   5.328  0.1864 -0.0218  0.3629
29474W        W45283  15.980  14.297   5.793 -0.0019 -0.1240  0.0539
29475W        W45284  12.057  17.011   5.480  0.1507 -0.0857 -0.1075
29476W        W45285  13.968   9.236  12.818  0.0962 -0.0809  0.0770
29477W        W45286  12.866   8.775  15.146 -0.2806  0.1044  0.2944
29478W        W45287   5.735   6.342  10.416  0.2829 -0.1476 -0.2355
29479W        W45288   0.337   5.730   2.820 -0.0110  0.0113  0.1649
29480W        W45289  14.694   0.064  12.698  0.2213  0.2967  0.0716
29481W        W45290   6.216   1.022   9.988 -0.0203  0.0783  0.0503
29482W        W45291  13.022   8.633   0.455 -0.0339 -0.1859 -0.1196
29483W        W45292   1.049   9.795   5.072 -0.0977  0.0517  0.0936
29484W        W45293   5.337   2.339   3.172 -0.2945 -0.3596 -0.0910
29485W        W45294  12.928   6.791   0.450  0.0061  0.0484 -0.2221
29486W        W45295   6.114   0.994  13.320 -0.2840  0.1144  0.0842
29487W        W45296   1.935   7.329   3.391  0.0630  0.0187  0.4912
29488W        W45297  13.225  18.503   3.142  0.4078 -0.1168  0.0827
29489W        W45298  19.027  11.995  14.483 -0.0453  0.1640  0.1715
29490W        W45299   5.125  13.159  14.564  0.4403  0.0841 -0.0986
29491W        W45300   8.255   6.869  12.038 -0.1159  0.0030  0.2263
29492W        W45301  13.678   5.379  14.006 -0.0376  0.4079  0.0366
29493W        W45302   7.457  14.015   3.197 -0.2742 -0.3186 -0.4198
29494W        W45303   8.595   9.030   0.202  0.4858  0.0671  0.1471
29495W        W45304  13.369  11.488  11.297 -0.0141  0.2138  0.0837
29496W        W45305   5.931  14.413   0.847 -0.0831  0.2677 -0.1763
29497W        W45306  17.213  17.493  14.205  0.1255  0.0586 -0.4836
29498W        W45307  17.161   8.453   0.310 -0.2286  0.0601 -0.5048
29499W        W45308  14.398  11.245   3.238 -0.0492  0.2109 -0.0996
29500W        W45309   4.129   2.265  13.636 -0.2392  0.0980  0.1694
29501W        W45310   8.190  13.510   1.301  0.4730  0.0117 -0.1336
29502W        W45311   0.415  13.725   3.304  0.0348 -0.1274 -0.1599
29503W        W45312   4.844   8.046  14.060  0.1275  0.2550 -0.0568
29504W        W45313  15.368   8.069  14.214  0.2774  0.2936  0.0270
29505W        W45314   5.475  10.803   5.145 -0.0058  0.2147 -0.2886
29506W        W45315   8.551  17.538  13.589 -0.3491  0.3889 -0.0843
29507W        W45316  17.492  13.709  14.564  0.2876  0.0546  0.2592
29508W        W45317   4.000   3.882  14.413 -0.1445 -0.3440 -0.0915
29509W        W45318   8.141  11.720   2.147 -0.4509 -0.1890  0.2224
29510W        W45319  16.480   5.524   4.294  0.0168  0.4061 -0.0241
29511W        W45320  15.154  14.151  13.415  0.0584 -0.2115  0.0757
29512W        W45321   1.013   2.475   2.766  0.2917 -0.0508  0.1481
29513W        W45322  14.987  15.002   0.774 -0.0736 -0.0187 -0.0184
29514W        W45323   2.127  11.698   1.923  0.1291 -0.2408  0.1170
29515W        W45324  11.915   5.543  10.338 -0.3225  0.0853  0.1556
29516W        W45325   9.132   2.196   2.508 -0.0636 -0.1771 -0.0130
29517W        W45326   7.328  16.621   4.340  0.1339  0.1853 -0.1390
29518W        W45327   2.332   7.238   0.591  0.3076 -0.0403 -0.1103
29519W        W45328   5.734   3.505  13.521  0.1402 -0.2713  0.0497
29520W        W45329   2.898   7.225   2.805 -0.0033  0.0139 -0.2429
29521W        W45330   2.878  13.171   4.813  0.2611 -0.0066  0.1548
29522W        W45331  17.840   8.236   4.086 -0.0870 -0.1516 -0.0742
29523W        W45332  17.049   5.918   4.284  0.1934 -0.1015  0.1724
29524W        W45333   5.151  17.030   1.940 -0.0334 -0.0350 -0.0538
29525W        W45334   5.076  18.493   0.672 -0.2656  0.0189 -0.0626
29526W        W45335  11.161   7.077   3.876 -0.1331  0.0955  0.2708
29527W        W45336   5.575   0.992  11.835  0.0796  0.2684 -0.0914
29528W        W45337   6.172   3.763   3.829  0.0491  0.1741  0.3256
29529W        W45338  16.909  14.097  14.530  0.1426 -0.2484 -0.1205
29530W        W45339  13.828   0.885   4.689  0.0719  0.1294  0.1999
29531W        W45340  13.691  12.516  11.524  0.0272  0.3304 -0.3103
29532W        W45341   9.973  18.563   2.306 -0.0498  0.0633 -0.0811
29533W        W45342  17.547   7.725  14.223 -0.0313  0.3168 -0.1418
29534W        W45343   5.022   9.525   1.341  0.1149 -0.0783  0.1588
29535W        W45344   5.623   9.004  14.993  0.2373 -0.0605  0.0774
29536W        W45345   6.413  16.433  12.677 -0.2459 -0.3046  0.0338
29537W        W45346  13.217  10.911   0.314 -0.2932 -0.1093 -0.0018
29538W        W45347  15.312  14.252  11.032  0.2521 -0.0338 -0.0952
29539W        W45348   4.193  17.076  14.212 -0.1341 -0.0738 -0.0696
29540W        W45349   4.973   7.215  11.363 -0.2553 -0.2358 -0.2066
29541W        W45350  10.588  14.667   1.000  0.0962 -0.6865 -0.1918
29542W        W45351   3.955   6.264   4.634  0.3628  0.0594 -0.2155
29543W        W45352   5.493  18.739   4.160 -0.2861 -0.1518  0.5409
29544W        W45353   4.327  15.956  13.272 -0.0781  0.1109 -0.0913
29545W        W45354   2.695   8.499   5.185  0.0211 -0.1699  0.0925
29546W        W45355  16.131   2.067   3.188  0.0836 -0.1616  0.1597
29547W        W45356  11.027   9.463   1.125  0.0424  0.3540 -0.4602
29548W        W45357  12.995   1.385   4.758 -0.0006  0.0728  0.0512
29549W        W45358   9.243  16.104   2.871  0.3714  0.0653 -0.2911
29550W        W45359  12.958  13.870  11.813 -0.2218  0.0458 -0.0609
29551W        W45360   1.242   8.824  14.331 -0.0714 -0.0245  0.1640
29552W        W45361   4.973  16.039  14.801 -0.1086  0.0519 -0.1087
29553W        W45362   3.659  11.601  15.027  0.1625 -0.1723  0.5342
29554W        W45363   3.025  11.082  14.563 -0.3482  0.0705 -0.0179
29555W        W45364  11.506   6.992   9.518  0.0137 -0.1188  0.3007
29556W        W45365   7.825   0.148  11.003  0.0923  0.0482 -0.1696
29557W        W45366  15.524   2.135   9.965  0.1852  0.0938  0.2660
29558W        W45367   6.995   1.314  14.961 -0.0657  0.3801 -0.1445
29559W        W45368  10.160   0.597   2.058 -0.0024  0.1386  0.2230
29560W        W45369   1.986  10.863  14.650 -0.1700 -0.2184  0.0945
29561W        W45370  15.273  14.782  11.181 -0.1271 -0.2826 -0.1002
29562W        W45371   7.641   7.430  11.536  0.0429  0.1554 -0.2833
29563W        W45372   1.093   6.791  13.086  0.0445 -0.1194 -0.0668
29564W        W45373  13.861  16.851   3.853  0.3617 -0.2496  0.1647
29565W        W45374  12.400  18.573  12.781  0.0476 -0.1425 -0.0950
29566W        W45375   0.400   8.032   3.103  0.4278  0.1763  0.1468
29567W        W45376   1.658  18.505  11.016 -0.3074 -0.0976 -0.4068
29568W        W45377  16.104  12.523   1.661  0.4413  0.1240  0.1385
29569W        W45378  17.303  13.637   1.134  0.1328 -0.2146 -0.0193
29570W        W45379   5.394  14.814   3.507 -0.0505 -0.2343  0.1153
29571W        W45380  16.307  13.295  12.771 -0.1052  0.0645  0.3539
29572W        W45381   7.213   8.850   1.598  0.1596 -0.1884 -0.0327
29573W        W45382  18.950  11.372  12.317 -0.0652 -0.2045 -0.1087
29574W        W45383   7.891   9.539   0.724 -0.0748 -0.2160  0.1084
29575W        W45384   1.808  16.879   3.623  0.4487 -0.2103 -0.1370
29576W        W45385  15.796   5.753   5.300 -0.0088  0.0586 -0.1686
29577W        W45386   4.330   8.122  14.890 -0.0267 -0.0623  0.0498
29578W        W45387   8.462  15.644  12.421 -0.1941  0.1497 -0.4803
29579W        W45388   8.228   7.085  13.493  0.1758 -0.3230  0.1289
29580W        W45389  12.579  18.465   0.005 -0.1649  0.0900 -0.3461
29581W        W45390  18.441  18.067   0.920 -0.0097  0.2051  0.0816
29582W        W45391   1.668   8.991  13.917 -0.2059  0.2034 -0.0446
29583W        W45392   0.089   0.044   3.933 -0.2890 -0.1461  0.2057
29584W        W45393   4.291  15.814   4.071 -0.1645  0.3001 -0.0142
29585W        W45394   4.664   4.262  12.370  0.3471  0.0127  0.1326
29586W        W45395  13.013  15.658  13.264  0.1425 -0.1943 -0.1085
29587W        W45396   3.032  17.939  11.938  0.0296 -0.0713 -0.1808
29588W        W45397  19.043   8.818  14.640 -0.0244  0.0016 -0.2370
29589W        W45398   8.339  16.539   0.015  0.4050  0.1124  0.1251
29590W        W45399  16.073   8.123  13.304 -0.3346  0.1878  0.0255
29591W        W45400   4.863   0.573  12.818 -0.3060  0.0170 -0.4575
29592W        W45401  18.120   5.416  11.419  0.2618 -0.0814  0.3396
29593W        W45402   6.881   9.964   3.469  0.1081 -0.0194 -0.1382
29594W        W45403   2.616   2.123   4.314  0.1091 -0.2516  0.1105
29595W        W45404  12.045   5.606  14.637  0.1853  0.1006  0.3583
29596W        W45405  14.705  14.000   3.167  0.3748  0.2168 -0.0118
29597W        W45406  11.608   3.340  12.632  0.0260 -0.0210 -0.0107
29598W        W45407  10.723   3.623   9.934 -0.2129 -0.0857 -0.4162
29599W        W45408   5.022   4.429   4.852 -0.1723  0.2964 -0.1225
29600W        W45409   2.025   0.093  14.071  0.0876  0.3812  0.1608
29601W        W45410  18.174   3.052  13.776 -0.0225  0.1544 -0.5512
29602W        W45411  16.057   0.953   1.169 -0.4680 -0.0644 -0.1997
29603W        W45412   6.859  17.754  11.757 -0.3651 -0.1747  0.1759
29604W        W45413   6.707  17.140   1.632  0.1723  0.0676 -0.1730
29605W        W45414   2.895  16.088  11.278  0.1295 -0.1846 -0.0249
29606W        W45415   1.595  14.080   3.659 -0.0318  0.1493 -0.0890
29607W        W45416  15.255  12.071  14.834  0.0663  0.0950 -0.0435
29608W        W45417  12.920   7.587   4.081 -0.1104  0.0775  0.2711
29609W        W45418   0.669   8.217   0.906  0.2600 -0.1125  0.1772
29610W        W45419  16.855   9.400  11.685  0.2328 -0.1864  0.0750
29611W        W45420  18.279   8.295   3.966 -0.3406 -0.0076  0.0781
29612W        W45421   4.146   8.832  14.047 -0.1027  0.0233 -0.0691
29613W        W45422  12.244   4.633   3.237 -0.0049  0.1141  0.2089
29614W        W45423  16.076   7.978   2.930  0.3146  0.2102  0.1074
29615W        W45424   5.557  10.835  12.807  0.1850 -0.1123  0.2086
29616W        W45425   5.938   8.181   0.959  0.2687 -0.1345 -0.1168
29617W        W45426   0.768  18.519  12.737 -0.1237  0.0168  0.1545
29618W        W45427   0.078   8.667   4.041 -0.0659 -0.1660 -0.2658
29619W        W45428   3.322  14.086  12.976 -0.2627 -0.0533  0.0559
29620W        W45429   2.276   1.855  10.124 -0.1141  0.1781 -0.0654
29621W        W45430  12.679  10.044   4.712 -0.0664 -0.1758 -0.1232
29622W        W45431  15.790  15.757  11.881 -0.0878 -0.0114  0.0172
29623W        W45432  16.791  11.778  14.656 -0.1138 -0.0685 -0.1666
29624W        W45433   4.509   4.539   4.763  0.0575 -0.1367 -0.0227
29625W        W45434  17.983  15.437  14.427 -0.1947  0.1611  0.1055
29626W        W45435   9.130  16.872  12.635 -0.0266 -0.0673  0.2594
29627W        W45436   3.602  11.430   1.921  0.0482  0.0565 -0.0101
29628W        W45437   9.620  16.486  14.359  0.1339 -0.1834 -0.1437
29629W        W45438   0.434  13.775   3.839  0.1435 -0.1358  0.1462
29630W        W45439   9.360   9.389  12.578 -0.1030  0.0471  0.2113
29631W        W45440  13.927   2.200   3.731  0.0933 -0.2607 -0.1392
29632W        W45441   3.806   3.038  13.389  0.1770 -0.3760 -0.1525
29633W        W45442   8.012   8.458  13.909 -0.2125  0.1592 -0.1421
29634W        W45443  14.604  11.885  13.268 -0.2270 -0.1868  0.4080
29635W        W45444   7.476  19.088  10.200  0.3026  0.0834 -0.2326
29636W        W45445  15.142  16.263  15.000 -0.0162  0.0138  0.0150
29637W        W45446  11.506  16.643  13.991  0.0891 -0.2338  0.0863
29638W        W45447  19.106  13.727  12.831  0.1067  0.0533 -0.1633
29639W        W45448  11.460   2.641  11.453 -0.0744 -0.0523  0.1566
29640W        W45449  10.438  17.974   4.209 -0.2083  0.3395 -0.1087
29641W        W45450   4.400  18.955   4.418 -0.1801  0.0676  0.0133
29642W        W45451   7.281   9.979   3.151 -0.0199  0.1754  0.0886
29643W        W45452   4.343   2.453   5.025  0.3213  0.0020  0.0607
29644W        W45453  13.903  10.093  15.094  0.0077  0.0952 -0.0478
29645W        W45454   0.327   6.733   4.868  0.3149 -0.0927 -0.2216
29646W        W45455  14.987  10.490  13.261  0.0068 -0.1099 -0.0196
29647W        W45456   8.183   1.555  10.893 -0.4563  0.3385 -0.0161
29648W        W45457   2.891   9.313  12.512  0.0328  0.1634 -0.1765
29649W        W45458   7.567   6.899   0.432 -0.0641 -0.3522 -0.0174
29650W        W45459  16.475   4.255   0.103  0.3403  0.1603  0.0296
29651W        W45460  17.625   2.796   2.133 -0.1438 -0.0194 -0.0204
29652W        W45461   2.472   6.619  14.793  0.2711 -0.0963  0.1641
29653W        W45462  16.863  10.248   2.771 -0.4239  0.0733  0.3376
29654W        W45463   6.440  18.788   0.521 -0.1433 -0.3296 -0.2156
29655W        W45464   7.315   6.012   2.277 -0.1671  0.0205 -0.2088
29656W        W45465   8.492   0.627  14.178 -0.0432  0.1254  0.0240
29657W        W45466   5.815   0.841  15.137  0.2335  0.1391 -0.3763
29658W        W45467   6.877   2.700   1.469 -0.3076 -0.0412  0.0196
29659W        W45468   1.599   8.569   3.797 -0.0678  0.1051  0.0665
29660W        W45469   5.769  15.550  12.675  0.0749  0.2088  0.0627
29661W        W45470  17.600   8.827   9.543  0.2616  0.0896 -0.0036
29662W        W45471  14.582   3.361   4.476  0.0579  0.0932  0.1233
29663W        W45472   6.068  17.118   0.618 -0.2156 -0.0977  0.4075
29664W        W45473  11.245  17.437  11.224 -0.1881 -0.1647  0.2647
29665W        W45474  18.403   7.324  10.416 -0.2727  0.1403 -0.0641
29666W        W45475   9.469  18.155   2.888 -0.0322 -0.0012  0.0592
29667W        W45476   8.605   5.803  11.218 -0.0235 -0.1194 -0.0377
29668W        W45477   6.715   5.085   2.777  0.1254 -0.3063  0.1244
29669W        W45478   0.071  10.024  12.124  0.0730  0.0084 -0.3916
29670W        W45479   7.503   5.325  12.508 -0.1412 -0.0560 -0.2399
29671W        W45480  12.063   4.085  13.708 -0.0327 -0.0739 -0.1617
29672W        W45481   2.495   1.933   1.526 -0.2908  0.1880 -0.1536
29673W        W45482  13.092   2.122  12.086  0.1451  0.2138 -0.1998
29674W        W45483  10.060  18.604  14.263 -0.0288  0.1720  0.3125
29675W        W45484   3.500   6.477   1.031  0.2999 -0.1788 -0.3667
29676W        W45485   6.059  12.373   0.280 -0.5270 -0.0531  0.0711
29677W        W45486  14.127   6.767  14.211 -0.0770  0.2259 -0.0105
29678W        W45487   8.469   1.914  11.779  0.0362 -0.0572  0.2121
29679W        W45488   0.564   8.620  11.452  0.0755  0.3176 -0.3594
29680W        W45489   2.589  14.077  12.358 -0.0007 -0.1205 -0.0677
29681W        W45490  13.992  18.422  14.779 -0.1641  0.1191 -0.2418
29682W        W45491   4.014   8.170  12.564 -0.0415  0.0549  0.2040
29683W        W45492   1.320  14.911  14.690  0.2369 -0.0217 -0.0973
29684W        W45493   1.141  16.501   3.137  0.3515  0.0503 -0.0994
29685W        W45494  15.610   3.104  13.582  0.3401  0.1729  0.0392
29686W        W45495   8.132  11.656  13.026  0.0728  0.1273 -0.3931
29687W        W45496   3.868  10.734   1.989  0.1387  0.2433  0.1382
29688W        W45497  11.846   0.363   3.515  0.1257  0.4903  0.0953
29689W        W45498  16.800   6.045   0.653  0.2672  0.0073  0.1906
29690W        W45499  15.578   3.640   4.194  0.0502  0.2292  0.2772
29691W        W45500  12.318   9.632  14.163  0.0703  0.1323  0.3423
29692W        W45501   2.829   2.413   3.748  0.0627 -0.0890  0.3553
29693W        W45502   4.697  17.384   0.292 -0.1881 -0.2747  0.1882
29694W        W45503  18.592   8.033   2.882 -0.0536  0.0434  0.1838
29695W        W45504   0.037   8.333  11.645  0.3031 -0.2901  0.0839
29696W        W45505  10.938  14.702   5.079  0.1622 -0.1006 -0.0624
29697W        W45506   2.942  14.135  13.330  0.2436 -0.0556 -0.1208
29698W        W45507   2.998   4.612   1.677  0.4790  0.3530  0.0799
29699W        W45508  12.781  11.693  10.765 -0.1131 -0.0117 -0.0080
29700W        W45509  17.812   5.813   0.026 -0.5127  0.1617  0.0247
29701W        W45510  11.044  14.966   3.176  0.1039 -0.2006  0.0087
29702W        W45511  13.324  11.128  12.489  0.1224 -0.0008  0.0607
29703W        W45512   6.703  10.102   2.593  0.0450 -0.0434 -0.2762
29704W        W45513   8.095  18.148  10.461 -0.1512  0.0995  0.0213
29705W        W45514   4.587   3.368   1.126  0.3002 -0.2849  0.1745
29706W        W45515  10.794   9.774   4.064  0.0315  0.1897 -0.0297
29707W        W45516  15.272  16.763  11.300  0.6318  0.0566  0.0344
29708W        W45517   9.416   8.808  12.794  0.0730  0.2229 -0.2234
29709W        W45518   5.893   0.011  14.316  0.0795  0.2642  0.1487
29710W        W45519  11.346   4.150   3.398  0.3852 -0.1223  0.2224
29711W        W45520   8.958  12.236  10.326 -0.2382 -0.0642 -0.0536
29712W        W45521  10.592   8.112  14.708  0.2335  0.1939  0.0788
29713W        W45522  11.457  12.337  10.405 -0.2371 -0.3628  0.1748
29714W        W45523  10.958  14.860  12.619  0.1373  0.1861  0.2034
29715W        W45524   0.795  13.224  11.987  0.0188 -0.1652 -0.0992
29716W        W45525  12.945  18.385   3.706  0.3278 -0.6064  0.2638
29717W        W45526   1.685   3.992  12.237  0.2169  0.1095 -0.1029
29718W        W45527   5.072   4.168  15.246 -0.1295 -0.2719 -0.1868
29719W        W45528   5.808  17.821  14.630 -0.2035 -0.0380 -0.0183
29720W        W45529   5.212   9.460   1.937 -0.1346  0.2462  0.0988
29721W        W45530   3.904  12.629   4.971  0.2276 -0.0420 -0.0629
29722W        W45531   5.328   4.837  11.671  0.0304 -0.1164 -0.3379
29723W        W45532  11.058  10.150   0.185  0.0780  0.0386  0.1436
29724W        W45533  13.648  16.957   3.430 -0.4231 -0.2344 -0.3074
29725W        W45534  15.493   5.784  14.736 -0.0465  0.1392 -0.0505
29726W        W45535   5.864  14.566  10.193 -0.3336  0.1410 -0.1470
29727W        W45536  11.165   5.312  14.678  0.0571  0.1725  0.2409
29728W        W45537  16.554   6.267  13.894  0.0390 -0.0918  0.0428
29729W        W45538   1.082  18.571   4.148 -0.2872  0.0629 -0.2101
29730W        W45539  16.633  18.420  15.147  0.2478 -0.1414  0.1159
29731W        W45540  14.847   8.392  12.211  0.0150  0.1994 -0.1458
29732W        W45541  14.732  16.276   3.890  0.2725 -0.0511  0.0150
29733W        W45542   1.946   2.757   0.967 -0.0396 -0.0730  0.2442
29734W        W45543   7.855   6.540   0.720  0.0702  0.2039 -0.1754
29735W        W45544   8.221   5.681  13.378 -0.0514  0.1910 -0.0859
29736W        W45545  16.835  13.702  14.934  0.2237  0.2545  0.0554
29737W        W45546  17.440  11.436   1.049 -0.1287 -0.0981 -0.1997
29738W        W45547  11.675   7.143   1.206 -0.1306 -0.0960 -0.1413
29739W        W45548  13.332   8.241   4.045  0.0388 -0.2892 -0.1563
29740W        W45549  17.160   4.342  10.347  0.0695  0.0670  0.0151
29741W        W45550   5.278   7.628  12.696 -0.0835  0.3855 -0.5054
29742W        W45551   7.755   7.169  13.201 -0.0189  0.1221 -0.0615
29743W        W45552   4.931   5.615   9.970  0.1449  0.2297  0.0899
29744W        W45553  14.127  17.384  13.728 -0.0568  0.1495 -0.1887
29745W        W45554  11.543  14.710  13.572 -0.3255  0.0158  0.2125
29746W        W45555  14.242  17.486  12.109 -0.0830 -0.1601  0.1374
29747W        W45556   1.009  15.467   3.101  0.0261 -0.0555 -0.1291
29748W        W45557  17.553   0.412   3.211  0.0398  0.1419 -0.1392
29749W        W45558  14.133   4.794   3.667 -0.3282 -0.4643 -0.1931
29750W        W45559   1.763  12.980   2.376  0.3943 -0.0536 -0.0174
29751W        W45560  11.630   4.960   2.257 -0.0112  0.1310 -0.1561
29752W        W45561   5.821   1.057  14.622 -0.0610 -0.1970 -0.1107
29753W        W45562   2.864  13.016  13.703 -0.1223 -0.1833 -0.0105
29754W        W45563   4.232   4.263  12.083  0.0325  0.3207  0.0184
29755W        W45564  10.997  16.332  13.349  0.0737  0.2928 -0.0265
29756W        W45565   7.384  16.704  14.878  0.1699 -0.1698 -0.2542
29757W        W45566  12.162   4.047  12.268  0.1923 -0.1182 -0.0925
29758W        W45567   6.911  15.464  14.498 -0.0479 -0.0748  0.0400
29759W        W45568   7.170   8.597   2.888 -0.2382  0.1247 -0.0724
29760W        W45569   0.219  13.917   4.325 -0.3587  0.1446  0.1515
29761W        W45570   4.808  17.332   9.111 -0.3756  0.2358  0.0250
29762W        W45571  16.425  13.938  11.697  0.0812  0.2633 -0.0007
29763W        W45572   1.874   0.989  12.869  0.0829  0.0687  0.2161
29764W        W45573  10.182   1.048  14.950  0.1358  0.1407 -0.1159
29765W        W45574  18.291  18.628  11.099  0.0470 -0.0190 -0.2821
29766W        W45575  16.334  14.398  12.968  0.4574 -0.0382 -0.2566
29767W        W45576  13.723   2.697  14.103  0.0548  0.1882  0.1606
29768W        W45577  13.822  17.896  10.986  0.0296 -0.1470 -0.2086
29769W        W45578   2.359   5.152   2.736  0.1884 -0.2626  0.1417
29770W        W45579  10.876   8.878   2.234  0.1440 -0.0556 -0.1123
29771W        W45580  18.684   4.078   1.058 -0.0779  0.0600 -0.1533
29772W        W45581  14.401   0.319  13.693 -0.0477  0.2747 -0.2420
29773W        W45582   8.222   0.807  10.249  0.0557 -0.2180  0.3271
29774W        W45583   8.069   7.991  11.032  0.1900  0.1924  0.1600
29775W        W45584   4.766   6.954   1.300  0.0740 -0.1018 -0.1522
29776W        W45585  16.722  13.472   5.503 -0.2338  0.0027 -0.0253
29777W        W45586  13.782  11.289  14.736 -0.1259  0.2086  0.1320
29778W        W45587   8.815   2.376  11.745 -0.0154 -0.0021 -0.1296
29779W        W45588   8.729   8.297  11.604 -0.2780  0.0826  0.1052
29780W        W45589   2.564   8.838  11.324  0.0522  0.2864 -0.2528
29781W        W45590  17.847  18.440  14.989  0.0422 -0.1574 -0.0667
29782W        W45591  17.453   6.440  11.968 -0.3616  0.4826 -0.2457
29783W        W45592   0.704   3.100  11.659 -0.0890 -0.1182  0.1260
29784W        W45593  10.973  13.258   2.721 -0.0000  0.1592  0.0347
29785W        W45594   9.118  14.949  14.936  0.0758  0.3878  0.0227
29786W        W45595  10.733  15.319  12.783  0.0082  0.0289 -0.0391
29787W        W45596  17.874   3.902   0.426 -0.0664 -0.0295  0.0983
29788W        W45597   0.836  12.726  15.222 -0.0467  0.2160  0.3933
29789W        W45598  16.358   5.700  13.141 -0.1000  0.3165  0.1320
29790W        W45599  18.494   2.949   1.831  0.3901  0.2380 -0.0596
29791W        W45600  18.095  19.107  11.868 -0.2229  0.0885  0.1505
29792W        W45601  13.085  17.722   2.291 -0.2483 -0.2186 -0.0377
29793W        W45602   1.107  11.517  13.558 -0.0808  0.0517 -0.0095
29794W        W45603   7.247   5.121  10.332 -0.0411  0.1263  0.5435
29795W        W45604   9.768   0.868   9.262 -0.0922  0.0465  0.1317
29796W        W45605   8.013  13.171   4.241  0.0453  0.3961 -0.0168
29797W        W45606   1.921   9.357   2.170 -0.1463 -0.1153 -0.2450
29798W        W45607   3.441   5.440   1.987  0.1181  0.1404  0.0523
29799W        W45608   9.314   4.345   3.020  0.0997 -0.3446  0.2675
29800W        W45609  11.707   6.083  15.106 -0.2471 -0.3634 -0.2833
29801W        W45610   0.880   4.081  10.372  0.1236  0.2912  0.2648
29802W        W45611  11.442   6.121   1.190  0.2155  0.2625  0.1162
29803W        W45612  15.303   6.053  13.437  0.4422 -0.2619 -0.0352
29804W        W45613   9.294  11.095  15.055  0.1080  0.1095  0.0521
29805W        W45614  14.681  14.128  13.236  0.1893 -0.2591 -0.2568
29806W        W45615   7.966   1.412   1.694  0.0809 -0.0515 -0.0175
29807W        W45616  11.486  11.353   2.732  0.0267 -0.1211  0.0906
29808W        W45617  13.625   8.907  11.081  0.0606 -0.0065  0.1458
29809W        W45618  18.176  12.767  14.670 -0.3098  0.0883  0.0360
29810W        W45619  16.137   6.987  12.197 -0.1567  0.1367  0.1853
29811W        W45620   8.967   7.159  12.761 -0.1896  0.0446  0.0431
29812W        W45621   8.042   3.777   3.938  0.5845  0.3053  0.2969
29813W        W45622   6.739  16.364   0.402  0.0265  0.0469 -0.1489
29814W        W45623  17.629   2.461  13.043  0.1897  0.1192 -0.1925
29815W        W45624   8.748  14.285  13.072  0.0407  0.0132  0.1802
29816W        W45625   1.630  11.526   1.669  0.2002 -0.1369 -0.0449
29817W        W45626   9.521  11.433   2.161 -0.0561 -0.1409 -0.4432
29818W        W45627  19.098  14.095  11.950  0.3431 -0.0917  0.2142
29819W        W45628  14.773  15.352  11.130 -0.0128 -0.0273 -0.0560
29820W        W45629   7.787   6.067   0.528 -0.0532  0.1702  0.0305
29821W        W45630  11.067   3.231   3.992 -0.2285  0.5404  0.2821
29822W        W45631  15.073   8.579   1.539 -0.2434 -0.3239  0.0970
29823W        W45632   4.527   3.304   2.505  0.0193  0.1142 -0.0815
29824W        W45633  18.385  13.832   4.243 -0.1275  0.3105  0.1631
29825W        W45634   7.138   6.947   2.409 -0.0356 -0.1503  0.0640
29826W        W45635   4.749   7.660  12.111  0.2129 -0.2052 -0.0836
29827W        W45636   4.905  15.149   3.350  0.1966 -0.0648  0.1548
29828W        W45637  13.143  16.393   0.474  0.1579  0.2143 -0.0153
29829W        W45638   9.090   8.160  10.592 -0.0001  0.1299 -0.3970
29830W        W45639   0.282  14.416  11.323 -0.0916 -0.4253  0.1254
29831W        W45640   7.652   2.154  14.105  0.1625  0.0549 -0.0225
29832W        W45641  12.248  12.763  12.268  0.0318  0.2179 -0.1255
29833W        W45642  10.067   4.392   1.379  0.1486 -0.4866 -0.1977
29834W        W45643   8.162   8.682  13.038 -0.2504  0.0780 -0.0101
29835W        W45644   0.436  12.298   3.544 -0.0236  0.2383 -0.0343
29836W        W45645  10.733  12.148  14.845  0.0838 -0.1095  0.3081
29837W        W45646  12.172  16.540   0.332 -0.1120  0.1634  0.1509
29838W        W45647   2.853   6.102   2.534  0.2157 -0.2664  0.2233
29839W        W45648   5.482   4.681   3.526  0.1269 -0.1144  0.2414
29840W        W45649  15.629   2.480   2.075 -0.2376 -0.0483  0.0462
29841W        W45650   0.499  16.799   4.328  0.0882 -0.0444  0.1479
29842W        W45651   3.158  15.019   3.732  0.0929  0.0601 -0.1149
29843W        W45652   9.241   8.561   5.440  0.0466 -0.2061  0.0704
29844W        W45653  18.820  15.825  13.102  0.1357 -0.1068  0.0657
29845W        W45654   5.076   7.802   1.098  0.0384  0.0348 -0.1135
29846W        W45655  13.023   0.392   2.386  0.0819 -0.0017 -0.2343
29847W        W45656   9.770   2.608   1.091 -0.1129 -0.0212 -0.0471
29848W        W45657  16.319   6.358   2.348  0.0372 -0.1432 -0.1207
29849W        W45658  10.194  18.295   3.748 -0.0851  0.0498  0.2110
29850W        W45659  15.608   5.373   3.763  0.2916 -0.1102 -0.1272
29851W        W45660  18.934  14.405  15.096 -0.2031  0.2856 -0.0956
29852W        W45661   8.670  11.237   1.171  0.1205  0.0666 -0.1133
29853W        W45662   7.709   4.023  12.721  0.0754 -0.1385 -0.1612
29854W        W45663   4.781  18.614   4.924 -0.0076  0.1975  0.0133
29855W        W45664  15.568  14.083  14.713 -0.1821 -0.1554 -0.1265
29856W        W45665  12.102   6.747  14.027 -0.0795  0.0279  0.0265
29857W        W45666   3.571   0.814   5.521  0.3402 -0.2176  0.0912
29858W        W45667  16.329  11.584   2.452  0.1075 -0.0474  0.1132
29859W        W45668  11.100   7.291  13.439 -0.0504  0.0810  0.0886
29860W        W45669   8.219  16.916   0.321  0.0460 -0.5179  0.4210
29861W        W45670   1.173  13.240   2.271  0.2681  0.0885 -0.0820
29862W        W45671  11.156   7.863  14.767  0.2150  0.0491  0.0838
29863W        W45672  13.951   4.267   5.150  0.2059 -0.0283  0.1292
29864W        W45673  18.524  15.780  14.598  0.0900 -0.1313 -0.0939
29865W        W45674  12.668   4.932   4.590 -0.0990  0.1562 -0.0907
29866W        W45675   5.530  13.347  10.710 -0.1023 -0.0922 -0.2048
29867W        W45676   8.172   8.654   3.916 -0.2633  0.1229  0.0346
29868W        W45677   8.616  15.069  13.759  0.0543 -0.2490 -0.0473
29869W        W45678  12.615  11.931   5.117  0.1607 -0.1797  0.2499
29870W        W45679   3.880   4.315   0.676  0.2050 -0.0060  0.2891
29871W        W45680   8.617  12.837   0.353  0.1085 -0.1783 -0.0223
29872W        W45681  10.194   8.955   1.455 -0.0572  0.1679 -0.0848
29873W        W45682  18.423  18.047  11.947  0.0423 -0.2844  0.0121
29874W        W45683   6.268  17.583  14.483 -0.2604 -0.1857  0.1686
29875W        W45684   5.027   1.428   0.559  0.2985 -0.4211  0.0654
29876W        W45685  15.242   3.611   0.859  0.4677 -0.0286  0.2740
29877W        W45686  17.169   4.959   4.256  0.0293 -0.0141 -0.0034
29878W        W45687   2.853  11.937   1.683 -0.0391  0.0344 -0.0258
29879W        W45688  13.384   2.600   2.958 -0.0019 -0.1105 -0.1009
29880W        W45689   7.391  16.519  12.592  0.0769 -0.0898  0.3059
29881W        W45690  14.151  14.382  13.450 -0.4341 -0.0849  0.2130
29882W        W45691  12.508  11.695   3.301 -0.1271 -0.0712  0.0753
29883W        W45692   0.910  14.157  13.558  0.1242  0.1044 -0.0847
29884W        W45693   1.616  17.500   4.399 -0.1603  0.0783 -0.1725
29885W        W45694   0.678  13.411   2.437 -0.1761  0.2748  0.1356
29886W        W45695   8.866   4.688   0.369 -0.3277 -0.3906 -0.1424
29887W        W45696   3.729  16.160   1.430  0.0875 -0.1246  0.0620
29888W        W45697   4.673  16.859   1.891  0.6150  0.2832 -0.2020
29889W        W45698  18.877   1.114  10.129  0.1336 -0.3267 -0.0442
29890W        W45699   6.553  12.034   3.617 -0.0758 -0.4187  0.4489
29891W        W45700   4.756  15.769  12.195  0.0840 -0.0732 -0.3104
29892W        W45701   6.970   2.837  12.148  0.1647 -0.1159  0.1125
29893W        W45702   9.366   6.549  15.081  0.3847 -0.0609  0.2104
29894W        W45703  16.100  17.001   4.649 -0.0597  0.0631  0.0143
29895W        W45704  17.656  12.990  13.379  0.1707 -0.0089  0.2397
29896W        W45705  10.538  10.372  14.488 -0.1090 -0.0193  0.0809
29897W        W45706   3.211   1.044   0.663  0.0433  0.0600  0.0372
29898W        W45707  18.887   7.644   4.186 -0.0410  0.2141 -0.1112
29899W        W45708   1.731   3.566   3.453  0.0972  0.3466 -0.0082
29900W        W45709  16.122   4.344  13.511  0.0326  0.0661  0.1747
29901W        W45710   5.474  13.038   2.304 -0.2228 -0.0677 -0.1873
29902W        W45711  12.709   1.637  10.815 -0.1356 -0.1589  0.3741
29903W        W45712   1.227  15.596   2.538 -0.2205 -0.0258  0.0917
29904W        W45713  15.944  15.875  15.014 -0.1974 -0.0732  0.0904
29905W        W45714   9.708   2.941   2.047  0.0356  0.3094 -0.1109
29906W        W45715  10.870  18.068   5.066 -0.2739 -0.1023  0.1184
29907W        W45716  14.064   0.247   2.450 -0.2230  0.0638  0.2036
29908W        W45717   4.075   6.251   1.880 -0.3200  0.0303 -0.1137
29909W        W45718  16.544  15.223  14.619  0.0144  0.1112  0.0346
29910W        W45719  15.538  13.159   3.525 -0.2272 -0.0440 -0.1133
29911W        W45720  10.177   1.789   1.494 -0.0948  0.3161  0.0101
29912W        W45721  18.433   1.797  14.278 -0.1622 -0.3763 -0.2476
29913W        W45722   1.857   6.417   5.578 -0.2766  0.1052 -0.2205
29914W        W45723  16.540   1.653  11.580  0.3054 -0.0591 -0.2146
29915W        W45724  15.399  18.514  11.680  0.0406  0.2980 -0.1303
29916W        W45725  17.133  12.780  11.756  0.1518 -0.2110  0.1879
29917W        W45726  14.009   3.593  14.718 -0.0804 -0.2024  0.0139
29918W        W45727  15.482  16.036  14.144 -0.2747  0.0134 -0.0587
29919W        W45728   7.164  13.111   1.740 -0.3494 -0.1634 -0.0986
29920W        W45729  16.738   8.554  12.941 -0.0870 -0.1995  0.1462
29921W        W45730   5.526   4.471  12.603  0.3216 -0.0644 -0.2781
29922W        W45731   3.895  10.114   1.908 -0.2444  0.1075 -0.2406
29923W        W45732   7.776   9.658  13.343 -0.2523  0.1890  0.0362
29924W        W45733  11.080   1.695  13.256  0.1963  0.2378  0.2216
29925W        W45734   4.150   5.760  11.703 -0.2824 -0.0898  0.0514
29926W        W45735   1.812   4.800   9.777 -0.1921 -0.1035 -0.0995
29927W        W45736   9.285  14.159   0.111  0.2374  0.1731  0.1073
29928W        W45737   8.151   7.606   5.097 -0.2701 -0.2510 -0.1654
29929W        W45738  13.492  18.215   0.520 -0.4804 -0.2132 -0.0803
29930W        W45739  11.136   1.352  12.793 -0.0549 -0.1336 -0.1178
29931W        W45740   4.348   4.412   3.144 -0.2135  0.0962  0.0813
29932W        W45741  15.004   8.818  13.848 -0.1705  0.0306  0.1171
29933W        W45742   5.153  14.792  14.142 -0.0028 -0.0761  0.1728
29934W        W45743   4.698  16.518   4.484 -0.0835 -0.3511 -0.1924
29935W        W45744   7.903   9.088  10.872  0.0739  0.4013  0.0492
29936W        W45745  14.324  10.701  14.444  0.1952 -0.2226  0.0998
29937W        W45746  14.377   5.467  12.487  0.2124 -0.0146 -0.0051
29938W        W45747  14.742  12.441   2.041  0.0682 -0.1728  0.1354
29939W        W45748   0.187  14.751   5.497  0.3953 -0.0477  0.2151
29940W        W45749   7.996  10.824   0.674  0.1657  0.0871  0.4087
29941W        W45750  17.534  19.043  13.983  0.1628  0.0156  0.0015
29942W        W45751  10.664   5.435  11.919  0.2573  0.1505 -0.1167
29943W        W45752   3.589   2.277   3.915  0.0557  0.1352 -0.0469
29944W        W45753  14.871   1.099   5.050  0.0347  0.0380  0.4855
29945W        W45754   4.406   7.720   4.982  0.3681  0.0174  0.2594
29946W        W45755   0.109   0.149   0.757  0.1489  0.0308  0.0878
29947W        W45756  11.099   3.877   3.096  0.1002 -0.2500  0.0039
29948W        W45757   4.732   4.901   2.381  0.3024  0.1963 -0.4241
29949W        W45758   5.796  13.445   0.665 -0.0444  0.0393 -0.3932
29950W        W45759   8.075  16.021   0.078  0.1358 -0.1483 -0.0141
29951W        W45760   4.922   7.696  13.149  0.2400  0.0357 -0.2901
29952W        W45761  11.201  12.910   0.738 -0.2361 -0.0535  0.0600
29953W        W45762   1.930  17.520  13.122 -0.1858 -0.1515  0.0817
29954W        W45763  11.611  10.601  12.797 -0.1282 -0.1539 -0.0028
29955W        W45764  18.980  18.521  11.042  0.2025  0.1123 -0.1694
29956W        W45765   0.649  16.259   5.095  0.0000  0.3222 -0.1678
29957W        W45766  18.831   3.995  12.171 -0.1576 -0.1795 -0.1639
29958W        W45767   7.368  15.990   0.612 -0.0155 -0.0064  0.1148
29959W        W45768   8.711   7.607   0.985 -0.2490  0.1437 -0.0399
29960W        W45769  10.617  10.265   4.328  0.0877  0.0451  0.1212
29961W        W45770   9.897   2.800  11.009 -0.0172  0.3844  0.2867
29962W        W45771   1.828   5.380  15.190 -0.3359  0.0571  0.3067
29963W        W45772   3.287  10.951  11.120  0.3655  0.1488  0.0478
29964W        W45773  14.005  16.807   1.167 -0.0138  0.0715 -0.1843
29965W        W45774  11.319  17.359   1.841  0.2770  0.1624  0.2494
29966W        W45775   9.287  15.367   0.387 -0.1578 -0.2579  0.0651
29967W        W45776  17.253  15.934   6.026 -0.1635  0.0243  0.0140
29968W        W45777  18.303  16.039  12.785  0.0993  0.3727 -0.1852
29969W        W45778   7.877   3.959  15.018 -0.0850 -0.1887  0.1552
29970W        W45779   4.352  15.264  10.984  0.2937  0.1360  0.0788
29971W        W45780   1.368   7.738   1.811 -0.2251 -0.3027 -0.1338
29972W        W45781   9.883   1.132   3.137 -0.3462  0.0900  0.1669
29973W        W45782  12.143  13.625  12.101  0.2353  0.1139  0.0698
29974W        W45783   3.307   0.782  14.096  0.0855  0.2366  0.1256
29975W        W45784   2.091   1.657   1.590 -0.1210 -0.2051 -0.1541
29976W        W45785  11.573   6.515  10.475 -0.0976 -0.2803  0.1690
29977W        W45786   7.084   6.041   3.549  0.1258  0.0307  0.3869
29978W        W45787   9.620   1.442  12.455  0.0138 -0.0807  0.1298
29979W        W45788   2.102  12.140   6.028 -0.0160  0.1124 -0.2316
29980W        W45789   3.150  12.379  11.684  0.1205  0.3758 -0.0235
29981W        W45790  18.229   4.174   2.413  0.3799  0.1249 -0.1567
29982W        W45791   5.688   4.060   2.141 -0.1324 -0.0311 -0.1104
29983W        W45792  15.882   1.117  13.973 -0.0200  0.1748 -0.2020
29984W        W45793  16.957  16.623   1.638 -0.0118  0.0295 -0.3093
29985W        W45794   1.808   4.220   2.190  0.1769  0.1749  0.0271
29986W        W45795   8.260  10.282   2.867 -0.0703 -0.0966  0.1755
29987W        W45796  16.241   4.936   4.418  0.0848 -0.4527  0.0704
29988W        W45797  11.016   4.543   3.307  0.0609 -0.0967  0.0194
29989W        W45798   6.048  13.143  11.869  0.3834 -0.0188  0.0493
29990W        W45799   3.527  10.417  14.343  0.2130  0.1057  0.0303
29991W        W45800  18.217  12.246  12.940  0.1500  0.2166 -0.0200
29992W        W45801   2.500   7.239  12.417  0.0606  0.1396  0.0661
29993W        W45802   5.898   4.363   4.867  0.0411  0.3002 -0.0482
29994W        W45803   3.335   6.254  11.023 -0.0544  0.2448  0.1221
29995W        W45804   7.176   6.671   1.826  0.0710  0.2283 -0.1561
29996W        W45805  19.037   6.481   2.689 -0.1429  0.0225 -0.0967
29997W        W45806   7.172   1.653  14.655 -0.1337  0.0384  0.2066
29998W        W45807  15.403   9.538  14.457 -0.0806 -0.0433 -0.0748
29999W        W45808  15.339  12.029  13.529  0.1562  0.1537 -0.2416
30000W        W45809  14.359   6.215  13.629 -0.0977  0.0806 -0.2806
30001W        W45810  15.378   5.468   1.464  0.2155 -0.0899  0.3238
30002W        W45811   0.265   9.401   2.072  0.3519  0.1532 -0.1627
30003W        W45812  10.658   6.983   2.795 -0.0717  0.2743 -0.0241
30004W        W45813  17.459   2.993  10.784  0.2022 -0.1371 -0.1532
30005W        W45814   1.611  18.339   2.485 -0.0825  0.1100 -0.1123
30006W        W45815   0.835   0.697   4.181  0.0584  0.1428 -0.0778
30007W        W45816   9.107   4.320  12.839  0.3964 -0.0188  0.1960
30008W        W45817  15.258  18.506   5.304  0.2227  0.1508  0.0845
30009W        W45818   1.100   8.568  12.030 -0.0817  0.2841  0.0697
30010W        W45819  15.154  16.611   0.147  0.3484 -0.3433 -0.0620
30011W        W45820   6.491   2.988  11.720  0.0317  0.0547 -0.1704
30012W        W45821   3.933   0.888  12.882  0.2106 -0.1962  0.1076
30013W        W45822   5.890   0.470  12.097  0.0391 -0.4982  0.1689
30014W        W45823   1.785   4.804  10.303 -0.0010  0.0361  0.3343
30015W        W45824  12.746   8.228  12.187 -0.2022 -0.0067  0.2333
30016W        W45825  15.045   9.519  11.154  0.3125  0.0534  0.0679
30017W        W45826   7.448   1.294   9.701  0.1170  0.2004 -0.0074
30018W        W45827   5.159   3.545   0.984 -0.3039  0.0376  0.0813
30019W        W45828   9.733   7.688   2.687 -0.1056  0.0042 -0.0003
30020W        W45829   2.683   8.546   2.953 -0.0759 -0.0710 -0.1860
30021W        W45830  16.894   3.106   3.732 -0.0052  0.1060  0.2561
30022W        W45831   9.228   5.200   4.546  0.3156  0.0002 -0.2345
30023W        W45832   1.450  10.716  14.396 -0.1004 -0.1409 -0.1473
30024W        W45833   8.871   8.692  15.186 -0.1327  0.1009  0.1341
30025W        W45834  13.710  10.356  14.555  0.1390  0.1632 -0.1484
30026W        W45835   3.997  14.658  11.019 -0.1363  0.0572 -0.0986
30027W        W45836  10.577   3.288   2.371 -0.0174  0.2258 -0.0164
30028W        W45837  10.136  12.401   4.143  0.0678  0.2078 -0.0752
30029W        W45838  14.683   8.659  12.621 -0.0211 -0.2311 -0.1869
30030W        W45839   2.657   0.295   4.243  0.0399  0.0720  0.2492
30031W        W45840   9.984   3.048  13.858  0.0556  0.0365 -0.0791
30032W        W45841   0.671  15.475   3.550 -0.0865 -0.0226 -0.0649
30033W        W45842   7.554   0.478  13.909  0.1501 -0.2639  0.0928
30034W        W45843   9.767   4.463   1.773  0.0305  0.2404 -0.0401
30035W        W45844   0.352  15.291   0.798  0.0536  0.0998  0.1430
30036W        W45845   4.260   7.195  11.029 -0.0651  0.3174  0.2205
30037W        W45846   8.194   8.556   2.955 -0.3403  0.0202 -0.3340
30038W        W45847  15.543   4.588  12.850  0.1190  0.0432 -0.1682
30039W        W45848   7.434   6.256  12.324 -0.0207  0.2699 -0.0613
30040W        W45849  12.548  11.986  11.565  0.0640  0.0622 -0.2604
30041W        W45850   6.914  10.181   4.196  0.0885 -0.0514 -0.2300
30042W        W45851  16.484  15.942  14.146 -0.0691 -0.0007 -0.0448
30043W        W45852   8.237   5.473  14.368 -0.1737 -0.1643 -0.2624
30044W        W45853  18.304   2.843   0.144  0.3224 -0.1800  0.0936
30045W        W45854  14.246   8.002  10.334  0.0907  0.3963 -0.0353
30046W        W45855   3.990   4.897  11.727  0.0955 -0.2735 -0.0572
30047W        W45856  17.211   9.906   3.855 -0.2747 -0.0099  0.3978
30048W        W45857   5.502   9.981   3.108  0.0384  0.0327 -0.1273
30049W        W45858   0.496  16.647   1.753  0.0111 -0.0517 -0.0017
30050W        W45859   0.547  19.073  15.110 -0.0615 -0.3321 -0.1691
30051W        W45860   1.633   7.489   4.853 -0.0510 -0.0239 -0.1234
30052W        W45861   5.464  15.739   1.129 -0.1401  0.0614  0.1122
30053W        W45862  16.762  11.252   0.323 -0.2302  0.1274 -0.0121
30054W        W45863   0.302  10.641  15.103 -0.2357 -0.2402 -0.1326
30055W        W45864  10.187  10.060  11.876  0.0539  0.3600  0.5036
30056W        W45865   4.411   6.746  10.414 -0.1325 -0.1511 -0.0439
30057W        W45866  12.042   9.518   0.751  0.0352  0.1174  0.0990
30058W        W45867   9.146   0.597   3.222  0.1527  0.0041  0.2333
30059W        W45868   6.218  16.339  10.298 -0.0732  0.1066  0.2504
30060W        W45869   8.094   6.878   2.130  0.0544  0.4580  0.1354
30061W        W45870  10.508  15.401   2.900  0.0140 -0.0727 -0.3702
30062W        W45871  18.159   6.111  14.380 -0.0885  0.2506  0.1526
30063W        W45872   9.779  15.391  12.325 -0.0197 -0.1324 -0.2068
30064W        W45873  12.174   5.827   2.074  0.1512 -0.1069  0.0549
30065W        W45874  11.461   7.398  14.438 -0.0123  0.1457 -0.3789
30066W        W45875   4.145  16.003   5.263  0.2729 -0.0727 -0.1660
30067W        W45876  17.671  10.280   5.061 -0.2143  0.1602  0.1249
30068W        W45877   7.381  10.132   0.986  0.1243 -0.2934  0.0848
30069W        W45878  16.817  17.874   6.024 -0.2627 -0.0263  0.0270
30070W        W45879   5.791  16.357  11.409 -0.3508  0.3098  0.3988
30071W        W45880   5.204   9.120   1.570  0.1175  0.0658 -0.3270
30072W        W45881   2.967  18.591  14.512  0.2599 -0.2621 -0.2342
30073W        W45882  15.128  18.186   2.092  0.2406 -0.0539  0.0365
30074W        W45883  17.333   9.634  11.251  0.3436 -0.1721  0.0989
30075W        W45884  18.733  15.273  15.110  0.4135  0.0243  0.1188
30076W        W45885   0.807   7.661  11.763  0.2019  0.2108  0.0311
30077W        W45886  11.193   3.923  10.868  0.3047 -0.1736  0.1442
30078W        W45887  13.097   8.339  10.578  0.2540 -0.0222  0.1747
30079W        W45888   3.555   0.072  14.158  0.3140 -0.0966 -0.0265
30080W        W45889  18.418  14.938   5.164 -0.1140  0.1689  0.1933
30081W        W45890  17.231   4.422  14.191  0.0980  0.3722 -0.0760
30082W        W45891   9.685   6.262   0.114  0.4853  0.1324  0.3997
30083W        W45892   4.104   9.839  14.755  0.3980 -0.1876  0.1078
30084W        W45893   3.653  12.451   3.402 -0.1919 -0.2929  0.1420
30085W        W45894  10.310   7.048   4.256  0.0415  0.0072 -0.1929
30086W        W45895  15.653   7.818   3.859 -0.1035 -0.1517  0.1804
30087W        W45896   7.154   5.415  13.866  0.0305 -0.3086 -0.0689
30088W        W45897  12.464  14.312   4.999 -0.0127  0.0283 -0.1276
30089W        W45898   4.600   8.471  11.852 -0.1589 -0.0459  0.1430
30090W        W45899   9.980  11.269   2.506  0.0545 -0.0042 -0.1514
30091W        W45900  15.291  14.914  12.818 -0.1554  0.3503  0.0868
30092W        W45901   5.712   2.435  11.547 -0.2696  0.0119  0.0458
30093W        W45902   0.394  12.747  12.743  0.4281  0.0273 -0.1963
30094W        W45903  10.710  17.231  13.922 -0.1233  0.0142  0.0361
30095W        W45904  17.278  18.397   5.660  0.0758  0.0212  0.1527
30096W        W45905   7.945   8.185   1.613  0.0771 -0.0943 -0.0024
30097W        W45906   8.547  14.980  13.243 -0.0113 -0.0897 -0.1331
30098W        W45907   7.975   4.175   1.334  0.0773  0.0421  0.0643
30099W        W45908  10.332   9.364   3.042 -0.0521  0.1494  0.0361
30100W        W45909   7.124   2.132   4.102  0.0928  0.0002 -0.3730
30101W        W45910  17.086   3.606  13.466  0.3588  0.2010  0.0855
30102W        W45911   0.663   2.119  15.032  0.3377  0.0140  0.0449
30103W        W45912   5.004   5.151  15.179  0.0389 -0.1204  0.1963
30104W        W45913  16.889  13.401   3.525 -0.0618  0.1534 -0.1140
30105W        W45914   1.776  16.986   1.819  0.4375 -0.2045 -0.5022
30106W        W45915   3.489  18.324  11.233  0.2810  0.1875  0.2661
30107W        W45916  12.956  15.361   1.940  0.1711  0.2099  0.0587
30108W        W45917   9.911   4.554  14.372 -0.0964  0.1092  0.0997
30109W        W45918  19.131   2.611   5.097 -0.0011  0.0117 -0.1465
30110W        W45919   0.312   7.395  14.761 -0.0172  0.1090 -0.0805
30111W        W45920  17.975   9.079   9.577 -0.0590 -0.0044 -0.0954
30112W        W45921   8.812   1.854   3.636  0.0388  0.1748 -0.3238
30113W        W45922  14.502   2.384   4.711  0.1293 -0.2632 -0.0259
30114W        W45923   2.112   5.022   4.725  0.0108 -0.1959  0.1417
30115W        W45924   8.001  15.962   5.063  0.2137 -0.3135 -0.2238
30116W        W45925   9.266   2.334  10.779  0.3127  0.2853  0.0296
30117W        W45926   8.227  11.110   2.962  0.0413  0.2889  0.3297
30118W        W45927   2.495  19.119  10.051  0.0094 -0.0418 -0.2673
30119W        W45928  17.248   5.548  10.930 -0.0371 -0.3504 -0.3807
30120W        W45929  11.777   5.145  10.625 -0.0683 -0.1418 -0.1646
30121W        W45930  13.452  14.221   5.067  0.1725 -0.0605 -0.0090
30122W        W45931   2.486   3.939   9.780  0.3278  0.1222 -0.1508
30123W        W45932  15.975   2.366  10.959 -0.0313 -0.0944  0.0563
30124W        W45933   0.345  11.737   1.003 -0.2018  0.1067  0.1951
30125W        W45934  17.506  16.285   0.013 -0.2700  0.0773 -0.3725
30126W        W45935  14.518   9.433  13.688 -0.1525 -0.0980 -0.1639
30127W        W45936   4.541  13.681   0.600 -0.1186  0.0316  0.1506
30128W        W45937  15.271   5.417   0.934 -0.1044  0.2747 -0.0746
30129W        W45938   9.567   6.533   0.531  0.1642 -0.2767 -0.1925
30130W        W45939  13.287   4.692   2.542 -0.2958  0.3906 -0.0440
30131W        W45940   8.985   6.257   4.725  0.2470 -0.0809  0.2065
30132W        W45941  18.849   8.453   0.817  0.1098 -0.0048 -0.3537
30133W        W45942   8.541  14.976  11.882  0.1012  0.0196  0.0725
30134W        W45943  12.196   2.246   3.971  0.0591 -0.5001  0.2079
30135W        W45944  11.628   3.119   3.887 -0.0257 -0.3291  0.1108
30136W        W45945  18.895  11.454   3.203  0.0672 -0.0735  0.0594
30137W        W45946   0.303  16.469   3.499  0.1405  0.0134  0.2086
30138W        W45947   1.152  11.815   4.279 -0.0414 -0.0690 -0.2643
30139W        W45948  17.473  12.067  14.624 -0.1340 -0.1126  0.0066
30140W        W45949  10.284   2.868   4.076 -0.1042 -0.1790 -0.2298
30141W        W45950  15.759   2.734  10.559  0.2223 -0.1517  0.1305
30142W        W45951  17.705   1.961   1.461 -0.0302  0.1760  0.3586
30143W        W45952   2.550   0.073   3.240 -0.1405  0.3201  0.2880
30144W        W45953  16.276  10.308  13.460 -0.3499 -0.0966 -0.1885
30145W        W45954  17.873  13.600   9.523 -0.2232 -0.1456 -0.1985
30146W        W45955   2.516   4.179  12.182 -0.0366 -0.3494  0.5553
30147W        W45956   3.230   1.301  14.173  0.2293  0.0367 -0.1732
30148W        W45957   6.597   2.085  11.334 -0.1825 -0.1015  0.0546
30149W        W45958   9.263   0.288  11.949  0.0961  0.0141  0.2435
30150W        W45959   0.072   5.402   4.454  0.0752 -0.0492 -0.1798
30151W        W45960  11.034   0.119  10.211  0.2049  0.0409  0.1609
30152W        W45961  12.421   1.603   1.519 -0.0972  0.0602  0.1566
30153W        W45962   8.269  11.200  14.908  0.2043  0.1462  0.0154
30154W        W45963  17.108   5.174   0.609 -0.0349  0.1747  0.0320
30155W        W45964   5.309  14.074   4.462  0.4166 -0.1616 -0.2687
30156W        W45965  14.712  17.514  12.185  0.2108 -0.0149 -0.0445
30157W        W45966  13.264  12.193   0.685  0.2246  0.2091 -0.2285
30158W        W45967  14.145  13.622   1.525  0.2686 -0.1206 -0.1708
30159W        W45968   3.244  16.568  14.935 -0.0726 -0.1354 -0.0462
30160W        W45969  13.660   4.648   3.626 -0.0353  0.0638 -0.0280
30161W        W45970   7.678   3.976  14.564  0.2837  0.0131 -0.2611
30162W        W45971  13.848  14.106  14.184  0.0719  0.1458  0.1474
30163W        W45972  15.714  15.689   5.579 -0.0371  0.1632  0.3710
30164W        W45973   5.321   2.128   0.914 -0.1016  0.0642  0.1449
30165W        W45974  18.310  11.111  11.173  0.0581  0.3141  0.0163
30166W        W45975   1.387  15.076   1.454  0.0808  0.2414 -0.3043
30167W        W45976  11.593   8.307   3.293 -0.0378  0.0155 -0.1402
30168W        W45977  14.314   9.566  12.951  0.1208 -0.1633  0.3731
30169W        W45978  13.646   5.467   4.693 -0.0355  0.0171  0.0532
30170W        W45979   6.699   5.496  13.815 -0.0806 -0.5596  0.0281
30171W        W45980   9.649   4.041   3.817 -0.1038 -0.2525 -0.0305
30172W        W45981   1.173  18.267   2.240 -0.2791 -0.1884 -0.0630
30173W        W45982  15.564   5.461   2.804  0.0474 -0.0590 -0.1802
30174W        W45983  12.593  16.757   4.379 -0.2893 -0.1120  0.1207
30175W        W45984  14.348  13.594  12.251 -0.3489  0.1892 -0.1075
30176W        W45985  17.695   3.459   2.152  0.2448  0.1982  0.0558
30177W        W45986  17.763  17.038  13.108 -0.0619  0.1076  0.0781
30178W        W45987  17.021  16.944  14.930 -0.0151 -0.3168 -0.1219
30179W        W45988  18.340   1.415   2.536 -0.1357  0.2117 -0.0830
30180W        W45989   1.270  14.471   0.073 -0.0861 -0.1346  0.0769
30181W        W45990  17.954  13.195  11.734 -0.0076 -0.1077 -0.5115
30182W        W45991   8.437  10.862   2.055  0.2559  0.3783 -0.2145
30183W        W45992  17.930  13.065   4.637 -0.0458 -0.0609 -0.0627
30184W        W45993   5.999  14.589   2.139  0.1038 -0.2643  0.0826
30185W        W45994   9.217  10.462   2.137 -0.2379  0.0817  0.1367
30186W        W45995  18.133   3.712   0.826 -0.0222 -0.0706 -0.0448
30187W        W45996  16.626   6.283   3.111  0.2760  0.1229 -0.1862
30188W        W45997   6.378   1.639   0.297  0.2404 -0.1017  0.1951
30189W        W45998   8.378  13.351   2.441 -0.0100 -0.1276  0.0902
30190W        W45999  12.874  12.719  13.908 -0.0944  0.1483 -0.3000
30191W        W46000   4.977  16.779  10.328 -0.1952  0.1133 -0.1149
30192W        W46001   9.125   8.701   5.910  0.1987  0.0876 -0.1307
30193W        W46002  15.280   9.614   3.456 -0.2604 -0.2133  0.1352
30194W        W46003   2.871   1.781   1.075  0.3629 -0.1744  0.4319
30195W        W46004   9.460  11.352  13.151 -0.3188 -0.0109 -0.1287
30196W        W46005   7.380   9.346   1.724 -0.0448 -0.0159 -0.1353
30197W        W46006  13.708   0.201   2.876 -0.0404 -0.1131 -0.0287
30198W        W46007  15.913  13.126  13.096 -0.3599 -0.1197 -0.0674
30199W        W46008  17.370  16.151  14.370 -0.0684 -0.8094 -0.0722
30200W        W46009   1.546   3.563  14.108 -0.0107  0.1717 -0.0795
30201W        W46010   5.180  13.758  10.728 -0.1132  0.0095  0.1699
30202W        W46011   7.627  10.382   3.930  0.2641  0.0161 -0.2849
30203W        W46012  15.127  17.984   3.544 -0.3205  0.1035  0.1095
30204W        W46013   5.917  18.763   5.063 -0.1216 -0.0621 -0.0026
30205W        W46014   2.801   0.491   3.346 -0.3324 -0.2245 -0.1415
30206W        W46015   9.918   9.229   3.318  0.2168 -0.1676 -0.3559
30207W        W46016   6.954  14.785   1.101  0.0167 -0.2165  0.0356
30208W        W46017  11.057  18.033  11.047 -0.0636 -0.0463  0.0571
30209W        W46018  12.112   1.885  14.973  0.0178  0.1837 -0.0498
30210W        W46019   5.576   3.814  12.020 -0.0590 -0.0076  0.6763
30211W        W46020   1.689   9.450   3.144  0.2302  0.0933  0.0766
30212W        W46021   8.771   8.056   1.318  0.0400  0.2578  0.3252
30213W        W46022   6.039  15.137  10.343  0.2689  0.1348 -0.2907
30214W        W46023  12.659   5.951   2.889 -0.0555  0.1146  0.1201
30215W        W46024  17.467   9.418  10.363 -0.0481  0.1917  0.0500
30216W        W46025   3.949   8.052  11.011  0.1194  0.2121 -0.1206
30217W        W46026   3.777   3.161   3.137  0.3367 -0.0470  0.2127
30218W        W46027  10.089  10.985   3.965 -0.1213 -0.1935 -0.2047
30219W        W46028  16.088  17.576   3.963  0.4548 -0.0465 -0.0458
30220W        W46029  11.571   4.354  13.719  0.3421  0.1343  0.2486
30221W        W46030  13.580   8.048  15.165 -0.2974  0.1252  0.1688
30222W        W46031  13.738  16.081  12.044 -0.2191  0.0845  0.2573
30223W        W46032   8.608   8.257  15.189  0.1020 -0.0411  0.0970
30224W        W46033   8.982  17.485  10.917  0.1101 -0.0635 -0.0684
30225W        W46034  16.240   1.152   2.129 -0.0266  0.0104 -0.1449
30226W        W46035  13.274   9.455   2.713  0.1610  0.1393  0.0409
30227W        W46036  10.562   2.634  12.809  0.1978 -0.1366 -0.0302
30228W        W46037   4.149   3.242   2.144  0.0888  0.0433  0.0039
30229W        W46038  14.434  10.052   5.772 -0.2786  0.0418 -0.2132
30230W        W46039  15.156   2.457  14.672 -0.2295  0.5163  0.3277
30231W        W46040  18.953   8.310  10.707  0.0966 -0.1723 -0.0768
30232W        W46041   9.937   1.054  13.310  0.1149 -0.1495 -0.1509
30233W        W46042   5.207  11.917  12.438 -0.0068 -0.3162 -0.0236
30234W        W46043   2.024  18.850  12.685  0.0785  0.1847  0.1297
30235W        W46044   8.030  11.023  12.938  0.1102  0.0521  0.1439
30236W        W46045   4.421   6.527  12.539 -0.0083  0.0797  0.0512
30237W        W46046   3.153  12.124  12.721  0.4129  0.2134 -0.0156
30238W        W46047   0.353  13.714   2.616  0.1179  0.2062  0.0868
30239W        W46048   8.083   2.379  13.861  0.0877  0.2067 -0.0177
30240W        W46049  18.030   6.467   1.175 -0.2210 -0.0777 -0.3377
30241W        W46050   9.126  18.068   4.591 -0.2159 -0.3142 -0.0998
30242W        W46051   9.131  18.672   2.379 -0.0214 -0.2373 -0.2523
30243W        W46052   5.308  18.345  12.333  0.0465 -0.0304 -0.1024
30244W        W46053  15.099   0.533   1.878  0.1142  0.2250  0.2613
30245W        W46054  12.751   8.706   3.838  0.1097  0.0371  0.0858
30246W        W46055   9.751  11.895  10.795  0.0107 -0.2167  0.0572
30247W        W46056  13.146   4.508   3.099  0.0675  0.0285  0.1719
30248W        W46057  10.829   6.779   0.804 -0.0749 -0.0765 -0.2853
30249W        W46058   0.869  12.353   2.129  0.1348  0.1525 -0.0495
30250W        W46059  18.520   2.561  13.663 -0.1521  0.0862  0.2357
30251W        W46060  16.247   3.355  12.208 -0.3027 -0.2504 -0.0806
30252W        W46061  13.960   6.156   3.241  0.3832  0.2392 -0.2277
30253W        W46062  12.705  11.404  13.082  0.0797 -0.0712 -0.1471
30254W        W46063   2.535   1.210  10.715  0.1880 -0.2754  0.2812
30255W        W46064  14.072   8.662   1.215  0.2813 -0.1122  0.2120
30256W        W46065  10.859   7.180  14.199 -0.0799 -0.0099  0.0017
30257W        W46066  15.076  15.197  11.987 -0.0724 -0.0166  0.1224
30258W        W46067  13.785   1.954   0.200 -0.0400  0.1390 -0.2242
30259W        W46068  17.439  13.566   2.263  0.6109  0.1239 -0.0931
30260W        W46069   1.840   7.305  12.561  0.0102 -0.1404 -0.0707
30261W        W46070   2.226  13.782   1.090  0.3041  0.1940 -0.0261
30262W        W46071   8.099  14.582  12.055  0.1455  0.1057  0.0651
30263W        W46072   1.649  15.948   4.225  0.1762  0.2077  0.0225
30264W        W46073  18.747   5.361  10.923  0.0847 -0.1801  0.0597
30265W        W46074   5.592  15.588  13.173 -0.2305  0.0236 -0.0057
30266W        W46075   3.305  12.332   2.425 -0.3090  0.0125 -0.0562
30267W        W46076  17.717  18.661  10.227  0.0707 -0.1124 -0.2424
30268W        W46077   6.328  13.866  11.573 -0.1981 -0.0869  0.1571
30269W        W46078  14.106  16.806  11.427 -0.2908  0.3065  0.1052
30270W        W46079   7.244  16.943   2.513 -0.0091  0.3961 -0.2716
30271W        W46080   9.854  11.011   4.536 -0.1576 -0.1264  0.2249
30272W        W46081   0.870   1.129   3.344  0.0096  0.2599  0.1485
30273W        W46082  13.212  10.457   0.098 -0.0302  0.4978 -0.3203
30274W        W46083  16.222  12.461   5.035  0.3267  0.0693  0.1480
30275W        W46084   1.911   8.655   5.283 -0.0423 -0.2487 -0.4519
30276W        W46085   4.643  10.326  13.941  0.2230 -0.0951  0.1859
30277W        W46086  12.319  16.569   3.899  0.0177 -0.0895  0.0545
30278W        W46087   9.169  16.576  14.661  0.1905 -0.2245  0.1170
30279W        W46088  16.056   9.288   1.332  0.2281  0.1257  0.2658
30280W        W46089   0.950  12.500   2.650 -0.3029  0.2626 -0.3079
30281W        W46090  12.904  11.616  14.772  0.0279 -0.1043  0.1475
30282W        W46091  10.021   2.212   4.075 -0.1179  0.1005 -0.1388
30283W        W46092  14.196   9.301   0.455 -0.1493 -0.3487 -0.1275
30284W        W46093   8.483   8.063   4.872 -0.0896 -0.3623 -0.3342
30285W        W46094  10.589  12.239   1.114  0.2080 -0.1445 -0.1866
30286W        W46095  12.570   6.491   0.176  0.0158 -0.0601 -0.1193
30287W        W46096  14.771  15.637   2.546 -0.1228 -0.1459 -0.3132
30288W        W46097  13.335  17.133  12.140 -0.2195  0.2044 -0.0923
30289W        W46098   2.259   7.137  10.731  0.0902  0.0811  0.2174
30290W        W46099   1.429  13.043  14.110  0.2088 -0.2858 -0.3429
30291W        W46100   5.606   9.750  14.871 -0.2083  0.0472  0.1733
30292W        W46101  16.232   2.608  10.194  0.0624  0.3579 -0.3541
30293W        W46102   2.976   4.233  11.444  0.0079  0.1461 -0.1566
30294W        W46103   1.549   4.209   1.458  0.0980 -0.1099 -0.3376
30295W        W46104   5.677   3.476   1.198 -0.3288 -0.0651 -0.2782
30296W        W46105  11.446   3.710   1.721  0.1083  0.0089  0.3294
30297W        W46106   1.081   5.334   1.500 -0.0749  0.2618 -0.3275
30298W        W46107   0.715   1.123  14.883  0.0411 -0.0822  0.1001
30299W        W46108   8.997   4.533  15.059 -0.0736 -0.1134  0.1191
30300W        W46109  10.904  15.084   2.619 -0.1627 -0.2268  0.1538
30301W        W46110   7.147  10.882   3.084 -0.0524 -0.5130 -0.0128
30302W        W46111   4.833   9.344   0.867  0.1646 -0.2650  0.1329
30303W        W46112  10.250  11.123  11.938  0.1930 -0.1336  0.4185
30304W        W46113   5.797  14.488  13.438 -0.1809 -0.0364  0.1211
30305W        W46114   6.928   6.957  11.942 -0.0570  0.0110  0.0558
30306W        W46115  17.182   5.061  12.196  0.5019  0.2413 -0.2724
30307W        W46116   8.997  15.407  13.829 -0.0505 -0.0054  0.1588
30308W        W46117  14.133   7.330  12.512 -0.0876 -0.1784  0.1405
30309W        W46118  10.556   2.181   1.168 -0.2764  0.0247  0.0865
30310W        W46119  11.788   4.638   1.883 -0.0593  0.1092 -0.1775
30311W        W46120  15.467   4.552   1.578  0.0027 -0.1685  0.2450
30312W        W46121  15.572  15.614  15.235 -0.0813 -0.1362 -0.0393
30313W        W46122   8.346  16.880  12.047  0.0314  0.2450 -0.1178
30314W        W46123  11.238  10.164  13.589 -0.1598  0.0967  0.1631
30315W        W46124   1.012  11.807   4.875 -0.0029 -0.1054 -0.1193
30316W        W46125  11.001  10.141  10.910 -0.0621  0.0114  0.1193
30317W        W46126  15.522   2.450  12.772  0.1017 -0.0096  0.2460
30318W        W46127   4.268  11.378   1.165  0.2493 -0.2733 -0.5421
30319W        W46128   4.209   5.632   3.937 -0.3837  0.2307 -0.0025
30320W        W46129   7.852   6.887  11.605  0.2959 -0.3319 -0.0955
30321W        W46130  18.481  15.189  14.510  0.1389  0.0316 -0.0478
30322W        W46131   7.634  12.940   0.783  0.0763 -0.0547  0.0033
30323W        W46132   6.507   3.975  13.034 -0.3424 -0.0115 -0.1512
30324W        W46133   8.583   7.774  12.384 -0.1277 -0.0026 -0.0552
30325W        W46134   3.783   1.509  10.782 -0.0387 -0.1397  0.0981
30326W        W46135   0.017  11.275  14.627 -0.1507  0.0115  0.2455
30327W        W46136  16.210   0.689  11.497 -0.0540 -0.0157 -0.0464
30328W        W46137  12.880  17.758   1.317 -0.0255 -0.0072 -0.0992
30329W        W46138   9.851   7.815  11.722  0.4665 -0.4051 -0.3331
30330W        W46139   5.727  12.563  11.279  0.1265 -0.2161 -0.0704
30331W        W46140   7.759  10.062  10.065 -0.3317 -0.2560 -0.4185
30332W        W46141   3.829   5.076  14.417  0.0486  0.1121  0.0823
30333W        W46142  17.934  15.704  12.167  0.0775  0.0501  0.4925
30334W        W46143  12.179   9.605  13.229 -0.1210  0.1231 -0.1264
30335W        W46144   1.388  17.211  11.522 -0.1751 -0.2148  0.0268
30336W        W46145  12.745   6.779   4.967 -0.0278  0.2827 -0.0750
30337W        W46146   7.762   4.350  11.159  0.2010  0.2537 -0.3029
30338W        W46147  10.698  16.851  11.197  0.0588  0.1031  0.0307
30339W        W46148   7.647   1.285  13.032  0.0557 -0.2807 -0.1410
30340W        W46149  18.234  15.539   6.080 -0.3415  0.0370 -0.1317
30341W        W46150  18.624  10.781  14.299 -0.0097 -0.0252 -0.2787
30342W        W46151  10.035  17.986  13.319  0.2079  0.1008 -0.2970
30343W        W46152  16.895  18.397  10.252  0.0742  0.0915 -0.0608
30344W        W46153   2.249  11.492  11.821  0.0394  0.0445 -0.0818
30345W        W46154   5.197  16.328   1.222  0.2634 -0.1549  0.0617
30346W        W46155  10.300  18.281   1.495 -0.2939 -0.1332 -0.0299
30347W        W46156   5.784   8.847  14.388 -0.0478 -0.1035  0.2848
30348W        W46157  16.006  13.521  11.971 -0.0809 -0.1049  0.2710
30349W        W46158   6.763   7.842  12.008  0.2341 -0.0414  0.0828
30350W        W46159   3.710  10.628  13.776 -0.0028 -0.1721  0.4763
30351W        W46160  14.534   0.076   2.512  0.0379  0.0276 -0.0915
30352W        W46161   3.635  12.197  12.775  0.5033 -0.0826 -0.1730
30353W        W46162  17.077  14.242   5.924 -0.2254  0.0883  0.1176
30354W        W46163  14.515  10.340  11.601 -0.3868  0.0712 -0.3264
30355W        W46164  16.664   2.652   3.871  0.3716 -0.4767 -0.0870
30356W        W46165  12.716   2.024   2.455 -0.0982 -0.2639 -0.2062
30357W        W46166   3.336   2.850   1.796  0.0056 -0.3292  0.3258
30358W        W46167  18.721   0.848  14.195 -0.0747 -0.1968  0.0113
30359W        W46168  13.221  12.171   3.444  0.0412  0.0677  0.1391
30360W        W46169   5.001  14.381  13.899  0.1915  0.0154  0.0121
30361W        W46170  12.406  19.070   1.126 -0.6064  0.0476  0.1019
30362W        W46171   7.018   9.767   1.754  0.0496  0.2307  0.3331
30363W        W46172   5.799   2.480   4.234  0.1791  0.1148 -0.2412
30364W        W46173   0.758   1.048   0.159  0.1720 -0.0972 -0.2522
30365W        W46174   0.675   4.629  13.088  0.0523 -0.1757  0.0193
30366W        W46175  18.205   1.094  11.658 -0.0099 -0.0057  0.2823
30367W        W46176  15.145   8.872  11.380 -0.1025 -0.0544  0.1789
30368W        W46177  10.177   0.198   3.791 -0.0689  0.1721 -0.2583
30369W        W46178   8.246   5.698   4.399  0.0475  0.1795  0.1701
30370W        W46179  12.166   0.299  12.783  0.1069  0.0046  0.0916
30371W        W46180   6.126   8.105  13.190  0.0767  0.0025 -0.0889
30372W        W46181   4.728   0.885  11.594 -0.0658  0.3075 -0.0048
30373W        W46182  11.109   5.786   3.797 -0.2922 -0.1657  0.1219
30374W        W46183  10.853  14.989  13.156  0.0115 -0.2210  0.2385
30375W        W46184  13.729   7.195   2.354 -0.0181  0.0904  0.1590
30376W        W46185  12.404  15.865   4.212 -0.3087  0.1117  0.0820
30377W        W46186  13.583   4.739   2.958 -0.3310  0.0429  0.0101
30378W        W46187  10.327   4.562   0.547  0.1283 -0.2135 -0.2627
30379W        W46188   7.296  10.107   1.473  0.1554 -0.1431 -0.1482
30380W        W46189   4.512   5.975  13.342  0.1614  0.0773  0.1828
30381W        W46190  13.277  18.554   4.519  0.1659 -0.3683 -0.0078
30382W        W46191  10.203   5.178   4.529 -0.0895 -0.1744  0.1998
30383W        W46192   2.412  12.495  13.682  0.0963 -0.0754  0.0317
30384W        W46193  16.857   6.485  14.321  0.3371  0.1402  0.0196
30385W        W46194  10.458  15.680   4.350  0.0613  0.1227 -0.0202
30386W        W46195  18.500   7.644  14.110 -0.3417  0.4201 -0.1918
30387W        W46196   5.531  16.527   1.849  0.3547 -0.3157  0.3064
30388W        W46197   6.569  13.211  15.111  0.1926  0.4408 -0.0351
30389W        W46198  17.247  17.885  10.903  0.2664  0.0721 -0.0493
30390W        W46199  15.710  18.238   2.806  0.1098 -0.1343  0.1104
30391W        W46200  11.533  19.009   5.056  0.0596  0.2965  0.1098
30392W        W46201  12.541   4.275   9.219 -0.1020  0.2618 -0.0448
30393W        W46202   3.433   5.779  13.212  0.2238 -0.3622 -0.6018
30394W        W46203  15.914  14.544   4.059 -0.1459 -0.0970 -0.1206
30395W        W46204  10.955  16.598  12.642  0.4024 -0.2358  0.1838
30396W        W46205  14.065   4.482   2.393 -0.0478 -0.3352  0.1381
30397W        W46206   1.622   4.844   1.267  0.2484 -0.3186 -0.1846
30398W        W46207   0.061   7.674   5.549 -0.3435  0.0733  0.1266
30399W        W46208  17.251   1.266  13.939 -0.0858  0.0039  0.2290
30400W        W46209   5.414   2.934   2.341  0.0011  0.1506 -0.1596
30401W        W46210  16.175   3.366   4.425 -0.2792 -0.0837  0.2887
30402W        W46211   9.684   6.796  11.214 -0.2165 -0.1389  0.3805
30403W        W46212   3.868  10.059   1.076  0.0344 -0.0927  0.0353
30404W        W46213  11.083  18.575  14.567  0.1165  0.0921 -0.1001
30405W        W46214   1.606   6.708   0.838 -0.2303 -0.1063  0.1572
30406W        W46215  10.515  14.165  12.659  0.2120  0.3594 -0.0192
30407W        W46216   0.582  13.089   4.991 -0.2841  0.4073  0.0923
30408W        W46217  12.620   0.754  13.129  0.1758  0.1229  0.0294
30409W        W46218  18.472  10.210   2.588  0.1603  0.2359 -0.3071
30410W        W46219   4.523   2.078  11.828  0.0760 -0.1895 -0.1373
30411W        W46220   0.155  13.524  14.167  0.1583  0.0067 -0.1387
30412W        W46221  11.223   9.906   1.000  0.1347 -0.0461  0.0142
30413W        W46222   8.522  13.374   3.024  0.3489  0.1729 -0.0708
30414W        W46223  14.367  14.188   5.431  0.0465  0.0304  0.5141
30415W        W46224   0.591   8.139   4.020 -0.1592 -0.3120  0.2052
30416W        W46225  15.537   6.787   1.536 -0.1959  0.3133 -0.2402
30417W        W46226   4.159   6.099   5.141  0.0980 -0.2577 -0.0702
30418W        W46227   2.579   6.280   9.265 -0.1915  0.0491  0.0921
30419W        W46228  11.173  13.808  13.913  0.3980 -0.2855 -0.0208
30420W        W46229  13.356  12.136  15.047 -0.0953 -0.0779 -0.0415
30421W        W46230  12.986   7.267   0.143  0.0188  0.1319 -0.1706
30422W        W46231   0.285   5.347   2.124 -0.0624  0.0101  0.0917
30423W        W46232   8.239  12.671   5.066  0.1674 -0.1118 -0.1545
30424W        W46233  13.862   0.470   0.919 -0.3780 -0.2576  0.0676
30425W        W46234  12.057   0.547  11.379 -0.0414  0.1582 -0.1634
30426W        W46235   6.341   6.105   4.122  0.2892 -0.0961 -0.0030
30427W        W46236  14.934  11.233   2.190  0.0994  0.1338 -0.1503
30428W        W46237   1.835   3.780   0.106 -0.3777 -0.0799  0.1785
30429W        W46238  14.303  18.082   1.103  0.0205 -0.1666 -0.2194
30430W        W46239   3.834  10.996  13.391  0.1636 -0.0256  0.3420
30431W        W46240   9.540   7.559   4.048  0.0199 -0.3950  0.1082
30432W        W46241   1.590  12.925  14.611  0.1521  0.2089  0.0485
30433W        W46242   5.215   2.890  14.359  0.2199  0.1339  0.0692
30434W        W46243  14.361  15.927  14.317  0.2830 -0.0070 -0.3410
30435W        W46244  14.578   9.020  14.029  0.0613  0.1208 -0.1406
30436W        W46245  10.900  11.452  12.615  0.0514  0.0565 -0.0589
30437W        W46246   9.848  16.488   2.362 -0.4064  0.0477 -0.0909
30438W        W46247  17.034   2.736   0.459 -0.2690  0.3746 -0.2160
30439W        W46248   5.079  17.878  11.062 -0.0075 -0.0497  0.0211
30440W        W46249   3.320  12.953   3.098  0.1605  0.0863 -0.0215
30441W        W46250   9.727   8.774   1.631  0.0641 -0.0043  0.2380
30442W        W46251  15.689  17.264  14.848 -0.0377 -0.2612  0.2470
30443W        W46252   0.034  14.173   5.128  0.3147 -0.1264  0.1319
30444W        W46253   4.481   3.968  10.218  0.2186 -0.3898  0.1530
30445W        W46254  11.101  16.416   2.191 -0.2243 -0.1995 -0.0462
30446W        W46255   5.656   1.151   4.439 -0.2702 -0.2057  0.0117
30447W        W46256   2.099   0.598   4.938 -0.3464  0.1316 -0.1698
30448W        W46257  13.370  10.920   2.793 -0.2741  0.0515 -0.3457
30449W        W46258   1.989   7.651   0.565  0.0667  0.3262  0.0389
30450W        W46259  15.415   8.437  10.444  0.3534  0.4564 -0.3670
30451W        W46260  13.796   6.160   3.742 -0.0863 -0.0642 -0.2052
30452W        W46261  13.578  15.725   3.469  0.1475 -0.1588  0.0222
30453W        W46262  12.579  18.291  13.163 -0.2083  0.1271  0.0499
30454W        W46263   0.592   5.527   3.993 -0.2684  0.0790  0.0174
30455W        W46264  10.477  12.557  14.686  0.0966 -0.0547  0.0835
30456W        W46265   5.777   9.229  11.398  0.2761 -0.1758 -0.0430
30457W        W46266   2.721  18.094   4.241 -0.1487  0.3729 -0.0774
30458W        W46267  14.726   6.019   9.492  0.1884 -0.0591 -0.2804
30459W        W46268   7.196  11.244  14.687  0.1822  0.1792 -0.2360
30460W        W46269  13.115   5.845   0.619  0.1195  0.5037 -0.2211
30461W        W46270  16.010  11.266  10.402 -0.3578  0.0172 -0.2198
30462W        W46271  13.665  15.006   0.767  0.0830 -0.2690 -0.1862
30463W        W46272   2.995  18.163  10.294 -0.0762 -0.2907 -0.1523
30464W        W46273  12.320  15.746  10.880  0.0408 -0.2260 -0.2960
30465W        W46274   0.509   5.136   5.473  0.0533 -0.4828 -0.1702
30466W        W46275   5.255   2.395   4.612  0.1849 -0.3409  0.1557
30467W        W46276   6.295  13.352   2.910  0.1172 -0.1278  0.0956
30468W        W46277   4.485  15.522  13.013 -0.0233 -0.1978 -0.3048
30469W        W46278   2.255  11.855  15.050 -0.0190  0.0355 -0.4934
30470W        W46279  14.237  14.407   1.279 -0.1469  0.0591  0.2218
30471W        W46280  13.879   4.122  11.408 -0.4233  0.0082 -0.1390
30472W        W46281  18.626  17.624   0.742 -0.2233  0.0768  0.0710
30473W        W46282  15.233   6.600  13.459  0.0391 -0.0590  0.2363
30474W        W46283  17.932  11.956   5.156 -0.0760 -0.0072 -0.2546
30475W        W46284  14.214   5.749   0.833 -0.0988 -0.1255 -0.0306
30476W        W46285  14.785   8.992   4.517 -0.2633  0.0884  0.1544
30477W        W46286  13.965  12.831  14.553 -0.3018  0.2044  0.3905
30478W        W46287  14.027  15.432   4.854 -0.5233  0.1784  0.0582
30479W        W46288  17.390   6.325  13.477 -0.0306  0.3831 -0.0632
30480W        W46289   4.643   3.759  11.156  0.1322 -0.1535 -0.0387
30481W        W46290   6.816  16.080  14.959 -0.0184  0.0087 -0.0392
30482W        W46291  13.755   9.570  11.198  0.2625  0.0365 -0.4419
30483W        W46292  16.950   2.682  13.758 -0.0360 -0.4416  0.0134
30484W        W46293   8.880  18.223  12.703 -0.0704  0.3735  0.0971
30485W        W46294   5.712  15.009  13.379  0.1024  0.1565 -0.3673
30486W        W46295   8.958   6.011  10.366  0.3762 -0.2945  0.0901
30487W        W46296   1.313   4.730   9.670 -0.1827 -0.0920  0.0259
30488W        W46297  14.689  12.210   2.862 -0.2103 -0.0266  0.0000
30489W        W46298  10.597  16.558   1.387 -0.1462  0.2608 -0.1156
30490W        W46299   5.949  12.952   1.844  0.1922  0.2540  0.1634
30491W        W46300   5.774   6.345   2.488  0.1673  0.1119 -0.1055
30492W        W46301   4.517  12.759   4.445 -0.1435  0.1489 -0.1584
30493W        W46302   6.401  12.068  12.614 -0.1673  0.0581  0.2872
30494W        W46303   5.460   7.305   2.389 -0.1606  0.0255  0.0181
30495W        W46304  14.739   9.014  12.230  0.0384  0.0844 -0.1694
30496W        W46305   9.227   4.001  12.503  0.1005  0.3813 -0.2430
30497W        W46306  17.208  18.379   0.936 -0.0060 -0.1461  0.0622
30498W        W46307  16.618  16.625  14.110 -0.0034  0.1098  0.3264
30499W        W46308   7.061   8.983  13.139  0.1210  0.1982  0.2338
30500W        W46309   3.451   3.043  13.722  0.3990  0.0166 -0.0480
30501W        W46310  13.368  15.768  15.009 -0.0975  0.0672 -0.6430
30502W        W46311   2.926   0.100  12.413  0.0194  0.1854 -0.2776
30503W        W46312  11.918  17.673   4.104  0.2982 -0.1957 -0.0816
30504W        W46313   7.008   9.682  14.942 -0.1887 -0.1067  0.0184
30505W        W46314   0.757   7.846  13.900  0.1825 -0.1345  0.2214
30506W        W46315   4.983   9.840   2.991  0.2003 -0.0562 -0.2005
30507W        W46316  13.474   7.347  12.558  0.0602  0.1081 -0.0380
30508W        W46317  16.339   3.916  12.422  0.1264 -0.0917  0.0888
30509W        W46318   6.124  13.427  14.615 -0.5779 -0.0688 -0.0698
30510W        W46319  16.600   3.686  11.963 -0.2144  0.2571 -0.2060
30511W        W46320   6.741   2.144   2.357  0.1850  0.3370  0.0091
30512W        W46321  13.444   5.889   4.883 -0.4697  0.2028  0.2679
30513W        W46322   7.747  16.567  10.763 -0.3416 -0.2460  0.1721
30514W        W46323  13.891   8.631  11.983 -0.0523  0.0990  0.0380
30515W        W46324  14.651  18.931   1.313  0.0072 -0.0536  0.0459
30516W        W46325  11.476  17.113   1.409 -0.3496  0.0774  0.0490
30517W        W46326   4.059   6.744   1.608 -0.2652  0.3278 -0.0453
30518W        W46327  12.924   3.526  13.050 -0.2650  0.3309  0.3962
30519W        W46328   8.451   9.844   2.663  0.1244 -0.2717  0.1495
30520W        W46329  17.915  10.406  14.491  0.0910 -0.2360 -0.1988
30521W        W46330   6.742   2.626   0.649  0.3222 -0.2468 -0.0742
30522W        W46331   2.223   2.305   0.517 -0.1666 -0.1575 -0.4857
30523W        W46332  12.899  11.558  11.659 -0.2279 -0.1733 -0.3486
30524W        W46333  15.752  17.334   2.855  0.0001  0.1791 -0.0651
30525W        W46334   6.642  17.705   3.779 -0.0700 -0.2397 -0.2550
30526W        W46335   1.282   8.342  13.609  0.1978  0.1770  0.2583
30527W        W46336  12.540   3.734   4.827  0.1698  0.3268  0.1568
30528W        W46337   7.334  11.294   4.663 -0.2646  0.3032 -0.0739
30529W        W46338  12.398   5.750  11.721  0.0063  0.1780 -0.0792
30530W        W46339  12.515  18.842   4.431  0.1322  0.0945 -0.0336
30531W        W46340  16.371   9.377   1.944  0.0989 -0.0929  0.0224
30532W        W46341  16.415  17.885   5.644 -0.1891 -0.0399  0.3461
30533W        W46342  14.029   4.001  12.245  0.0357  0.1367  0.0934
30534W        W46343  15.849   3.787  12.435 -0.0098 -0.0106  0.0094
30535W        W46344  14.135   5.046  14.958 -0.0564 -0.1122  0.0628
30536W        W46345  18.870   0.640   4.465  0.1780  0.1861  0.0769
30537W        W46346  12.015   8.380  11.730 -0.4483 -0.2993  0.1064
30538W        W46347  15.622   8.831  15.077  0.0514 -0.0858 -0.0020
30539W        W46348   1.671  16.314   1.953  0.1125  0.1190 -0.0475
30540W        W46349   6.104   2.942   5.017  0.1451  0.1392  0.1908
30541W        W46350  12.171  14.635   1.419 -0.0120 -0.0134 -0.0878
30542W        W46351  17.537  11.735   3.779 -0.3833  0.1021  0.1938
30543W        W46352  14.145   8.573   2.318  0.0784 -0.0789 -0.0662
30544W        W46353  17.585  10.949  13.614  0.0778  0.1136  0.0758
30545W        W46354   5.408  15.901   1.613 -0.2151  0.3305 -0.1872
30546W        W46355   7.596   2.622   0.704  0.3277 -0.4351  0.0234
30547W        W46356   4.537  11.101  12.685  0.0039 -0.2898  0.2419
30548W        W46357   2.961   3.031   5.303 -0.1053  0.1675 -0.0962
30549W        W46358   1.155  18.630   4.713  0.1114 -0.0294 -0.3948
30550W        W46359   8.502  14.671  12.693 -0.1127 -0.0395 -0.2576
30551W        W46360   7.191  11.573  12.787 -0.0027  0.0049  0.1657
30552W        W46361  13.783   6.507  13.297 -0.2381 -0.2418 -0.5147
30553W        W46362  12.638  18.337  14.758 -0.0849  0.0086  0.0593
30554W        W46363  17.277   5.136  11.353 -0.7031 -0.4645 -0.0771
30555W        W46364  11.474  13.482  14.424 -0.1383 -0.2734 -0.2013
30556W        W46365   7.107   3.595  15.181  0.2253  0.2683  0.2392
30557W        W46366  14.197  19.039   1.100  0.2815 -0.1501  0.0124
30558W        W46367  13.578   0.254   2.221  0.1823  0.1670  0.2840
30559W        W46368   3.870  13.348  11.989 -0.4440  0.0533 -0.1190
30560W        W46369   9.866   0.030  12.525  0.1852 -0.1185 -0.2364
30561W        W46370  12.575   8.232  11.735 -0.0379 -0.1548  0.0796
30562W        W46371  12.634   4.660  11.764 -0.0575  0.1564  0.2511
30563W        W46372   3.004   1.262   2.064  0.0709  0.1677 -0.1247
30564W        W46373   2.080   1.402   5.617 -0.2057  0.1471 -0.1724
30565W        W46374   0.906  10.138   9.795 -0.3572 -0.3648 -0.0167
30566W        W46375   9.904  10.410  13.393 -0.1510 -0.1692 -0.0412
30567W        W46376  13.228  14.909  11.567 -0.0157 -0.0856 -0.0606
30568W        W46377   7.610   3.612  10.846  0.3694  0.0462 -0.3899
30569W        W46378   3.984  17.883  10.451 -0.0792 -0.0748  0.2694
30570W        W46379   0.908  10.793   2.385  0.0942  0.0103  0.0948
30571W        W46380   1.570  17.171   0.375  0.4458 -0.1921  0.0846
30572W        W46381  18.506  12.605  12.394  0.0050 -0.3103 -0.0432
30573W        W46382  12.405   4.877  10.794 -0.1972  0.2375  0.1202
30574W        W46383  16.956   7.731  15.012  0.0819 -0.1491  0.2329
30575W        W46384   3.907   7.490   4.323  0.0703 -0.0900  0.0051
30576W        W46385   1.877  15.090   3.296  0.0148 -0.1980 -0.3853
30577W        W46386   8.491   5.049  12.453 -0.1054 -0.1826 -0.0569
30578W        W46387  10.752  12.746  12.719  0.2405 -0.0167 -0.1406
30579W        W46388   0.127   9.081  13.609 -0.0815  0.2697 -0.0542
30580W        W46389   7.091  18.931   3.862  0.1885  0.0706  0.1701
30581W        W46390   4.022   0.987   0.516  0.0240 -0.1246 -0.2415
30582W        W46391  17.616  15.109   0.744  0.0509 -0.1914 -0.1771
30583W        W46392   1.476   7.488  11.087  0.0746 -0.0371 -0.1307
30584W        W46393   0.261   6.065   0.011  0.3286  0.3857  0.1502
30585W        W46394   2.440  17.275   3.845  0.0277 -0.1863  0.0029
30586W        W46395  14.750   6.624   2.833 -0.1122 -0.0988  0.0810
30587W        W46396   3.164   3.369  10.352  0.3169  0.1745  0.0630
30588W        W46397  18.464  17.961  13.998 -0.2780  0.0966 -0.0187
30589W        W46398   3.985   3.656  10.114 -0.0036 -0.0324 -0.0243
30590W        W46399  14.143  17.653  15.057 -0.0779  0.0732 -0.2348
30591W        W46400   9.649  14.809  14.152 -0.1164 -0.2026  0.0534
30592W        W46401  17.580   2.488   0.601 -0.0328 -0.2115 -0.2639
30593W        W46402   7.947  13.967   3.072  0.0495 -0.1013 -0.2106
30594W        W46403  12.533  15.386   4.110 -0.0258  0.1340 -0.0232
30595W        W46404   1.773  15.082  14.770 -0.3276 -0.1984 -0.1849
30596W        W46405  12.906   1.455  12.825 -0.0317  0.1997 -0.1678
30597W        W46406   7.446  12.462  15.249 -0.3639 -0.1664 -0.2015
30598W        W46407  18.127  10.090  13.953 -0.2478 -0.1895 -0.0192
30599W        W46408  17.063   5.704   3.443  0.0237 -0.1777  0.1083
30600W        W46409   4.393   6.706   0.504  0.1018  0.0227 -0.0164
30601W        W46410  17.636   9.761   0.392  0.1139  0.3089  0.5649
30602W        W46411   7.453   2.759   4.110 -0.0021 -0.2995  0.1840
30603W        W46412   0.139   2.067  14.704 -0.2211  0.0526  0.0347
30604W        W46413  10.607   2.185  12.074 -0.0275 -0.0412  0.0701
30605W        W46414  13.834  17.248   4.769  0.0929  0.1465  0.0617
30606W        W46415   7.585   7.854   0.851  0.2481  0.0655 -0.0885
30607W        W46416   5.897   3.140   4.408 -0.0649 -0.1657 -0.2103
30608W        W46417  13.448   5.194  12.347 -0.1973  0.2764 -0.2288
30609W        W46418  11.782  16.384  13.510 -0.1727  0.0124 -0.0678
30610W        W46419   9.871  12.210   2.031  0.2005 -0.0385  0.0137
30611W        W46420   7.316   1.641   0.007  0.1867 -0.0237  0.0388
30612W        W46421   7.066   6.491  12.800  0.1035  0.1599 -0.0881
30613W        W46422   3.632  16.502   1.807  0.1979 -0.0765  0.1257
30614W        W46423   6.362   4.031   5.046  0.1547 -0.1077  0.1751
30615W        W46424   3.396   5.680   9.390  0.0954  0.3259  0.2185
30616W        W46425   1.480  10.408   4.091 -0.0635 -0.2554  0.1907
30617W        W46426   8.314   1.185   2.536 -0.1919  0.4649 -0.1065
30618W        W46427   6.016  18.601   3.697  0.0861 -0.0344 -0.0318
30619W        W46428  14.847  18.634   6.200 -0.1496 -0.3432 -0.0698
30620W        W46429  10.432  13.942   2.688 -0.3300 -0.0312 -0.3502
30621W        W46430   3.730  11.825   2.820  0.1833 -0.0868 -0.1476
30622W        W46431   1.741   6.982   5.382  0.2392 -0.2447  0.1149
30623W        W46432  16.507  18.555  10.922  0.1439 -0.0121  0.1372
30624W        W46433   8.132  18.187  15.139  0.0597  0.2182  0.5712
30625W        W46434   8.492  10.991  10.648 -0.2891 -0.1762  0.1639
30626W        W46435  12.707   9.552   0.949 -0.0441  0.0012 -0.0352
30627W        W46436   4.766  12.846  13.987  0.1151  0.0953 -0.2056
30628W        W46437   0.594   8.007   2.348 -0.0267 -0.1424 -0.0418
30629W        W46438   6.054   3.756  11.661  0.1997  0.0614  0.0834
30630W        W46439  15.557   9.644   2.357 -0.0187 -0.0543 -0.2036
30631W        W46440   8.306   2.770   3.741 -0.1329  0.2986  0.1578
30632W        W46441   6.403   5.458  12.815  0.0414 -0.5198 -0.0872
30633W        W46442  15.346   2.493  12.266 -0.2501  0.4439 -0.0283
30634W        W46443   0.624   4.876  10.727  0.1919  0.4404  0.4501
30635W        W46444   5.672   4.072   4.487  0.3534  0.2060  0.0220
30636W        W46445   5.429   1.877   2.310  0.1876 -0.4223 -0.2457
30637W        W46446  11.592  18.870  11.142 -0.1106 -0.1517  0.0530
30638W        W46447   6.382   9.447   5.200 -0.0137 -0.3050 -0.1970
30639W        W46448  10.925  16.106   5.367 -0.1283  0.2340 -0.1344
30640W        W46449   7.123  12.494  10.539  0.0640 -0.0336 -0.1373
30641W        W46450  10.297  12.235   4.595  0.1509  0.2116 -0.3844
30642W        W46451  17.756   7.862   0.739  0.1699 -0.0314 -0.0409
30643W        W46452  13.821  18.666  13.633  0.0184 -0.1411  0.1459
30644W        W46453  17.979   6.149  10.662  0.3330  0.2425  0.1461
30645W        W46454   3.959   2.593  13.210  0.0580  0.0975 -0.2405
30646W        W46455  18.027   7.373   3.765 -0.3877 -0.1560 -0.0619
30647W        W46456   7.763  13.852   1.575 -0.0074 -0.0458 -0.0450
30648W        W46457   6.228  13.353  14.121  0.1007  0.2772  0.0079
30649W        W46458  12.608  14.338  11.022 -0.1956 -0.1979 -0.1567
30650W        W46459   7.727  15.353  11.697  0.3975 -0.0941 -0.0723
30651W        W46460   4.025  17.570   0.825 -0.1283  0.0644  0.0103
30652W        W46461   9.155  16.482   4.692 -0.0121  0.2243  0.3637
30653W        W46462  14.760  12.816   0.784  0.0843 -0.0565  0.1783
30654W        W46463   6.334   9.270  11.498 -0.0285  0.0417  0.3643
30655W        W46464   7.058  11.738  12.315  0.0287 -0.4134  0.1961
30656W        W46465   5.850   4.875   0.650 -0.2310  0.1883  0.2529
30657W        W46466   9.265   1.051   0.564  0.2897  0.0088 -0.3227
30658W        W46467  14.164   8.498  12.413 -0.1757  0.2446 -0.2081
30659W        W46468  13.976  16.393   9.882  0.0058  0.1172 -0.0093
30660W        W46469   3.286  15.960  14.328 -0.1251  0.1577 -0.1975
30661W        W46470  13.819   9.349   1.159 -0.4035  0.0983 -0.1819
30662W        W46471   9.798   2.263  12.598  0.1252 -0.2479  0.2524
30663W        W46472   9.702   8.824  13.389  0.0009 -0.2373  0.5871
30664W        W46473   8.153   4.281  13.043 -0.2477 -0.0798 -0.1042
30665W        W46474   3.390  17.557   0.276  0.3698 -0.3029 -0.1822
30666W        W46475  16.785   1.878  13.165 -0.1104 -0.1488 -0.1340
30667W        W46476  14.039  12.059  11.567 -0.0210 -0.0660 -0.2355
30668W        W46477   0.241   2.329   1.930 -0.1956  0.1982  0.0801
30669W        W46478   8.044  11.313  11.343  0.1777 -0.2565 -0.1791
30670W        W46479  16.912  14.649  11.913 -0.0883 -0.1072 -0.0918
30671W        W46480  12.776  13.663  11.281  0.0600 -0.1644 -0.1852
30672W        W46481  18.956  16.756  12.250 -0.2678 -0.1877  0.1121
30673W        W46482  17.471  17.373   9.984  0.1069  0.2621  0.0523
30674W        W46483   2.385   7.633  14.812  0.0102 -0.0383 -0.3329
30675W        W46484  10.443  15.272  13.878  0.0319 -0.0391  0.5106
30676W        W46485   9.283  10.841   0.647  0.0953  0.2405  0.1710
30677W        W46486  15.746  17.752  15.016  0.0098 -0.0311  0.0165
30678W        W46487  13.272   7.374   2.999 -0.1601 -0.1594  0.1168
30679W        W46488   6.055  11.521   0.773  0.1237  0.1252 -0.3213
30680W        W46489   0.494   9.752   2.418 -0.0704 -0.0018  0.4498
30681W        W46490  18.640   1.535  10.300  0.1758 -0.0777 -0.1438
30682W        W46491   4.953  14.192  13.012 -0.0952  0.0445 -0.1154
30683W        W46492  15.257  17.334  14.021  0.1456  0.1265  0.1261
30684W        W46493   4.806  11.332  10.876 -0.0644  0.0705 -0.0372
30685W        W46494  13.060  11.254   1.420  0.1754 -0.1189  0.1612
30686W        W46495   5.205   9.911  11.301 -0.2035 -0.2042 -0.2109
30687W        W46496  10.345  16.128   1.387 -0.1459 -0.0676  0.0417
30688W        W46497  19.010  15.471   2.905  0.2820  0.2864  0.1217
30689W        W46498   1.103  10.087   3.862 -0.0712  0.1075  0.0328
30690W        W46499   2.667   0.414  14.776  0.1412 -0.0636 -0.1967
30691W        W46500  14.444  12.092   3.548 -0.2828 -0.2720 -0.2462
30692W        W46501  16.622   7.744  14.071 -0.0103  0.2196 -0.0088
30693W        W46502   9.720   8.826  15.219 -0.3736  0.1243 -0.1097
30694W        W46503   8.643   4.137   2.582 -0.0880 -0.0718  0.2277
30695W        W46504   6.814  10.733   0.624  0.0635 -0.0080 -0.1491
30696W        W46505   3.946  13.610   2.527 -0.1245 -0.0851  0.2605
30697W        W46506  12.830  16.226  13.314 -0.5579 -0.0781  0.2608
30698W        W46507  14.095   5.310   2.939 -0.1009 -0.1178  0.1130
30699W        W46508  14.499  17.362  10.649 -0.0127 -0.0943 -0.0322
30700W        W46509  10.326  13.514  11.448  0.1188 -0.5001 -0.0535
30701W        W46510   0.911   3.605  12.438  0.1592 -0.3243  0.1746
30702W        W46511  18.546  17.606  11.007 -0.2532  0.2889 -0.0086
30703W        W46512  16.378  17.096   4.154 -0.0658 -0.0038  0.1229
30704W        W46513  10.473  19.041   0.494 -0.0768  0.2851  0.0550
30705W        W46514  13.162   2.678  11.250 -0.0127 -0.0469 -0.1706
30706W        W46515  17.599   6.084  11.639 -0.1035  0.0768  0.0526
30707W        W46516  13.583  14.902   2.855  0.0735 -0.0371  0.1603
30708W        W46517  18.206   7.578  12.884  0.1584 -0.0001 -0.0815
30709W        W46518   9.208   5.998  12.912 -0.1757 -0.1130  0.0207
30710W        W46519   9.724   8.345  13.142  0.1583  0.1318 -0.0700
30711W        W46520   0.948   7.258  10.983  0.0871 -0.0225  0.2641
30712W        W46521   3.215   4.793   1.253  0.1928 -0.1030 -0.0060
30713W        W46522   0.261   4.920  12.882 -0.0578  0.0288  0.0251
30714W        W46523   2.414  13.216   1.245  0.1161  0.1887 -0.2726
30715W        W46524  10.470   4.025  13.170 -0.0923 -0.1949 -0.0569
30716W        W46525   4.051   9.586   3.170  0.0633 -0.0383  0.0687
30717W        W46526   0.613   5.032   2.346 -0.3429 -0.2049  0.0576
30718W        W46527  16.861  17.625  12.822  0.1429 -0.0293 -0.2381
30719W        W46528  10.294  18.287  12.525 -0.0065  0.1576 -0.2998
30720W        W46529  15.680  17.171   3.959 -0.3708  0.2841  0.0351
30721W        W46530  15.747   5.130   4.507 -0.2664  0.6563 -0.0547
30722W        W46531  15.614   1.547  13.708 -0.0486  0.0057 -0.2364
30723W        W46532  12.340   8.315  12.682 -0.0803  0.1668 -0.2241
30724W        W46533   2.714   5.983   0.608 -0.0398  0.1061 -0.1357
30725W        W46534  10.347  14.286  13.635 -0.0901 -0.0102 -0.1573
30726W        W46535  18.646  12.615   1.820  0.0331  0.0124  0.0690
30727W        W46536   6.055  12.642   5.694  0.0413 -0.2156 -0.0643
30728W        W46537   2.114  12.060   4.637  0.1666  0.1346  0.2296
30729W        W46538  18.224  11.582   0.478 -0.0600  0.3691 -0.1233
30730W        W46539  17.999   0.613   0.155 -0.0773 -0.3687  0.0608
30731W        W46540   2.481   8.570   1.317  0.2593 -0.0162  0.0908
30732W        W46541   0.755   5.901   4.887 -0.1233  0.0983 -0.2954
30733W        W46542  15.230   8.666   5.204 -0.5310  0.0653  0.3875
30734W        W46543  12.390   7.008  14.824 -0.0482  0.2123  0.2133
30735W        W46544   6.951   2.395   1.875 -0.1363 -0.1386 -0.1180
30736W        W46545  10.747   5.032  14.583 -0.0509  0.0311  0.1749
30737W        W46546  18.856  11.672   4.243  0.2480  0.1279 -0.1300
30738W        W46547  16.648  16.974  11.194 -0.1699  0.3261  0.3890
30739W        W46548   8.104   6.726   3.061  0.0277  0.2768  0.2541
30740W        W46549   0.560   8.931   1.932  0.0781 -0.0860 -0.2295
30741W        W46550  10.333  15.326   3.977 -0.1810 -0.1729 -0.1019
30742W        W46551   2.776  12.863   1.178 -0.1808 -0.1262 -0.1208
30743W        W46552   2.215   0.851  12.432  0.1982 -0.1430  0.2002
30744W        W46553   2.896  14.157   3.235 -0.0063  0.0469 -0.1444
30745W        W46554   5.578   7.252  12.877  0.0248  0.2712  0.0432
30746W        W46555   7.357   4.398  11.519 -0.1092  0.2522  0.1587
30747W        W46556   2.777   1.079   1.512  0.0894 -0.1714 -0.2534
30748W        W46557  14.197   6.680  12.576 -0.3935 -0.2599 -0.0090
30749W        W46558   9.065  15.367   4.683 -0.2175  0.3761  0.0955
30750W        W46559  18.894   5.438  12.061 -0.2045  0.2085 -0.3775
30751W        W46560  18.379  18.301   3.085 -0.1557  0.1325  0.1863
30752W        W46561  16.015   7.161   0.173  0.2681  0.1373 -0.1696
30753W        W46562  13.859   9.506   3.094  0.0720  0.0024 -0.1175
30754W        W46563  18.106   4.619   1.177 -0.1462 -0.2423  0.0307
30755W        W46564   4.106   1.495   0.301 -0.1403 -0.1427 -0.1787
30756W        W46565   2.030   7.129   4.574  0.0526 -0.0590  0.3418
30757W        W46566   0.685   5.232  13.130  0.0954  0.2213 -0.2505
30758W        W46567   6.356  11.943   2.872  0.3524 -0.2032 -0.0811
30759W        W46568  18.097  19.033  11.353 -0.0860 -0.1706  0.0702
30760W        W46569  16.775  13.132   0.332  0.0772 -0.4277 -0.0015
30761W        W46570   5.171  16.250   4.555  0.0300 -0.0445  0.3083
30762W        W46571   5.355   0.300  12.466 -0.1792 -0.2054 -0.0700
30763W        W46572  14.898  10.020   3.441  0.1052  0.1755 -0.2143
30764W        W46573   4.579  17.434  14.086  0.0780 -0.0309  0.0434
30765W        W46574   5.118  15.580  14.207  0.4220 -0.5170  0.2911
30766W        W46575  15.403   5.993  12.131  0.4173 -0.0571  0.1365
30767W        W46576  12.435   8.934  12.121 -0.1263  0.1236 -0.1048
30768W        W46577  13.213   0.833   3.223  0.2796  0.0883 -0.1576
30769W        W46578  12.361   5.225   3.964 -0.1367  0.1357 -0.1198
30770W        W46579   6.069   4.189  11.401 -0.1534  0.1388  0.2156
30771W        W46580   1.519  10.505   3.149  0.2457  0.2555 -0.0714
30772W        W46581   8.036  10.922   4.414  0.3710 -0.0023 -0.0091
30773W        W46582   0.855   3.153  10.447 -0.4760  0.0766 -0.0289
30774W        W46583   2.948   7.915  13.733  0.3918 -0.0437 -0.0240
30775W        W46584  12.661  11.933   1.309  0.0771 -0.1326 -0.0353
30776W        W46585   2.702   6.909   0.392  0.2267 -0.1486 -0.0498
30777W        W46586  13.713  13.858   0.718  0.1728 -0.0278  0.3050
30778W        W46587   6.238   7.180   5.373 -0.0508  0.0855 -0.1226
30779W        W46588   6.035  13.198  15.066  0.1261  0.0168 -0.0431
30780W        W46589  10.246   7.928   3.617 -0.1905 -0.0698 -0.0599
30781W        W46590  13.452   8.075  12.981 -0.0347  0.0237  0.2864
30782W        W46591  18.871  10.103   2.310  0.1056  0.1058 -0.0679
30783W        W46592   4.114  13.932  12.724  0.2781 -0.0857  0.0915
30784W        W46593   7.380  16.921  10.774  0.2720 -0.1974 -0.2023
30785W        W46594  11.645  17.648  11.474  0.1391  0.1861 -0.1310
30786W        W46595   2.456   8.186   1.700 -0.4072  0.0230  0.0846
30787W        W46596   5.896   2.287   1.185 -0.1801  0.0581  0.0873
30788W        W46597  16.738  10.294   4.549 -0.1788  0.0418  0.0286
30789W        W46598   1.414   5.431  14.766  0.0886 -0.2945 -0.3202
30790W        W46599  10.464   0.852  12.278  0.4898  0.1563 -0.1194
30791W        W46600  11.673   6.208   4.065 -0.2690 -0.0106  0.0543
30792W        W46601   6.523  14.959   2.919  0.0144  0.1426  0.0376
30793W        W46602  14.370   5.133   0.122 -0.2265  0.1647 -0.5772
30794W        W46603  13.496  15.255  11.859  0.0437 -0.1623  0.0963
30795W        W46604  14.297   5.144   9.807  0.0981  0.0242  0.4803
30796W        W46605   5.262  15.880  10.192  0.3421  0.1053  0.2592
30797W        W46606   2.509   2.967  14.717  0.3010 -0.2448  0.0972
30798W        W46607  13.560   4.500  14.630  0.1463 -0.1079  0.3721
30799W        W46608  11.779  14.101  11.660  0.2609 -0.1610  0.1481
30800W        W46609  12.780   3.027   1.220  0.2319  0.1714 -0.3829
30801W        W46610  16.378   7.655  11.059 -0.0027 -0.1092 -0.1016
30802W        W46611  14.194  10.031  11.877 -0.0730  0.3782 -0.0337
30803W        W46612  14.508   1.536  12.773 -0.1366 -0.0828  0.1699
30804W        W46613   5.896   5.371   3.238  0.1283 -0.1921 -0.0184
30805W        W46614   2.279  11.417  12.863  0.4703 -0.1020  0.1440
30806W        W46615  12.706  18.463   3.209 -0.1650  0.0698  0.0066
30807W        W46616   6.256   9.990   4.400 -0.0456 -0.0918  0.0905
30808W        W46617  11.423  10.609  15.074  0.1020  0.4046 -0.2478
30809W        W46618  16.830  15.196   6.464 -0.0370 -0.2146  0.1221
30810W        W46619   3.468  13.047  14.509 -0.0646  0.0911 -0.4651
30811W        W46620   3.232   0.359   4.199 -0.1383 -0.0912  0.0767
30812W        W46621  10.803   0.567  10.105 -0.3851  0.1469 -0.3335
30813W        W46622   6.019  11.087  13.990  0.1377 -0.1089  0.1275
30814W        W46623   6.372  15.871  15.136 -0.1021 -0.2522 -0.3217
30815W        W46624   8.681   7.713  13.876 -0.2271 -0.0194 -0.2508
30816W        W46625  11.987   8.839  11.526 -0.1831 -0.1668 -0.1611
30817W        W46626   8.693  15.119  12.368 -0.0900 -0.3237  0.2470
30818W        W46627   5.183   7.928   0.645  0.2441  0.3325 -0.0175
30819W        W46628   4.294  14.263  12.363 -0.1441 -0.1694  0.2003
30820W        W46629   3.926  14.158   1.007 -0.0731 -0.3122  0.0060
30821W        W46630   7.325   4.698   3.356  0.0531  0.1842  0.1481
30822W        W46631  16.229   2.091  11.659  0.2175 -0.1302  0.1109
30823W        W46632   0.095  13.874  14.604  0.2105 -0.0219  0.0543
30824W        W46633   6.717   9.734   2.243  0.1227  0.1322 -0.2157
30825W        W46634  10.539   0.933   3.879 -0.0238 -0.0254 -0.4150
30826W        W46635  13.666   9.261  12.406 -0.1725 -0.1092  0.2981
30827W        W46636   1.339  17.074   4.942 -0.0500 -0.2313  0.1068
30828W        W46637   6.892  17.735  13.901 -0.1970  0.1017  0.1329
30829W        W46638   0.545   2.745  14.184  0.0328  0.1670  0.0934
30830W        W46639   4.499   6.782   1.878 -0.2277  0.1148  0.0096
30831W        W46640   7.151  11.326  11.487  0.0853 -0.0005  0.0390
30832W        W46641   6.808   7.486   9.976  0.0102  0.1559 -0.1997
30833W        W46642  18.080  16.144   1.883 -0.0549 -0.1257  0.0034
30834W        W46643  18.587  15.303   4.826 -0.1743 -0.2416  0.1846
30835W        W46644  11.047  10.272   2.036  0.1199 -0.0244  0.0355
30836W        W46645  10.755  12.154   2.156  0.0646  0.2116 -0.0763
30837W        W46646  16.950   6.669  11.248 -0.0807 -0.1868  0.1341
30838W        W46647  14.237  17.605   0.788  0.1531  0.1252 -0.2601
30839W        W46648   8.185   2.920  11.550 -0.0170  0.1033 -0.0270
30840W        W46649   3.419  16.172   4.247  0.1490 -0.2312  0.1618
30841W        W46650   1.009  16.704  14.126 -0.0803  0.2030 -0.0756
30842W        W46651  10.898  11.714  15.034 -0.0621 -0.1292 -0.1368
30843W        W46652  10.515   3.326  11.293 -0.0570 -0.5869  0.0340
30844W        W46653   9.392  16.411  11.056 -0.0852  0.1233  0.2099
30845W        W46654   0.055  14.195   3.881  0.1520  0.3792  0.1171
30846W        W46655  15.943   5.540  13.893 -0.0696  0.0205  0.0884
30847W        W46656   8.648  18.151  11.770 -0.0683 -0.1292  0.6383
30848W        W46657  17.849   1.536  10.989 -0.2413  0.1756 -0.1158
30849W        W46658  12.321  17.316  12.735  0.2777 -0.4368 -0.0948
30850W        W46659   0.804   3.799  13.702 -0.0639  0.1244 -0.2238
30851W        W46660   9.366  18.745  13.338 -0.1712  0.0554  0.1257
30852W        W46661  11.166   6.256  14.337  0.2941  0.0369  0.1357
30853W        W46662  12.355   8.772  13.129  0.3956 -0.3853  0.0279
30854W        W46663  16.320  18.253  14.677 -0.1187 -0.1772  0.0079
30855W        W46664  18.570  11.122   0.669 -0.2637 -0.2216 -0.0677
30856W        W46665   2.172   7.107   5.102 -0.0499  0.1113 -0.0778
30857W        W46666   3.114  17.058   2.335 -0.2705  0.2016 -0.1743
30858W        W46667   1.682   4.467  13.504  0.2485  0.0098 -0.4525
30859W        W46668   3.789   8.374   5.208 -0.0653 -0.1095 -0.0615
30860W        W46669   0.449   0.081   3.030  0.0111 -0.0975  0.2243
30861W        W46670   0.563  18.212   3.083 -0.1098  0.2318  0.0026
30862W        W46671   4.943   1.813  10.835 -0.1260  0.2420  0.0652
30863W        W46672  14.236   4.476  12.353  0.0297  0.1174  0.3564
30864W        W46673  14.022   9.410  13.680 -0.0818  0.0726  0.2625
30865W        W46674   9.141  18.923   2.936  0.0796  0.0282  0.2269
30866W        W46675   9.629  17.063   3.608 -0.1310 -0.0830 -0.3453
30867W        W46676   8.093   9.242  12.359  0.3395 -0.0560 -0.1674
30868W        W46677   3.768  16.846  11.964  0.3786 -0.1298 -0.1770
30869W        W46678  12.257  17.595   5.023  0.1678 -0.0450 -0.2388
30870W        W46679  15.684  15.232   5.343 -0.1579  0.0815  0.2844
30871W        W46680   2.627   5.795  12.545 -0.1635  0.3754  0.3657
30872W        W46681   5.026  16.148   3.391  0.0411 -0.0753  0.1211
30873W        W46682  17.719   6.027   2.246  0.0686 -0.2300  0.0759
30874W        W46683  13.473   2.028  13.151 -0.1417 -0.0273  0.3177
30875W        W46684   7.471  11.004  13.337  0.0561  0.1535 -0.0581
30876W        W46685   3.864  14.087  13.131  0.1241  0.1978 -0.2796
30877W        W46686   5.588   2.272  12.692  0.0003  0.1173 -0.3834
30878W        W46687   9.406  16.553  10.532  0.4703 -0.0120 -0.2851
30879W        W46688  10.222   9.938  14.240 -0.1334  0.3727  0.1276
30880W        W46689  17.140  18.788   2.261  0.2112 -0.0989  0.1571
30881W        W46690  13.312  15.667  10.993  0.3281 -0.5215  0.0851
30882W        W46691  17.148  15.386   2.878  0.7470 -0.0495  0.1477
30883W        W46692  12.823  15.196   4.409  0.0858  0.1209 -0.3024
30884W        W46693  14.897  10.092  14.959 -0.2013  0.1062  0.0719
30885W        W46694   4.758   4.647  13.898  0.0847 -0.1079 -0.1770
30886W        W46695   7.515   1.736  13.703  0.3029  0.0936 -0.1422
30887W        W46696   7.262   4.315  12.832  0.1506 -0.2458  0.1304
30888W        W46697  10.480   6.173  12.315 -0.0942  0.1381 -0.0388
30889W        W46698   5.858   0.280  15.222 -0.2310 -0.2877 -0.2857
30890W        W46699  15.128   0.079   0.100  0.3104 -0.0944 -0.0423
30891W        W46700   6.493   4.188  13.533 -0.0964  0.0482  0.0457
30892W        W46701   2.918  11.681  14.395  0.0818  0.0111 -0.4040
30893W        W46702   7.376  12.061  13.752 -0.2500  0.0955  0.2034
30894W        W46703  14.978   8.442   4.377 -0.1807  0.0734  0.2739
30895W        W46704   6.678  18.217  11.945 -0.2095  0.2644  0.2924
30896W        W46705  15.781   6.931   2.987 -0.0481 -0.1354  0.0017
30897W        W46706   5.296  12.708  13.012  0.2343 -0.0667  0.0634
30898W        W46707  14.603  16.020  11.863  0.1890  0.0613  0.1214
30899W        W46708   5.575   4.091  14.617 -0.2978 -0.3198 -0.1209
30900W        W46709  15.588  18.403  12.165 -0.3917 -0.0604  0.0655
30901W        W46710   2.210  12.199   3.626 -0.1152 -0.1167 -0.3159
30902W        W46711  16.639   4.799   3.363  0.0302  0.1947  0.1197
30903W        W46712   1.886   2.716  10.422  0.0389  0.0128  0.0071
30904W        W46713   0.827  11.041  11.916 -0.0167  0.1527 -0.2711
30905W        W46714  14.453   2.544  13.462 -0.1817 -0.1091  0.1935
30906W        W46715  17.445  14.198  14.539  0.1458  0.2022 -0.2753
30907W        W46716  10.973   7.316   5.268  0.3623 -0.0652 -0.1304
30908W        W46717  15.860  15.001  12.957  0.0052 -0.1122  0.1605
30909W        W46718  17.885  18.358  11.260  0.2962 -0.1087  0.1360
30910W        W46719   1.443   6.287  14.817 -0.0087 -0.0358  0.2609
30911W        W46720  16.345   3.194   0.716  0.1723  0.0398 -0.0502
30912W        W46721  11.765   3.066  13.081 -0.1430  0.1409 -0.0372
30913W        W46722  14.795   0.526   4.699  0.3897  0.1782 -0.0174
30914W        W46723  11.060  10.924  14.296 -0.0513 -0.1385  0.2386
30915W        W46724  14.162   0.868  14.827  0.0482 -0.1625  0.0327
30916W        W46725  10.651   0.852   0.406  0.1092  0.0994  0.0930
30917W        W46726  15.193   0.371  12.793 -0.0564  0.0886 -0.2337
30918W        W46727  12.729   6.616  14.202 -0.3254  0.0103  0.0390
30919W        W46728   4.101   8.690   5.906 -0.1634 -0.1342  0.1363
30920W        W46729   5.007  10.899  12.801 -0.0883  0.1864 -0.2730
30921W        W46730   8.109  17.246   3.974  0.3343 -0.0146  0.2584
30922W        W46731  18.572  10.376  13.993 -0.1620  0.0795  0.1568
30923W        W46732  18.066  18.629   2.477 -0.1560  0.1606  0.3640
30924W        W46733  12.503  17.052  13.658 -0.1155  0.1571  0.0319
30925W        W46734   4.094  12.197   3.109  0.0929  0.0991  0.0196
30926W        W46735  17.969  17.438  10.174  0.3039  0.1180 -0.3489
30927W        W46736  17.440   6.677   3.927 -0.2405 -0.0622  0.0492
30928W        W46737  14.305   6.256  11.865 -0.1669  0.0315  0.1297
30929W        W46738  19.013   6.395  10.645  0.1145 -0.0397 -0.2518
30930W        W46739  10.936  14.595   2.567  0.0057  0.1108  0.2526
30931W        W46740   5.518   1.422  11.458  0.2583 -0.0578  0.1761
30932W        W46741  18.871   4.585   2.280 -0.0607  0.3602 -0.0417
30933W        W46742  16.587  11.220  10.308 -0.0321 -0.4408  0.1683
30934W        W46743   0.404   1.163   2.489 -0.1088 -0.3082  0.0561
30935W        W46744   8.211  12.026   0.761  0.0387 -0.1444  0.0380
30936W        W46745   2.425  15.954   0.988  0.0891 -0.2318  0.1955
30937W        W46746   2.843  15.038   0.073  0.1232  0.1021  0.0694
30938W        W46747   0.095  16.495   2.114  0.2210 -0.1311 -0.1328
30939W        W46748  11.372  16.703  13.464  0.0257  0.2152  0.0646
30940W        W46749   3.276  17.033   5.243 -0.0247 -0.1452  0.0692
30941W        W46750  18.715   2.233  12.376  0.0102  0.0248  0.0021
30942W        W46751   5.934   7.696   1.467 -0.0771 -0.0960  0.1428
30943W        W46752  12.987   6.615   1.246 -0.3052  0.0774  0.1178
30944W        W46753   9.387  12.176  12.152 -0.1981 -0.1609  0.2373
30945W        W46754   5.220   5.544   0.141 -0.1814  0.0428  0.1260
30946W        W46755   5.847   1.704   3.181 -0.1546 -0.0330  0.0607
30947W        W46756   6.595  18.959  10.832 -0.2192  0.2651  0.1576
30948W        W46757   1.532  18.802   3.874 -0.0645 -0.0324 -0.1982
30949W        W46758  14.389  10.805   5.523  0.0704 -0.4455  0.1248
30950W        W46759   6.334   2.155  14.726  0.0254  0.0312  0.0587
30951W        W46760  12.557  15.331  13.226  0.1345 -0.3034 -0.2572
30952W        W46761   7.110   8.020  11.577 -0.2080 -0.4159  0.1780
30953W        W46762  16.742   5.491   0.809  0.0589  0.2865 -0.0059
30954W        W46763   6.427   1.007   0.537 -0.1409 -0.0250 -0.3285
30955W        W46764   9.025  16.405   0.820 -0.0113 -0.3196  0.1504
30956W        W46765   9.622  13.002   0.067  0.0779 -0.1765 -0.1808
30957W        W46766   3.255  10.168  10.307 -0.5114 -0.2308 -0.1842
30958W        W46767   3.091   3.643   1.174 -0.0195 -0.0160 -0.0225
30959W        W46768   4.056   5.427  10.875 -0.2582  0.0058 -0.1382
30960W        W46769  18.492   0.270  12.048 -0.2390 -0.1177  0.1078
30961W        W46770  13.993   3.270   1.901 -0.1951 -0.1940  0.0863
30962W        W46771   1.980   0.996   2.069  0.1161  0.0401  0.2136
30963W        W46772   0.867   1.572   2.054  0.2075 -0.0346 -0.0308
30964W        W46773  14.001  17.105   3.024  0.2582  0.1317 -0.1973
30965W        W46774   4.057   7.143  13.254  0.0458  0.1100 -0.1440
30966W        W46775   8.479   8.475  12.739 -0.3392  0.2504  0.0234
30967W        W46776   4.999  18.995   2.323  0.0811  0.0050  0.0172
30968W        W46777  15.063   9.161   3.257  0.3284 -0.2253 -0.1538
30969W        W46778   8.875  11.511  15.081  0.2118 -0.2831 -0.0691
30970W        W46779  11.390   6.127   1.752  0.3024 -0.0887 -0.2234
30971W        W46780   0.954   8.076  12.054  0.0995  0.3832 -0.0543
30972W        W46781  18.829   0.817  12.362  0.4044  0.1357  0.1285
30973W        W46782  12.674   8.360  13.047 -0.0881  0.0456  0.1636
30974W        W46783   7.898   3.122  13.203 -0.3507 -0.1608  0.0409
30975W        W46784   5.205  15.217  13.304 -0.0898  0.2647  0.1314
30976W        W46785   4.914   9.843  12.111  0.2118 -0.1392  0.3959
30977W        W46786  16.828   4.107  12.557  0.2415 -0.0971 -0.1233
30978W        W46787   5.363  13.044   2.837 -0.3194 -0.1129  0.0995
30979W        W46788   5.379   3.093  13.603  0.1214 -0.0527 -0.1636
30980W        W46789  13.371   9.063  12.792  0.3253  0.4008 -0.0755
30981W        W46790   1.127  14.841  13.626  0.0126  0.1450  0.0199
30982W        W46791   6.692   4.890  14.418 -0.0132  0.1484 -0.0145
30983W        W46792   4.769   7.978   0.375  0.1020  0.1782  0.3460
30984W        W46793   8.008  12.615  10.924  0.2945  0.1244 -0.2020
30985W        W46794  14.022   8.272   3.588 -0.1679 -0.3604 -0.1327
30986W        W46795  15.002   1.624  13.814  0.0109 -0.0968  0.1562
30987W        W46796  12.319   2.419   3.324 -0.0904  0.0390  0.3184
30988W        W46797   9.381   5.069  14.605 -0.1466 -0.2579  0.2294
30989W        W46798   6.920   9.259  12.019 -0.0175  0.1426  0.1194
30990W        W46799   1.365  19.060  12.729 -0.3789  0.0812 -0.0773
30991W        W46800  14.509  16.300   1.443 -0.0298 -0.0400 -0.1125
30992W        W46801  16.783  13.119   4.094 -0.3105  0.2351  0.3419
30993W        W46802   0.752  13.941   1.725  0.0824 -0.0514  0.4031
30994W        W46803   1.082   1.097   1.787  0.3028  0.1813  0.0766
30995W        W46804  19.097  17.573   0.231  0.3516  0.0756 -0.0018
30996W        W46805   6.904  15.644  10.057 -0.2500 -0.0210 -0.1472
30997W        W46806  15.537  17.991   0.113 -0.0725 -0.0834 -0.2116
30998W        W46807  13.113  19.031  14.673  0.0666  0.1504  0.1636
30999W        W46808   4.240  13.256   2.851  0.0293  0.0831  0.1502
31000W        W46809  15.821  10.166   0.300 -0.0767  0.1565  0.0903
31001W        W46810   5.631  18.897   2.394  0.0407  0.0735  0.2377
31002W        W46811  19.019   2.389   3.066  0.0265  0.2116  0.1309
31003W        W46812   9.119   7.261   5.607  0.0022  0.0313 -0.2785
31004W        W46813   5.845   8.770   2.356  0.0507  0.0312  0.0084
31005W        W46814  18.854   8.719   2.337  0.0034  0.0480 -0.1444
31006W        W46815   0.096   2.248   0.059 -0.0039 -0.1391 -0.0034
31007W        W46816   4.309  13.452  11.851 -0.1753  0.4452 -0.3731
31008W        W46817  15.080  11.090  12.050  0.1668 -0.1064  0.2628
31009W        W46818  16.160   5.275  13.388  0.1819  0.1333 -0.0939
31010W        W46819  17.517  15.206  14.226 -0.1078 -0.0464  0.2257
31011W        W46820   6.362  10.851   1.953 -0.0113 -0.2234  0.0274
31012W        W46821  12.496   5.661  14.970 -0.1082 -0.1847  0.0076
31013W        W46822   9.331  18.424  12.329  0.2202  0.0075 -0.1722
31014W        W46823   1.602   4.984   3.495 -0.1989 -0.1603  0.2082
31015W        W46824   9.289   4.366   1.890  0.2038  0.1982  0.3315
31016W        W46825  11.042  11.105   1.714 -0.1157 -0.0431 -0.0201
31017W        W46826  10.474   7.513  12.254 -0.2183 -0.1304 -0.1866
31018W        W46827   7.354  13.708  12.162  0.4880 -0.0645  0.3515
31019W        W46828  12.028   7.878  12.818 -0.3471 -0.1239 -0.0776
31020W        W46829   9.079  18.660   1.856 -0.1371  0.1335  0.1586
31021W        W46830   3.123  10.484   1.409 -0.1607 -0.1425  0.0946
31022W        W46831   5.501  11.998  11.391  0.2689  0.0536  0.1153
31023W        W46832  11.163   5.032   4.435 -0.0241  0.1697  0.3829
31024W        W46833   8.738   5.520   1.206  0.0622  0.1122  0.2560
31025W        W46834  19.069   5.302  10.075  0.1275 -0.0147  0.2276
31026W        W46835  17.530  18.707  12.217  0.3778 -0.4167 -0.2180
31027W        W46836   7.200  18.204  12.004  0.3134 -0.6276 -0.2666
31028W        W46837   5.253   9.410  14.742 -0.1463  0.1070 -0.0801
31029W        W46838   8.963  18.635   3.504  0.0768  0.0980 -0.1415
31030W        W46839  10.307   5.320   3.234  0.2224 -0.1841  0.1365
31031W        W46840  16.924  18.308   4.005 -0.2867 -0.1006 -0.2046
31032W        W46841  11.644   2.198   4.024 -0.4372  0.0309 -0.0755
31033W        W46842  14.420  18.156  10.152 -0.2090  0.3201  0.0448
31034W        W46843  12.908   1.876  11.225 -0.1186 -0.0071  0.2333
31035W        W46844   7.878  14.117  10.493 -0.0362 -0.1068 -0.2268
31036W        W46845  12.977  14.717   2.409  0.0574 -0.0926  0.1525
31037W        W46846   4.072  19.062  14.128 -0.0848  0.0299 -0.0293
31038W        W46847  13.999   8.919   3.827  0.3799 -0.0675 -0.1962
31039W        W46848  17.552   5.841  13.570 -0.2821 -0.0675 -0.0885
31040W        W46849   0.534   5.757  12.339 -0.5120  0.0489 -0.0340
31041W        W46850   4.633  16.204   2.481  0.1939 -0.2335 -0.4616
31042W        W46851  17.572   0.124  10.978  0.0026  0.0702 -0.1360
31043W        W46852   4.486   9.784   3.994  0.0877 -0.1807 -0.0067
31044W        W46853  17.311   0.684  14.946  0.0801  0.2071  0.1848
31045W        W46854   2.235   0.852   3.979 -0.3493  0.3116  0.3983
31046W        W46855   5.149   4.085   0.611  0.1794 -0.2327 -0.2274
31047W        W46856   4.758  11.322  14.320 -0.1514  0.3072  0.0882
31048W        W46857   8.058   0.239  13.476  0.0515 -0.0163  0.0346
31049W        W46858  17.833   0.400   2.032  0.0264 -0.0110 -0.0050
31050W        W46859   6.490  10.619  15.179 -0.2892  0.0124  0.1658
31051W        W46860  17.866  11.843  14.911 -0.0254  0.0008  0.5196
31052W        W46861  17.397   4.257   3.452  0.0525 -0.1243  0.0442
31053W        W46862   5.279  11.344  12.889  0.2100 -0.0700  0.2995
31054W        W46863   5.222   2.321  11.199 -0.1277 -0.0083  0.0172
31055W        W46864  14.699   8.291   3.972 -0.2707 -0.3297 -0.0048
31056W        W46865   1.618   7.352  14.935  0.3740  0.0450  0.0351
31057W        W46866   3.471   7.398  10.777 -0.1257 -0.4698 -0.2381
31058W        W46867  12.339   4.780   2.771 -0.0030  0.1002  0.0494
31059W        W46868  17.363   4.740  14.599 -0.1146  0.3708  0.1839
31060W        W46869  18.542   6.656  11.417  0.0672  0.0610  0.1421
31061W        W46870   6.442   1.542  15.110  0.0307 -0.1550  0.2572
31062W        W46871   0.877   2.336   5.028  0.0469  0.1589  0.3659
31063W        W46872  15.525   4.279  14.176  0.1188  0.0017 -0.1941
31064W        W46873  14.372   8.408   0.445  0.0737  0.0628 -0.2338
31065W        W46874  11.107  13.506  12.662  0.1689  0.1000  0.1219
31066W        W46875   0.081   4.265  10.183  0.1952  0.0164  0.1062
31067W        W46876   9.458  10.024   0.229 -0.2889 -0.2185 -0.1056
31068W        W46877   3.195  17.232  14.129  0.2163 -0.0065 -0.0431
31069W        W46878   4.201   2.426  10.567  0.0485 -0.4499 -0.3062
31070W        W46879   7.863   9.502  11.911 -0.0561 -0.2456  0.1809
31071W        W46880   7.560  12.656   3.603 -0.2588 -0.1164 -0.0333
31072W        W46881  14.728   5.092   1.262 -0.2857  0.0156 -0.2534
31073W        W46882   3.332  11.408  13.295  0.2653 -0.0915  0.0817
31074W        W46883  17.913   9.460   2.694  0.0358  0.0618 -0.0856
31075W        W46884  15.864  12.159   1.388 -0.1696 -0.1966 -0.1593
31076W        W46885   7.094   9.738  14.012 -0.1329  0.1264  0.3319
31077W        W46886   5.701  13.143  11.263  0.0803 -0.2220  0.4704
31078W        W46887  12.836  14.559  13.606  0.3213  0.1451 -0.2469
31079W        W46888   3.884   6.654  11.271 -0.0137  0.1097 -0.2496
31080W        W46889   3.614  10.794   4.640  0.0438  0.0353  0.0821
31081W        W46890   8.150   9.480   3.203 -0.1450  0.0106  0.4876
31082W        W46891  11.024   9.534   4.947 -0.1265 -0.0424 -0.1746
31083W        W46892   9.769   7.331   3.063  0.0867  0.1500 -0.1109
31084W        W46893  15.499  15.375  12.599 -0.1766  0.0090 -0.6783
31085W        W46894  18.210  13.577   3.276  0.0662  0.1482 -0.2188
31086W        W46895   9.005  18.611  14.528 -0.2482 -0.0991 -0.0761
31087W        W46896   5.246  12.461  13.920 -0.4186  0.1917  0.0306
31088W        W46897  12.048  14.123   3.572 -0.3660 -0.3529 -0.2358
31089W        W46898  12.785  15.089   0.199 -0.2337  0.0934  0.1726
31090W        W46899   3.583   1.113  14.433 -0.2344 -0.1436 -0.2149
31091W        W46900   8.314   7.773   4.488  0.0705 -0.1169  0.0478
31092W        W46901   2.893   8.954  11.714 -0.3275 -0.1522 -0.2421
31093W        W46902  18.281   2.650  10.076 -0.0435  0.2540 -0.1859
31094W        W46903  18.949   3.621  15.175 -0.3200 -0.1039 -0.3556
31095W        W46904  15.715   8.658  13.475  0.2062  0.2978 -0.3308
31096W        W46905   6.648  18.555  12.689  0.0044 -0.0173  0.1547
31097W        W46906   2.274   4.289  10.150  0.0294 -0.1405 -0.1025
31098W        W46907  15.832  13.480   4.359 -0.3165  0.0092  0.0783
31099W        W46908  16.574  18.247  13.295  0.0266  0.1866  0.1952
31100W        W46909   4.629  10.825   5.877  0.0802 -0.3576 -0.3585
31101W        W46910  14.602   6.802  14.320 -0.0337 -0.0018 -0.0227
31102W        W46911   7.297  16.155  11.730  0.3100 -0.0890 -0.0039
31103W        W46912  16.443  12.469   2.806 -0.0436 -0.2120 -0.2450
31104W        W46913   8.727   2.724  11.405  0.0713 -0.1289  0.0136
31105W        W46914  11.647   0.898   0.544  0.0309  0.0260 -0.0462
31106W        W46915  12.590   4.942  12.172 -0.1098  0.1167  0.2738
31107W        W46916  11.131  16.950  13.829 -0.3032 -0.0052 -0.1195
31108W        W46917  16.790   1.948  10.101  0.0163  0.2981 -0.3759
31109W        W46918  11.443  10.035  14.280 -0.1155 -0.4441 -0.0354
31110W        W46919  11.336   8.025  12.114  0.3197  0.0963 -0.1304
31111W        W46920   3.896   4.230   1.317  0.1502 -0.2283 -0.0931
31112W        W46921   3.807  11.928   0.576  0.2057 -0.0749  0.1633
31113W        W46922   0.283  10.690   4.485  0.2990  0.0579  0.1552
31114W        W46923  17.753  18.762  11.685 -0.2832 -0.2114 -0.2571
31115W        W46924   7.841   0.928   2.184 -0.0280 -0.0938 -0.0691
31116W        W46925  18.316   2.332  15.167  0.4072 -0.0337  0.0607
31117W        W46926   1.165  10.053   4.520 -0.2035  0.0343 -0.0218
31118W        W46927   4.568   3.072  13.933 -0.0108  0.0768 -0.0297
31119W        W46928   6.002  11.041   0.541 -0.1047 -0.0121 -0.2753
31120W        W46929   9.771   8.998  10.340  0.1188 -0.2139 -0.0040
31121W        W46930  14.195   3.887   2.149  0.0943 -0.1352  0.0456
31122W        W46931  15.629  18.780   3.015 -0.0085  0.2391 -0.3985
31123W        W46932   3.631  17.232   4.903 -0.3103 -0.2198 -0.1277
31124W        W46933  17.099   6.123  11.627  0.2720 -0.0175  0.4036
31125W        W46934   8.710  17.827   1.717  0.2936  0.3354  0.1353
31126W        W46935   7.205  19.128  14.341 -0.4710  0.2277  0.0202
31127W        W46936   4.225   6.675  10.919 -0.3295  0.3622 -0.0366
31128W        W46937   4.079   4.551  10.504  0.2161  0.5531  0.6536
31129W        W46938  18.415   6.300  12.532 -0.1125  0.3790  0.1063
31130W        W46939  15.457   3.331  10.437 -0.1356 -0.0043 -0.1161
31131W        W46940  15.368   7.437   3.492  0.6414  0.1964  0.1082
31132W        W46941   6.716   7.976   2.375  0.1271 -0.1191  0.4416
31133W        W46942  18.665  11.542  12.754  0.1014  0.1660  0.3305
31134W        W46943  16.437  12.714   4.087 -0.0388 -0.1422  0.0942
31135W        W46944   9.892   9.195   4.893  0.0206 -0.0208  0.5086
31136W        W46945  13.859  17.786   1.237 -0.1034 -0.1530 -0.0003
31137W        W46946  12.187   9.981  10.255 -0.3281 -0.2009  0.1353
31138W        W46947   8.860   2.484  14.825 -0.0488 -0.1168 -0.0577
31139W        W46948  10.366  13.652  13.383  0.4130  0.2413  0.0438
31140W        W46949  18.095   5.351  15.196  0.2076  0.1834  0.2087
31141W        W46950  17.807  18.822  10.977 -0.1397 -0.0865 -0.3520
31142W        W46951   8.740   7.514  11.560 -0.3106  0.1066  0.0584
31143W        W46952   0.536   2.208   3.127  0.1247 -0.1818 -0.1703
31144W        W46953   8.000  14.554   2.714 -0.0829  0.0172 -0.0658
31145W        W46954   0.884  17.071  13.677 -0.1499  0.0963  0.2638
31146W        W46955   3.286   2.068   0.693 -0.2501  0.1455  0.3967
31147W        W46956  11.549   0.610  13.235  0.2288 -0.2062 -0.0362
31148W        W46957  17.263   2.830   3.548  0.1073  0.0058  0.1510
31149W        W46958   5.089   2.088  12.691 -0.2060  0.2912  0.2062
31150W        W46959  10.213  15.286  12.557 -0.3451  0.2660 -0.2128
31151W        W46960  11.433  12.725  10.768 -0.4270 -0.1588 -0.2975
31152W        W46961  11.480  16.145   1.768 -0.3320 -0.2185 -0.2670
31153W        W46962   6.665  12.210   0.941 -0.0251  0.1991  0.0743
31154W        W46963   8.663   9.444   2.785  0.2178  0.1470  0.0406
31155W        W46964   7.212  13.023  13.257 -0.1975  0.0852 -0.3346
31156W        W46965   2.425  12.967   2.794 -0.0889  0.2862 -0.3764
31157W        W46966   4.815   6.299  12.277  0.1011 -0.1906  0.1032
31158W        W46967  10.073   0.886   1.635  0.0044 -0.2978 -0.0341
31159W        W46968   7.493   0.364  13.422 -0.0418  0.0144 -0.0061
31160W        W46969   6.447   5.712   1.938  0.0051  0.1534 -0.1526
31161W        W46970  18.294  16.468   2.153  0.3042 -0.0886  0.1123
31162W        W46971  15.005   7.760   0.525 -0.0526  0.4120  0.3176
31163W        W46972   4.548  17.092   2.709 -0.2370 -0.0353  0.2228
31164W        W46973   4.917   0.806   2.122 -0.1181 -0.2717 -0.1366
31165W        W46974   3.439   1.060  10.236 -0.1590 -0.2793  0.1379
31166W        W46975   6.698  14.819  12.984 -0.0032  0.3514 -0.0516
31167W        W46976   3.827   8.720  13.256 -0.1098  0.1361  0.1867
31168W        W46977   3.604  11.567  11.210 -0.0984 -0.0530  0.1514
31169W        W46978   7.471  18.033   1.172 -0.1052 -0.3889 -0.3731
31170W        W46979   9.346  13.637   3.981  0.2623 -0.2184  0.2903
31171W        W46980  14.603  17.246   3.282  0.1378  0.0550 -0.1756
31172W        W46981  13.351  12.273   4.777  0.2013 -0.2533  0.3522
31173W        W46982  14.418   4.161  10.660  0.0831  0.0357  0.1669
31174W        W46983   9.123   6.901   0.148 -0.0413 -0.0071 -0.1683
31175W        W46984  13.823  12.228   3.197  0.1914 -0.2985 -0.1383
31176W        W46985   9.780   0.941   2.136 -0.1263 -0.0548 -0.1006
31177W        W46986   6.323   7.373  15.220  0.0482 -0.1823  0.2675
31178W        W46987  14.484  12.277  11.062  0.0277 -0.0418 -0.1494
31179W        W46988   1.003  15.441  13.376 -0.0190 -0.4545  0.1702
31180W        W46989   2.457  11.097   0.250 -0.0603  0.0588 -0.3315
31181W        W46990  10.309  11.341  13.779  0.0308 -0.0145 -0.1812
31182W        W46991   5.608  11.179   4.832  0.1399 -0.3376  0.0479
31183W        W46992   8.158  11.747  11.053 -0.4937  0.3913  0.1384
31184W        W46993  16.966  17.954  13.225  0.1132  0.4450 -0.2391
31185W        W46994   9.779   3.324  14.492 -0.1834 -0.0004 -0.2029
31186W        W46995   5.368  15.315  12.820  0.0894 -0.1157  0.0173
31187W        W46996   2.677   7.414  12.878  0.0005  0.1548 -0.1718
31188W        W46997   3.439  16.899  10.698  0.1022  0.0412  0.1337
31189W        W46998   4.484  12.794   1.484  0.2735 -0.3868 -0.0160
31190W        W46999   9.573   8.705  12.274 -0.0367  0.1273 -0.0702
31191W        W47000   4.691   4.258  11.171  0.1331 -0.1582 -0.3015
31192W        W47001  10.427   2.005  10.832  0.0323 -0.3123 -0.3576
31193W        W47002   2.834  14.062  12.872 -0.0111  0.0132  0.0164
31194W        W47003   3.525   7.019  11.351  0.0349 -0.0014  0.0604
31195W        W47004   4.875   2.325  13.388  0.1019 -0.0952 -0.2418
31196W        W47005   2.475   8.551  13.534  0.2170  0.3496 -0.1919
31197W        W47006   6.703   9.917   0.031 -0.1013  0.0485  0.2453
31198W        W47007  16.172  16.098   5.011 -0.1189 -0.0783 -0.0235
31199W        W47008  13.595   3.798  14.927  0.2403 -0.0344  0.4389
31200W        W47009  13.312  18.875  12.474  0.0934  0.3644  0.0210
31201W        W47010  19.122   5.312   3.869 -0.0053  0.0624 -0.1383
31202W        W47011   4.865  17.914  14.812 -0.3004  0.1872  0.1209
31203W        W47012   7.230  17.113  10.349  0.0702  0.0154 -0.0869
31204W        W47013  10.690   1.407  13.105  0.2057  0.3378 -0.0599
31205W        W47014  11.800  12.333  13.689 -0.4053  0.0694 -0.0018
31206W        W47015   3.600  18.638   4.598  0.1126  0.0495  0.2161
31207W        W47016   4.990   1.240   1.128  0.1522  0.1489  0.0056
31208W        W47017  18.912   6.815  11.704  0.1238 -0.0505  0.0743
31209W        W47018   1.244  12.708   4.371 -0.0959 -0.1616  0.0691
31210W        W47019  16.089  18.659  14.927  0.1177 -0.1356  0.0658
31211W        W47020   3.585   4.088  13.582  0.0031 -0.0365  0.1670
31212W        W47021   8.881   9.404   4.826  0.4183  0.1817 -0.1679
31213W        W47022  11.116   7.606   4.364  0.2483 -0.1265  0.3810
31214W        W47023   3.618  12.630  10.827 -0.5255  0.0872  0.3387
31215W        W47024   2.481  15.974  12.286  0.1164 -0.0570  0.1141
31216W        W47025   5.166   2.230  15.068  0.2860 -0.2192  0.0825
31217W        W47026   6.242  16.092  13.027  0.1970  0.3785  0.2207
31218W        W47027  13.047  12.910  11.595  0.2999 -0.0670  0.2429
31219W        W47028  14.539  10.401   4.785  0.2699  0.0707  0.3414
31220W        W47029   5.296   5.907   1.176  0.3756  0.0422 -0.0295
31221W        W47030   9.409  18.054  12.657 -0.0627  0.1913  0.1307
31222W        W47031   4.658  17.845  14.368  0.0026  0.1127  0.1765
31223W        W47032   0.235   1.877   3.394 -0.0854  0.0442 -0.0196
31224W        W47033   8.377   4.142   3.996 -0.1305  0.3349  0.2727
31225W        W47034  12.277  16.817  12.450  0.0737 -0.3232 -0.1328
31226W        W47035  19.106   3.936  10.576 -0.0978 -0.0068 -0.0577
31227W        W47036   9.484  10.070   2.876  0.1727  0.3134 -0.2696
31228W        W47037  14.835  13.181  12.914  0.0150  0.0595 -0.1491
31229W        W47038   3.972  14.509   3.478  0.2824 -0.4182  0.0090
31230W        W47039   7.944   4.657  11.504 -0.1652 -0.1288 -0.0142
31231W        W47040  11.071   5.219  12.727  0.1665 -0.2138 -0.0640
31232W        W47041   8.782   5.662  12.918  0.0242 -0.0626 -0.3108
31233W        W47042   5.510  13.920   3.331  0.1722  0.3570 -0.1173
31234W        W47043   8.568   5.637   0.074  0.0622 -0.3209  0.0476
31235W        W47044  12.848   4.635   3.976  0.1861 -0.2016 -0.0080
31236W        W47045  15.518   0.177   0.919  0.1578  0.3516 -0.2160
31237W        W47046  12.606   6.277  12.533  0.3088 -0.4077  0.2312
31238W        W47047  12.615  13.708  13.862  0.4558  0.0718 -0.0090
31239W        W47048  12.598   2.680  13.366  0.0415 -0.2190  0.0729
31240W        W47049   4.733  11.797   4.435 -0.3253 -0.0516 -0.0053
31241W        W47050  11.600   9.653   5.098 -0.1477 -0.0159 -0.1338
31242W        W47051   2.814  18.607   0.752 -0.0500  0.1427 -0.1664
31243W        W47052  14.681  11.653   1.502  0.2850 -0.0901  0.0289
31244W        W47053  12.661   4.561  12.536 -0.1094 -0.1213 -0.0318
31245W        W47054  11.922   2.482   0.644  0.1380 -0.1067 -0.1014
31246W        W47055   4.420  18.822  12.376  0.1195 -0.0806 -0.2283
31247W        W47056  18.693  13.489  14.159 -0.2021  0.2918  0.0805
31248W        W47057  12.880   7.859  13.168  0.1843  0.2262  0.1616
31249W        W47058  11.720   2.143  14.899 -0.0298 -0.1158  0.2734
31250W        W47059   7.368   5.020   4.707 -0.5329  0.2582 -0.1968
31251W        W47060   1.511  15.416  14.587  0.4405  0.1860  0.5186
31252W        W47061  11.286   0.740  11.075  0.0513 -0.3123  0.0685
31253W        W47062   4.710  13.664  11.375 -0.0866  0.0168  0.0697
31254W        W47063  17.344   6.379   2.095  0.1151 -0.4654 -0.0904
31255W        W47064   7.339   0.390  11.737  0.1247  0.1523  0.1332
31256W        W47065  12.918   1.598   2.184  0.1036 -0.2046  0.2363
31257W        W47066  13.331  13.472   3.713  0.3533 -0.0591  0.0008
31258W        W47067  16.849   3.285  11.338 -0.3338 -0.0884 -0.1407
31259W        W47068   6.209   7.852   4.579  0.3294 -0.1788 -0.0209
31260W        W47069  13.601   8.014  12.048 -0.1912 -0.0125 -0.2481
31261W        W47070   1.683   9.351  11.108 -0.1482  0.0740 -0.0064
31262W        W47071   0.777   1.331   1.293 -0.2459 -0.0790 -0.5197
31263W        W47072  16.556   0.942   0.032 -0.1678  0.1301  0.0586
31264W        W47073   9.742  10.777   1.405 -0.1535 -0.1548  0.1002
31265W        W47074   4.726   1.854   1.929 -0.3513  0.0028 -0.2873
31266W        W47075  19.136  11.793   5.210  0.3287  0.1719  0.3914
31267W        W47076  13.173  13.146   1.141 -0.1559  0.0708  0.1633
31268W        W47077  11.636  14.028  14.956  0.1945 -0.3470  0.4645
31269W        W47078   1.339   1.433  13.752 -0.4291 -0.1185 -0.0998
31270W        W47079   5.264   2.693  11.590  0.1845 -0.1240  0.4740
31271W        W47080   7.011   3.078  14.787  0.0469  0.2187  0.2048
31272W        W47081  18.897   0.585  12.812 -0.1421 -0.2002 -0.1934
31273W        W47082   4.988  16.194  12.466  0.0489 -0.0032 -0.1925
31274W        W47083   8.179  18.153   2.952 -0.0940 -0.3025 -0.0775
31275W        W47084  13.920  15.242  14.670  0.0893 -0.0026 -0.0359
31276W        W47085  10.326  11.204  13.283 -0.0063  0.1174  0.0573
31277W        W47086   5.642   1.398  12.229 -0.1477 -0.2363 -0.0199
31278W        W47087  11.084   4.469  10.891 -0.0744  0.0140  0.1223
31279W        W47088   2.379   2.932   2.374  0.3063  0.0544  0.1195
31280W        W47089  18.979  14.699   3.362  0.1529 -0.1005 -0.0162
31281W        W47090  12.670  11.764  13.915  0.0860  0.2498  0.2992
31282W        W47091  16.498   7.494   3.245  0.2715 -0.0246 -0.0555
31283W        W47092  17.236   7.323  13.160 -0.0218  0.0519 -0.0112
31284W        W47093   9.722   8.820   2.701 -0.0570  0.0296  0.2623
31285W        W47094   6.283  10.462   2.595 -0.3257  0.3253  0.0540
31286W        W47095  14.698  11.146  11.092  0.0192  0.3070  0.0484
31287W        W47096   6.550  17.084  11.042  0.0655  0.1341 -0.0165
31288W        W47097  11.646   6.580   4.864 -0.1833  0.2453 -0.2255
31289W        W47098  15.552  16.076  14.868 -0.0164 -0.0429  0.1413
31290W        W47099  17.882   6.678  15.107 -0.4208  0.3413 -0.2058
31291W        W47100  13.415   4.120  11.487  0.2267 -0.1111  0.0726
31292W        W47101   6.802   0.559   3.440  0.2364 -0.0815  0.2235
31293W        W47102  16.252   1.323  12.271  0.2784  0.3209 -0.0575
31294W        W47103   2.667   1.374   0.683  0.1357 -0.0240  0.1491
31295W        W47104  16.644  14.385   3.311  0.0343 -0.1186 -0.0552
31296W        W47105  10.657   8.293   1.768 -0.0030  0.1238 -0.1368
31297W        W47106   3.344  10.178  13.405  0.0312  0.0313  0.0406
31298W        W47107   4.958   1.180  14.587 -0.2307 -0.1611 -0.2901
31299W        W47108   8.307  17.913   0.760 -0.4736 -0.1372 -0.1051
31300W        W47109  12.867  13.204   3.615 -0.1486  0.1758 -0.2995
31301W        W47110  12.133   3.093  15.023 -0.2475  0.0950 -0.0787
31302W        W47111  13.797   2.295   4.674 -0.0342  0.0395 -0.2617
31303W        W47112  10.037   1.977   1.903 -0.1509  0.0100 -0.1895
31304W        W47113  18.133  14.394   3.393  0.2994 -0.3880  0.0269
31305W        W47114   6.823   0.498  11.960 -0.1799 -0.1504 -0.0612
31306W        W47115   5.746  14.333  14.635  0.1786 -0.2636 -0.3448
31307W        W47116  11.991  18.954   4.860 -0.1788 -0.2426 -0.2376
31308W        W47117   5.090  10.298   3.119 -0.3732 -0.3532 -0.2692
31309W        W47118   2.544   3.311   5.437 -0.0780  0.1613 -0.3868
31310W        W47119  12.620   5.789   4.574 -0.0768 -0.1780  0.0010
31311W        W47120   0.772   4.832  12.639  0.1252  0.2231  0.1183
31312W        W47121   0.338   4.317   0.432 -0.1123  0.0649  0.0066
31313W        W47122   5.935   4.626   3.335 -0.2355 -0.2481 -0.0665
31314W        W47123   8.590  15.903  10.711 -0.5472 -0.1289  0.3632
31315W        W47124   0.982   2.422   3.530 -0.0957 -0.0034  0.0558
31316W        W47125   5.547   3.595  14.404 -0.2915  0.1053  0.1123
31317W        W47126   4.388   7.738   4.348  0.0585 -0.2075  0.0489
31318W        W47127   9.431   5.243   2.243 -0.4443  0.1950  0.0330
31319W        W47128  18.992  17.053   5.789  0.0325 -0.2575  0.1016
31320W        W47129   5.278  18.006   0.703  0.1953  0.0003 -0.1937
31321W        W47130  16.920  14.131  11.054 -0.1670  0.0230  0.0729
31322W        W47131  14.382  15.361   3.715  0.0737  0.1084  0.0643
31323W        W47132  13.663   6.449   0.804 -0.0709 -0.0379 -0.1526
31324W        W47133   5.946   4.577   3.870  0.0238 -0.3930  0.2719
31325W        W47134  10.350  18.853   2.426  0.1546  0.2248  0.3122
31326W        W47135  12.006   2.863   3.002 -0.1343  0.3307 -0.2168
31327W        W47136  14.367  18.639   0.841 -0.0422 -0.0994 -0.3544
31328W        W47137  17.404  13.190   0.980  0.1707  0.0822 -0.2131
31329W        W47138  15.245   6.008  11.665 -0.0819 -0.0292 -0.0281
31330W        W47139   0.189  12.985   0.073  0.0234  0.1164  0.0874
31331W        W47140   0.089   4.283   2.634 -0.0128  0.2628 -0.2527
31332W        W47141  17.960  11.481   0.952  0.1624 -0.1016 -0.0106
31333W        W47142  14.756   8.210  11.727 -0.2712  0.2466 -0.3288
31334W        W47143   1.062  15.667   0.974 -0.0612 -0.1025  0.3715
31335W        W47144   3.197   9.972   5.562  0.0387  0.0305 -0.0648
31336W        W47145  14.795   7.303  14.338 -0.1522  0.0157 -0.0156
31337W        W47146  12.874   4.423  14.112 -0.1082 -0.0558  0.2502
31338W        W47147   2.138  16.233  13.380 -0.4368 -0.2160  0.1566
31339W        W47148  13.322  11.774   3.982  0.3257  0.0487 -0.1433
31340W        W47149  15.722  12.468  11.178  0.2211  0.3525 -0.0018
31341W        W47150  10.415   8.596   2.132  0.0678  0.2911 -0.2079
31342W        W47151   9.984   0.969  10.633 -0.0754  0.0744 -0.0062
31343W        W47152  16.938  11.292  10.802 -0.1255 -0.0517 -0.2160
31344W        W47153   7.931   1.635  11.348  0.1217 -0.3796  0.0084
31345W        W47154   5.787   2.373  10.721  0.2133  0.2071  0.0314
31346W        W47155  10.403   0.102   3.361  0.2696  0.0135 -0.3087
31347W        W47156  10.290  14.613   5.055 -0.1956  0.0821  0.0618
31348W        W47157  11.192   9.261  13.654 -0.1603  0.1612 -0.0464
31349W        W47158  17.266   6.733   5.005 -0.2308  0.1257 -0.0372
31350W        W47159   6.700   2.953  14.189  0.0816 -0.0678  0.0772
31351W        W47160   6.376  11.809  11.677  0.2900 -0.0096  0.2925
31352W        W47161  14.503   6.268   3.320  0.2935 -0.0641  0.2232
31353W        W47162  16.674  15.843  13.390 -0.1691  0.0625 -0.1183
31354W        W47163   2.612  10.239   2.086  0.0897 -0.0011  0.0461
31355W        W47164   8.527  13.498  12.342  0.1261 -0.0420  0.1416
31356W        W47165  14.987  18.043   2.919  0.4786 -0.4821  0.1032
31357W        W47166  14.728   5.445   1.743 -0.1256  0.2089 -0.2549
31358W        W47167  19.051  18.544  13.360  0.0091 -0.0676 -0.1338
31359W        W47168   7.231   0.513   1.669  0.2608  0.1673  0.2749
31360W        W47169  17.623   0.347   5.422 -0.2322  0.0245  0.0131
31361W        W47170  18.186   3.431   0.369 -0.1277  0.0639 -0.7194
31362W        W47171  11.438   5.406   4.673 -0.0218 -0.2018  0.0435
31363W        W47172   7.701  16.974   4.157 -0.0026 -0.0459 -0.0346
31364W        W47173  17.991   8.177   5.022  0.0345 -0.4134  0.0248
31365W        W47174  12.263  13.251   5.184  0.0809 -0.1753  0.1175
31366W        W47175   1.686  13.201  11.899  0.2534  0.0018  0.1011
31367W        W47176   1.208   1.326  15.219 -0.0094 -0.0455 -0.0313
31368W        W47177  16.248  14.914   5.215 -0.1944 -0.1496  0.0754
31369W        W47178  18.492   3.241  12.382  0.1893  0.3293 -0.1548
31370W        W47179  14.598   8.843   0.697 -0.1736 -0.0669  0.1164
31371W        W47180   6.648  11.055  11.359  0.2674  0.1219 -0.1718
31372W        W47181   6.712   1.410  11.931  0.3240  0.0823 -0.2276
31373W        W47182  14.304   8.218  14.596  0.0645 -0.0426 -0.1476
31374W        W47183   9.951   0.868  12.328  0.0075  0.1739 -0.2968
31375W        W47184   6.677  15.068   0.660 -0.1849  0.1493  0.4938
31376W        W47185   4.743  10.468  13.471 -0.0284  0.0231 -0.2029
31377W        W47186  18.765  12.678   4.535 -0.2024 -0.2297 -0.0465
31378W        W47187   1.556  17.032   2.700 -0.2429  0.0588 -0.0931
31379W        W47188  14.154   2.522   3.343  0.0283  0.2494 -0.0381
31380W        W47189   5.279   5.104  10.783 -0.2297  0.4302  0.1052
31381W        W47190   5.630   8.188   2.286 -0.3244 -0.3444  0.0446
31382W        W47191  15.096  15.272   3.186  0.0039 -0.0915  0.1156
31383W        W47192  10.592   4.859  10.897  0.0212  0.1154 -0.3459
31384W        W47193   1.738   1.231  11.111 -0.0251 -0.2336  0.3440
31385W        W47194   8.867   4.086   3.989 -0.0683  0.0545 -0.1674
31386W        W47195   9.111  14.007  12.674 -0.0463  0.0402  0.2383
31387W        W47196  13.855   4.316  14.327 -0.6463 -0.1644  0.2786
31388W        W47197  16.437   8.347   2.425 -0.2351  0.2086 -0.3152
31389W        W47198   2.606  15.085   4.777  0.0841 -0.2014  0.1146
31390W        W47199   3.519   1.571   1.121  0.0809  0.2572  0.1979
31391W        W47200   5.802  13.443   3.587  0.0323 -0.2795 -0.1092
31392W        W47201  17.314  12.682  14.618 -0.1783 -0.2533  0.0914
31393W        W47202  17.001  14.335   2.780 -0.3782 -0.0359  0.1288
31394W        W47203   3.528   0.136  10.450  0.1363  0.0272 -0.1172
31395W        W47204   0.256   3.911  11.847 -0.0252  0.0447  0.0378
31396W        W47205   5.124   8.131   2.688 -0.2664  0.0479  0.0013
31397W        W47206  18.314   0.974   5.638  0.2344 -0.0045  0.0842
31398W        W47207   9.419  18.113   0.978  0.2547  0.0254 -0.0247
31399W        W47208   6.908   8.708   5.033  0.0430 -0.1772 -0.1420
31400W        W47209  16.445  16.654   1.764  0.2199 -0.3393 -0.0411
31401W        W47210  10.320  17.095   4.644  0.0036  0.1909  0.0620
31402W        W47211   6.538   8.189  11.663 -0.0514  0.0844  0.5728
31403W        W47212   1.077   1.741  14.010  0.0223  0.0314 -0.1390
31404W        W47213   5.743   2.642   2.614 -0.0119  0.0688  0.0548
31405W        W47214  15.180   7.144   1.686  0.0603 -0.0910 -0.1312
31406W        W47215   6.946   9.419  12.856  0.1906  0.1370 -0.3114
31407W        W47216   0.404   6.136   3.966 -0.3059 -0.0277 -0.1289
31408W        W47217  12.583   7.547   3.634  0.2152  0.2898  0.0171
31409W        W47218   2.089   1.695  14.434  0.1103  0.2446 -0.0623
31410W        W47219   0.497   6.892  11.177  0.0282  0.1321 -0.1705
31411W        W47220   3.815  11.424   0.689 -0.1812  0.0994 -0.0278
31412W        W47221  13.180   3.774  12.015  0.0793 -0.1977 -0.0162
31413W        W47222   0.869  17.024   5.186  0.2395 -0.1934 -0.2796
31414W        W47223   1.516   7.532  12.938  0.0125 -0.0037  0.2418
31415W        W47224   3.544   3.523  11.840  0.0004  0.0587 -0.1871
31416W        W47225  15.137  18.796   0.344 -0.1674  0.0930  0.3244
31417W        W47226   1.514   4.115  15.127 -0.2066  0.1284 -0.2082
31418W        W47227   0.841   2.245   1.588  0.1708 -0.1627  0.0735
31419W        W47228   4.025  18.764  10.730  0.0210  0.0015 -0.0174
31420W        W47229   1.110  19.095  12.268 -0.4434  0.0343 -0.0140
31421W        W47230  17.539  12.720   3.257  0.0051 -0.0882  0.1191
31422W        W47231   9.095   6.751  14.517 -0.0105 -0.0177 -0.2004
31423W        W47232   4.949  13.968   4.162  0.3477 -0.1272 -0.0107
31424W        W47233   9.990  16.727   0.478  0.1948  0.0806 -0.1564
31425W        W47234  18.521   0.106  13.843  0.1477  0.3361  0.2860
31426W        W47235  11.395  18.894  11.599  0.2577  0.2340 -0.3763
31427W        W47236   7.096  17.822  15.038  0.0239  0.2993  0.1267
31428W        W47237  18.721  18.681  10.640 -0.1747  0.0331  0.2330
31429W        W47238  19.017  18.025  15.265  0.1213 -0.1130  0.1816
31430W        W47239  14.326   7.364  11.666 -0.0605  0.2317 -0.3554
31431W        W47240   3.750   2.640  13.655  0.2370 -0.3045  0.0289
31432W        W47241  16.476   0.349   2.556  0.0114 -0.1969 -0.2138
31433W        W47242  13.379  15.829  14.552  0.1696 -0.1942  0.0741
31434W        W47243   6.983   1.106   9.690 -0.1486 -0.4877 -0.1748
31435W        W47244  12.913  12.848   2.515  0.2001 -0.4486  0.1414
31436W        W47245  13.277  15.190   0.557 -0.2015 -0.2185 -0.0017
31437W        W47246  19.133   9.107   5.086  0.2489  0.1262 -0.0493
31438W        W47247  18.898   0.571   2.191 -0.0635 -0.1660  0.1827
31439W        W47248  13.247   4.517  13.748 -0.0459 -0.0364  0.1569
31440W        W47249   2.463   2.660   0.881 -0.3328 -0.2525 -0.0570
31441W        W47250   4.584  12.990  11.950  0.0251 -0.0591 -0.1842
31442W        W47251   1.838   4.946   2.316  0.0710 -0.1027 -0.2549
31443W        W47252   0.092   1.686   5.156  0.0241  0.0550 -0.2345
31444W        W47253   6.538  11.785  13.985  0.2428  0.1833  0.0358
31445W        W47254   5.847  13.422   1.170  0.3251 -0.0623 -0.1873
31446W        W47255  13.529   4.429  11.109  0.0990 -0.3971 -0.3635
31447W        W47256  13.349   3.844  12.810 -0.0023  0.1639  0.0152
31448W        W47257  11.618   5.468  14.395 -0.2930  0.5744  0.1262
31449W        W47258  18.206  10.640  14.091  0.1636  0.1511 -0.2223
31450W        W47259  12.234  16.367  12.765  0.1738  0.0373 -0.0476
31451W        W47260   0.867   8.132   3.373 -0.0616 -0.1246  0.0230
31452W        W47261   1.025   3.333  11.960 -0.0643  0.1931 -0.2795
31453W        W47262  13.080  13.005  12.885  0.2160  0.1541 -0.0497
31454W        W47263   0.988  12.768  14.044 -0.0029 -0.2628 -0.0979
31455W        W47264  18.962  14.321   1.252 -0.1877 -0.1719  0.1155
31456W        W47265  14.349  14.672  11.149 -0.0985  0.0045  0.2127
31457W        W47266   2.874   8.925   1.116 -0.0837 -0.1409  0.0001
31458W        W47267  16.288   2.788  12.306  0.2687 -0.1386 -0.1884
31459W        W47268   1.118  17.278   0.631 -0.0370  0.1409  0.2591
31460W        W47269   9.278   1.784   4.670 -0.2157 -0.2187  0.2236
31461W        W47270  14.342   1.665  13.843 -0.1185 -0.1098 -0.2311
31462W        W47271   2.193   0.366  11.028 -0.0342 -0.0574 -0.0388
31463W        W47272   8.256  18.670   2.894 -0.0883  0.1460 -0.1588
31464W        W47273  18.310  16.603  12.042 -0.3458  0.1455 -0.1505
31465W        W47274  17.321  13.598  12.283  0.3950  0.1466  0.4018
31466W        W47275  14.687  18.999   2.066 -0.2423 -0.0258 -0.0161
31467W        W47276  14.069  16.816   4.619 -0.2480 -0.1973  0.0554
31468W        W47277  15.864   0.176   1.800  0.1691 -0.0775 -0.1043
31469W        W47278   0.539   7.243   2.925 -0.0259 -0.3979  0.1758
31470W        W47279   0.636  13.028   0.961  0.0662  0.1526  0.1124
31471W        W47280   0.120   9.768   2.933 -0.1892 -0.1255 -0.2748
31472W        W47281   7.494   9.459  10.544 -0.2640  0.0300  0.0282
31473W        W47282   1.435   7.862   2.770  0.1908 -0.1015 -0.0129
31474W        W47283   8.893  10.359  12.902  0.0038 -0.0813  0.3064
31475W        W47284  19.046  16.601   1.634 -0.2294  0.1571 -0.1318
31476W        W47285  16.390   8.612  13.303  0.3753  0.4685 -0.0690
31477W        W47286  10.945   0.908  12.933 -0.1321  0.1160 -0.0723
31478W        W47287   0.385  15.015   5.927 -0.2686 -0.0065 -0.1123
31479W        W47288   2.682  12.156   3.257 -0.2100  0.1633  0.1077
31480W        W47289   9.505   3.819   3.187 -0.4158  0.0451  0.3447
31481W        W47290  17.781  14.838   1.625  0.2226 -0.2718  0.3973
31482W        W47291  16.967   1.088   5.529 -0.4269  0.0180  0.2922
31483W        W47292  12.892   9.714  12.485 -0.1071  0.1650 -0.2608
31484W        W47293  11.874  18.783  11.806 -0.0299  0.1250  0.0148
31485W        W47294   7.160   3.420  10.740  0.0552 -0.0434 -0.2572
31486W        W47295   6.222   6.658   3.491  0.2114  0.1129 -0.2963
31487W        W47296   2.712  14.149   0.463  0.4636 -0.3329  0.1982
31488W        W47297  18.354   3.780  12.929  0.2409  0.0078 -0.2753
31489W        W47298   1.209  18.273  14.982  0.5372 -0.6999  0.0485
31490W        W47299   2.932   8.908   5.240  0.1238  0.1486  0.1944
31491W        W47300   1.338  12.340   3.523  0.0592 -0.1854  0.0285
31492W        W47301  13.390   0.037  12.095  0.0094  0.0879 -0.3694
31493W        W47302  17.409  17.021   1.786 -0.0893 -0.0468  0.2745
31494W        W47303  16.818   3.485  10.250  0.2139 -0.4015  0.0334
31495W        W47304  13.593   9.159  11.584  0.2440 -0.0825 -0.1603
31496W        W47305  11.872   3.519  10.058  0.1022  0.1663 -0.1550
31497W        W47306  16.547  10.731  13.274 -0.3652 -0.0195 -0.3561
31498W        W47307   3.726  16.597   4.546 -0.1073  0.0463  0.2055
31499W        W47308   6.044  15.339  15.196  0.0747 -0.1162 -0.0279
31500W        W47309  13.263  19.032   2.110  0.2323 -0.0552  0.0728
31501W        W47310  13.588   8.644  11.547  0.0494 -0.0923 -0.2636
31502W        W47311   4.072   3.609   3.838  0.1376  0.4977  0.0362
31503W        W47312   4.735   9.412   4.230  0.0705  0.2194  0.0867
31504W        W47313   2.232   8.164  13.004  0.0292 -0.0559  0.1150
31505W        W47314   5.763  12.127  13.279  0.1248  0.0536  0.4067
31506W        W47315  16.426  10.651  11.799  0.1204 -0.2508  0.0319
31507W        W47316  11.670  18.227   5.441 -0.3969 -0.0295 -0.0077
31508W        W47317   2.184  17.264   1.518  0.2506  0.1365  0.1783
31509W        W47318  16.644   4.829  11.186 -0.0965  0.3027  0.2380
31510W        W47319  13.156   6.295   0.402 -0.0924 -0.2393 -0.1138
31511W        W47320  13.121  10.219  12.455 -0.1654  0.2646 -0.2991
31512W        W47321   4.984  16.282   0.016  0.1231 -0.3054 -0.1835
31513W        W47322  15.618  18.557  14.750  0.0190  0.1006  0.0087
31514W        W47323   7.363  17.946   3.611  0.0831  0.4007 -0.0616
31515W        W47324   0.293   2.322  11.857  0.1710 -0.0172 -0.1531
31516W        W47325  14.980  12.295   3.734 -0.3097  0.4129  0.1798
31517W        W47326   9.589  15.160   4.467  0.0413  0.0695  0.1091
31518W        W47327   6.981   4.027   5.453  0.2039  0.1266 -0.0844
31519W        W47328   5.395  17.344  13.980 -0.2306  0.1901  0.0735
31520W        W47329  10.557  18.070  10.663 -0.0152  0.0810 -0.2056
31521W        W47330   3.330   5.304   2.627 -0.0048  0.1729  0.0303
31522W        W47331  10.502   0.871  13.234 -0.1508 -0.4679 -0.0903
31523W        W47332   9.749   0.537  12.695 -0.1099  0.1604  0.4720
31524W        W47333  18.624  13.148   4.621 -0.0150  0.0714 -0.0510
31525W        W47334   7.758  18.327   3.440 -0.2778  0.0524  0.1393
31526W        W47335  18.661   2.397   4.211 -0.1006  0.1300 -0.0930
31527W        W47336   1.833   6.225   4.074 -0.2511 -0.3463  0.1986
31528W        W47337   1.174  12.127   5.538 -0.3493  0.3461  0.1023
31529W        W47338   2.399  13.757   1.568 -0.3179  0.2257  0.0881
31530W        W47339   7.803   7.299   0.695  0.1306 -0.0849  0.4124
31531W        W47340  18.141  18.576   4.521 -0.3600  0.1287 -0.1534
31532W        W47341  14.848   4.461  14.322  0.0394  0.2786  0.2378
31533W        W47342   9.250   7.112   1.525  0.0322  0.2791  0.4535
31534W        W47343   8.136  18.571  12.985  0.2726  0.0272  0.0880
31535W        W47344   7.979   0.394   0.637  0.0885 -0.0754  0.3456
31536W        W47345   9.235  13.087  12.904 -0.0443 -0.0982 -0.0892
31537W        W47346   4.385  17.591  10.824  0.1627 -0.5922 -0.0523
31538W        W47347  16.858  13.051  14.559 -0.3270 -0.0264 -0.2081
31539W        W47348   7.849   4.165   4.441 -0.0683 -0.0630  0.0510
31540W        W47349   5.018  19.076  12.631  0.0080  0.1519 -0.0003
31541W        W47350   0.075   1.446   0.717  0.1604  0.0896  0.1339
31542W        W47351   9.231  13.732   2.138 -0.0313  0.1750 -0.1853
31543W        W47352   9.031   6.734  12.545 -0.0053 -0.4089 -0.0470
31544W        W47353  17.876  15.748  13.130 -0.1268 -0.1046 -0.0461
31545W        W47354  15.621  11.423   2.957 -0.1095  0.0191 -0.1053
31546W        W47355  16.508  14.872  12.950  0.0618 -0.1888  0.1946
31547W        W47356  13.501   1.829  13.998 -0.2559 -0.0397  0.2207
31548W        W47357  10.208   0.826  12.804 -0.1667  0.0130  0.3749
31549W        W47358   3.590   2.975   2.186 -0.2077  0.2208  0.0162
31550W        W47359  17.995   1.634   2.818 -0.1637  0.1050 -0.2234
31551W        W47360   6.551  11.732   0.612  0.1684 -0.2117 -0.2801
31552W        W47361  11.134   8.178   2.556  0.1121 -0.2157  0.1159
31553W        W47362   6.976   5.844   0.762 -0.2275 -0.1826 -0.4393
31554W        W47363  15.257  14.217   5.277 -0.0080 -0.0191  0.0463
31555W        W47364   9.592   7.435  13.574 -0.1494 -0.0459 -0.0096
31556W        W47365  12.863   5.624  14.539 -0.0200  0.1356 -0.1313
31557W        W47366   2.704  17.792   2.473  0.1238 -0.1461 -0.1940
31558W        W47367  16.660   5.969   3.596 -0.0133  0.2399 -0.2089
31559W        W47368  17.188   5.800   4.742  0.0568  0.2402 -0.1280
31560W        W47369   6.759  17.393  13.111 -0.2204  0.0336  0.2062
31561W        W47370   4.967   9.013   0.536 -0.0919 -0.0813  0.1383
31562W        W47371  16.727  13.823   2.764  0.3618  0.0079 -0.1791
31563W        W47372   6.226   9.990   2.642  0.1872 -0.0301 -0.2285
31564W        W47373  18.224   1.231   3.594 -0.0021 -0.2595 -0.0093
31565W        W47374   7.035  10.921   4.481  0.1490  0.3345 -0.2102
31566W        W47375   0.968  10.483   4.664 -0.2837 -0.3130  0.3784
31567W        W47376  12.370  16.316   5.592 -0.3869 -0.1188 -0.1957
31568W        W47377   6.040   9.155   5.021 -0.2060  0.1258  0.0009
31569W        W47378   1.968  11.167   3.629  0.2262 -0.0808  0.1863
31570W        W47379   0.576  18.853  10.093 -0.1612  0.0334  0.2663
31571W        W47380  13.051   3.466   4.743 -0.1286  0.1259 -0.1932
31572W        W47381  17.477  11.855  13.755  0.0200  0.0629 -0.1257
31573W        W47382   5.698  19.122  10.800 -0.2056  0.3095  0.0248
31574W        W47383   4.264  18.005   1.806 -0.0394 -0.0327 -0.0746
31575W        W47384   8.811   7.508  11.075  0.1726 -0.0671 -0.2593
31576W        W47385   3.024   8.972   2.910  0.0488  0.1596  0.1316
31577W        W47386   0.164  11.643   1.784 -0.2644  0.0446  0.1090
31578W        W47387   7.525   7.726  14.569 -0.2852  0.5160 -0.2220
31579W        W47388   4.873   0.277   5.008  0.2061  0.4616 -0.0947
31580W        W47389   9.879   5.397  12.747 -0.1472 -0.1457 -0.1944
31581W        W47390  16.253   4.019  13.898 -0.0592 -0.1600  0.3000
31582W        W47391   7.550  18.405   1.497  0.5019  0.2139 -0.0303
31583W        W47392   1.408  16.675  10.779 -0.1093  0.0386 -0.2918
31584W        W47393   0.380   3.582   1.116 -0.0853 -0.0230 -0.1646
31585W        W47394   5.459  16.798   2.308  0.1733 -0.1082 -0.3725
31586W        W47395   2.798  16.724  11.258 -0.2644 -0.0684  0.0438
31587W        W47396  13.733  16.554  12.194 -0.0750  0.2233 -0.3911
31588W        W47397  14.544  14.180   0.931  0.0115  0.0822 -0.0669
31589W        W47398  11.223   3.090  10.567 -0.0297 -0.0215  0.1069
31590W        W47399   0.400   7.497  13.123  0.0040 -0.1096 -0.1697
31591W        W47400  18.603  17.570   3.111 -0.0259  0.0095  0.0904
31592W        W47401  10.959   5.970  10.649  0.1489  0.2137  0.0228
31593W        W47402   8.108  10.708   1.524  0.0484  0.2297  0.1040
31594W        W47403   1.853   8.206   2.551  0.1701  0.1697 -0.0858
31595W        W47404  14.174  14.022   0.646  0.0902 -0.0840  0.0631
31596W        W47405  11.641  14.161   3.833 -0.1147 -0.2239  0.3662
31597W        W47406  12.169  13.197  14.939 -0.2768  0.0097 -0.1150
31598W        W47407   9.024  14.140   3.938 -0.0666  0.0875 -0.1430
31599W        W47408   2.203  14.266   4.337  0.2927  0.1661 -0.1108
31600W        W47409  18.261   2.779   2.274  0.3768 -0.0289  0.0856
31601W        W47410   7.203   1.689  10.723  0.1416  0.0025  0.1251
31602W        W47411  13.682  14.485  15.165  0.0531  0.1369  0.2387
31603W        W47412   2.080   6.530   4.670  0.0031 -0.1785  0.3199
31604W        W47413  10.693  15.961  10.592 -0.1491  0.2253 -0.0162
31605W        W47414  11.540   4.356   2.552  0.2436 -0.1519  0.3048
31606W        W47415  15.654   6.292   0.422 -0.1250  0.2141  0.2757
31607W        W47416  14.386  17.913  11.815 -0.1688 -0.0384  0.1454
31608W        W47417   8.798  18.291  13.721 -0.1409  0.3595 -0.2263
31609W        W47418  13.348   4.052  13.604 -0.1178 -0.2583  0.0180
31610W        W47419  14.694  13.412  11.493 -0.2718  0.0261 -0.1847
31611W        W47420  10.731  17.411   3.531 -0.1764 -0.5347  0.2276
31612W        W47421   1.802   6.082  12.716  0.5052 -0.2742 -0.1423
31613W        W47422   8.585  11.640   0.337  0.0519 -0.0563 -0.1820
31614W        W47423   9.883   3.745   2.425 -0.1288 -0.0584  0.0525
31615W        W47424  18.400  12.292   4.516  0.0201 -0.2978 -0.1310
31616W        W47425   2.205   6.180  11.919  0.5315  0.0135 -0.0168
31617W        W47426  10.719   9.567   2.834 -0.1310 -0.0787 -0.0873
31618W        W47427  10.642   5.274  15.028  0.2596  0.1250 -0.0399
31619W        W47428   7.518   0.104   1.830 -0.1110 -0.0882 -0.1853
31620W        W47429   1.189  17.292   4.488  0.0871  0.2996 -0.0358
31621W        W47430   2.587  15.417   1.869  0.0001  0.2264  0.4462
31622W        W47431   3.770  17.159  14.547  0.2839 -0.1781 -0.0182
31623W        W47432   2.883   7.476  13.998 -0.1383 -0.3318 -0.2483
31624W        W47433  13.887  11.965  14.787 -0.2323  0.0352 -0.0642
31625W        W47434   4.075   6.789   4.566  0.2968 -0.2400  0.0427
31626W        W47435   5.043  15.431  10.410  0.0713  0.0309  0.0334
31627W        W47436   1.336  10.868   1.245 -0.0794 -0.2719 -0.3218
31628W        W47437  14.164  14.463  14.877 -0.0722  0.1249  0.0736
31629W        W47438   8.486  17.686  11.897  0.0990  0.1196  0.0225
31630W        W47439   9.030  12.693   1.928 -0.1059  0.1458  0.2081
31631W        W47440   1.230   0.453   2.448  0.4244  0.1514 -0.2230
31632W        W47441  12.344   8.439  12.092  0.1902  0.1134  0.0121
31633W        W47442  12.241   3.694  11.809 -0.4090  0.2351 -0.2486
31634W        W47443  12.063  18.720   4.084 -0.0440 -0.2251  0.1870
31635W        W47444   2.586  13.833   0.819  0.1897  0.0711  0.0281
31636W        W47445  16.123  10.840   3.544  0.2462  0.0648  0.1626
31637W        W47446   8.134  14.873  11.199 -0.0652 -0.3711  0.2015
31638W        W47447  17.931  16.385   4.112 -0.2191 -0.1517  0.1310
31639W        W47448  11.565   2.726   3.498 -0.3749 -0.1339 -0.0769
31640W        W47449  16.391  15.221   1.871 -0.0356 -0.1039 -0.0084
31641W        W47450  15.423  18.867   3.543 -0.2074  0.1698 -0.1947
31642W        W47451   1.618  14.752   2.950  0.0596  0.0289  0.0632
31643W        W47452   4.056  16.261  14.386  0.1665 -0.0926  0.0337
31644W        W47453  17.507   6.549  11.411  0.0213  0.2755  0.1049
31645W        W47454   0.946   5.516  14.532 -0.3787 -0.0201  0.0498
31646W        W47455   3.009   0.648   1.398  0.0633 -0.3285  0.0145
31647W        W47456  16.874   7.617  11.032 -0.0034 -0.0250  0.2673
31648W        W47457  17.448  12.753   1.742 -0.1126 -0.1573  0.2530
31649W        W47458   5.168   0.662  11.909 -0.2206  0.1718  0.1047
31650W        W47459  14.651  10.754   2.312 -0.1067  0.1920 -0.1851
31651W        W47460   2.383   3.229   2.876 -0.4226 -0.1264 -0.0890
31652W        W47461  13.430  17.496   1.285  0.0323  0.0964  0.4186
31653W        W47462   8.338   1.439  12.309 -0.0416 -0.2955 -0.0331
31654W        W47463   5.433  14.430  13.089  0.2534 -0.1822 -0.2502
31655W        W47464  12.731   9.094   3.341  0.1460  0.0014  0.1417
31656W        W47465  12.694   9.564   4.537 -0.0027  0.0196 -0.0168
31657W        W47466   3.279   1.776   0.262 -0.1798  0.0945 -0.0369
31658W        W47467  15.615  17.278   1.060  0.2290 -0.1784  0.1073
31659W        W47468  11.109  11.431  10.595  0.2691 -0.2030 -0.0493
31660W        W47469   9.510  15.670  14.508  0.3502  0.0389 -0.1021
31661W        W47470  18.832  16.216   1.308 -0.1837 -0.0031 -0.1045
31662W        W47471   3.543   1.611  14.702 -0.4027  0.1630 -0.1860
31663W        W47472   1.514  18.731   2.166  0.2484  0.0161 -0.0551
31664W        W47473   2.926   9.813  11.728  0.0965  0.2441  0.0263
31665W        W47474  10.639  12.163   3.250  0.2317 -0.1018 -0.1640
31666W        W47475  19.022  16.827   3.463 -0.1364 -0.0553 -0.2647
31667W        W47476   7.210   6.899  10.507 -0.1824 -0.2742  0.4900
31668W        W47477  11.028  17.272   0.753 -0.0556  0.0307 -0.2184
31669W        W47478  10.414  14.532  11.535  0.1306  0.0998 -0.0320
31670W        W47479   7.783  18.681   4.274  0.1117 -0.2702  0.0585
31671W        W47480   2.360  15.021  14.998  0.4624  0.1906 -0.0922
31672W        W47481  18.328  11.511  11.546 -0.1961 -0.1219 -0.0272
31673W        W47482   2.722   3.271  15.053  0.2288 -0.0092 -0.2325
31674W        W47483  16.520  14.345  12.363  0.2160 -0.0823 -0.0626
31675W        W47484  14.919  14.846   5.113  0.1710  0.1776 -0.0601
31676W        W47485   9.059  10.094  14.691 -0.1239  0.0596 -0.0638
31677W        W47486   4.873   0.515   1.282  0.0478  0.1473 -0.0314
31678W        W47487   4.809   2.219  12.230 -0.1936 -0.1143 -0.1160
31679W        W47488  14.238   8.965  12.445  0.0483 -0.0472 -0.1126
31680W        W47489   4.351  10.591  14.514 -0.2070 -0.0752  0.1877
31681W        W47490  15.288   9.578   4.882 -0.2550 -0.0932  0.0454
31682W        W47491  18.688   9.523  11.514 -0.1821  0.0708 -0.0616
31683W        W47492  15.297   6.796   2.954 -0.0550  0.0224 -0.1148
31684W        W47493   0.741  15.850  14.072  0.1600 -0.2348 -0.2665
31685W        W47494   2.455  12.907   0.865 -0.0688  0.2990 -0.0720
31686W        W47495  12.118   2.428   4.855 -0.2102 -0.0009  0.1505
31687W        W47496  15.780   6.329  13.437 -0.1999  0.1085  0.1847
31688W        W47497   0.333   2.899  13.652 -0.4846  0.1485 -0.3227
31689W        W47498  13.075   9.604  10.588  0.0998 -0.1025 -0.3300
31690W        W47499   4.281  11.509  15.128  0.1529 -0.0156  0.0035
31691W        W47500   9.987  17.396  10.500 -0.0292  0.1519 -0.0862
31692W        W47501  18.244   1.390   1.976 -0.1247 -0.0058  0.0975
31693W        W47502   4.720   9.261   0.120 -0.0037  0.0613  0.0211
31694W        W47503  14.622  13.289   2.008  0.0872  0.0232  0.1674
31695W        W47504   5.285  17.768  12.439  0.1061  0.0913 -0.0335
31696W        W47505   7.994  13.274  14.874 -0.3015  0.3351 -0.1571
31697W        W47506  18.387  11.680  12.363 -0.1047 -0.3029 -0.1661
31698W        W47507  14.371   0.578   3.360 -0.1011  0.1094 -0.2572
31699W        W47508   5.640  17.348  14.564  0.1023 -0.1593 -0.0446
31700W        W47509  10.913   7.024  12.652  0.1418  0.0686 -0.3329
31701W        W47510  13.735   3.955  10.885 -0.1269  0.2668  0.3935
31702W        W47511  12.614  11.957  14.525 -0.1421  0.0540  0.1741
31703W        W47512  17.084   1.589  13.663  0.5714 -0.1184  0.2713
31704W        W47513  18.149  14.441   2.825  0.1603 -0.0223  0.0040
31705W        W47514  16.619  16.641  12.256  0.1542 -0.2312 -0.0948
31706W        W47515  17.691  13.040  12.204 -0.3178  0.0715 -0.1037
31707W        W47516   2.375  11.555   1.445  0.0643 -0.4810  0.1779
31708W        W47517   2.137  16.786  11.046 -0.2482  0.3345 -0.1705
31709W        W47518  12.632  10.886  13.930  0.3166  0.4558  0.0427
31710W        W47519  18.156  12.628  14.138 -0.0450  0.1911  0.2041
31711W        W47520   9.489   3.996  13.055 -0.0078  0.1369  0.3126
31712W        W47521   7.988   2.987  10.591  0.0417 -0.3238  0.0478
31713W        W47522  15.937   4.777  13.194  0.1484  0.1043  0.1423
31714W        W47523   1.997  14.793  13.493  0.1499 -0.0234  0.0756
31715W        W47524  17.502   7.517   2.642 -0.0588  0.0924  0.1170
31716W        W47525   7.742  12.040  15.158  0.2867 -0.0560 -0.0617
31717W        W47526  15.834  15.064  14.462  0.0347 -0.3594 -0.0511
31718W        W47527  18.514   3.125  10.345  0.1321 -0.0909 -0.1894
31719W        W47528   6.729  11.307   1.848 -0.3492  0.2025  0.1745
31720W        W47529   1.382  18.161   3.999  0.2086  0.0486 -0.0688
31721W        W47530   8.434  11.554   2.603 -0.1300 -0.1135 -0.0224
31722W        W47531   8.231  18.440  11.557 -0.0737 -0.0073 -0.2913
31723W        W47532   3.698  19.079   2.942  0.0864  0.3515 -0.0160
31724W        W47533   1.407  15.254   3.302  0.0541 -0.2769 -0.0965
31725W        W47534  16.906  11.557   3.100 -0.0408 -0.1289  0.0115
31726W        W47535  18.788  10.939  12.003 -0.0836 -0.2346 -0.0326
31727W        W47536  14.548  10.033   0.590  0.0517  0.2985 -0.0194
31728W        W47537   8.055  15.448   4.346 -0.1097  0.0265 -0.1600
31729W        W47538  15.764  13.415  11.022 -0.1783  0.2401  0.1915
31730W        W47539   6.695   3.419   3.123  0.1722  0.0415 -0.1828
31731W        W47540   2.649  11.602  12.543  0.0910 -0.0409  0.1695
31732W        W47541   6.992   7.248  10.969  0.2409 -0.0620 -0.0513
31733W        W47542   8.333   4.569   2.649 -0.0753 -0.1346  0.1882
31734W        W47543   3.405  15.351   2.716  0.0684 -0.1187  0.2361
31735W        W47544  18.452  17.359  12.758  0.3922 -0.3462 -0.1993
31736W        W47545  16.351  10.281  12.947  0.2962 -0.0763 -0.0923
31737W        W47546   0.986  11.804  12.860  0.0222  0.2615 -0.0052
31738W        W47547   6.698  10.260  12.541  0.0003  0.0503  0.0428
31739W        W47548  17.425  11.972  13.288  0.1007  0.4212  0.0602
31740W        W47549   6.581  12.601  14.045  0.0892 -0.1076  0.2049
31741W        W47550  15.779   2.817  11.171 -0.2474 -0.2498  0.1229
31742W        W47551  11.641   9.377   9.891 -0.1041  0.0659  0.0523
31743W        W47552  13.325  13.296  13.225 -0.2729 -0.2012  0.0073
31744W        W47553  15.807  14.950   2.348 -0.1343 -0.0413 -0.2424
31745W        W47554  11.622  14.258  13.090 -0.2655 -0.2266 -0.0475
31746W        W47555   2.928  12.836  14.405  0.0213 -0.4302 -0.1421
31747W        W47556   8.238  16.838   4.229  0.0359 -0.1551  0.2837
31748W        W47557   0.950  10.609  11.650 -0.0971 -0.1336  0.0198
31749W        W47558   9.706  14.000   2.193 -0.1668  0.2739  0.2591
31750W        W47559   6.613   0.233   4.846 -0.0843  0.1932  0.2048
31751W        W47560  15.601  10.415  11.840  0.1967  0.1912 -0.3014
31752W        W47561   7.921  18.421   2.563  0.0603  0.2298 -0.0683
31753W        W47562   3.220  14.920  12.699 -0.5661  0.1384 -0.0246
31754W        W47563  15.166   6.444   4.183 -0.2473 -0.2189  0.3104
31755W        W47564   6.243  12.319  10.916 -0.3700 -0.0712 -0.0656
31756W        W47565   5.130  16.063   0.826  0.1902 -0.2376 -0.1649
31757W        W47566  12.173  14.827  14.544 -0.0612  0.0391 -0.1647
31758W        W47567  17.852  11.416   4.021  0.4228 -0.0379 -0.0722
31759W        W47568   3.980  11.112   4.514  0.2633 -0.0427 -0.2152
31760W        W47569  16.624  14.188   0.468  0.4099  0.3189  0.0131
31761W        W47570  15.192   9.053   2.680 -0.1620  0.1204  0.3799
31762W        W47571   1.128   7.847   4.195  0.0839 -0.0281  0.1708
31763W        W47572  10.447  17.998   2.968 -0.0477  0.0717 -0.1795
31764W        W47573   4.589   0.981  13.515 -0.0432  0.4289 -0.0660
31765W        W47574   4.575   9.682   1.373 -0.0629  0.0869  0.2830
31766W        W47575   4.035  12.383   0.345 -0.4634  0.2359 -0.1335
31767W        W47576  13.316  16.573  13.395 -0.0938  0.0689 -0.0441
31768W        W47577  18.580   2.083  11.593  0.1179 -0.1192 -0.2169
31769W        W47578  12.352  18.082   4.235 -0.0045 -0.3512  0.1075
31770W        W47579   2.514   6.758  13.117 -0.2320  0.0094 -0.1064
31771W        W47580  19.033  14.329  10.912 -0.0608  0.0606  0.0038
31772W        W47581   0.260   8.340   3.506  0.1630  0.2925  0.1172
31773W        W47582  10.734  17.992   2.387  0.3329 -0.1436  0.5221
31774W        W47583   1.586   9.250  14.331  0.1292  0.1422  0.2615
31775W        W47584  10.741   0.645   4.914  0.2059 -0.1339  0.3065
31776W        W47585   1.744   1.517  14.905 -0.2603  0.2412  0.0364
31777W        W47586   1.088  17.698  14.709  0.0635 -0.1206 -0.0306
31778W        W47587  10.773  11.773  10.845  0.0657 -0.1728  0.1339
31779W        W47588   5.505  11.884  10.824  0.0036 -0.0791 -0.1098
31780W        W47589   6.691  14.078  14.971  0.0436  0.0738 -0.0953
31781W        W47590   6.080  10.500   3.764  0.0949 -0.0907  0.3289
31782W        W47591   9.606  11.122   1.773 -0.2566 -0.0495 -0.0941
31783W        W47592  18.310  13.533  10.468  0.0683 -0.0560 -0.3072
31784W        W47593   2.368  10.226   3.541 -0.0789 -0.2023  0.1562
31785W        W47594  13.228   6.805  12.541 -0.0747 -0.3131 -0.2881
31786W        W47595  15.912   4.332  13.057 -0.2113  0.2543  0.1150
31787W        W47596  13.280   4.277   2.125 -0.1148 -0.1038  0.1142
31788W        W47597   7.608  18.598   0.827  0.0397  0.2229 -0.2392
31789W        W47598  14.144   9.152   2.908  0.1848 -0.0149  0.0242
31790W        W47599  16.485   1.472   3.353  0.1046 -0.1520 -0.0714
31791W        W47600  18.955  15.302  13.082 -0.1828  0.1054 -0.1557
31792W        W47601   3.790  17.847  13.567 -0.3319  0.1800  0.5477
31793W        W47602   7.514   9.928  11.700  0.2621  0.1410  0.3413
31794W        W47603   8.242  10.758   2.501 -0.0717  0.2045  0.3651
31795W        W47604   1.676   8.930  11.464  0.3828 -0.0864 -0.1439
31796W        W47605  10.890   3.688   2.672  0.2061  0.0876  0.1779
31797W        W47606  16.288   5.804   2.296 -0.0896 -0.0355  0.0217
31798W        W47607  15.981  15.943  11.076  0.0215 -0.3834  0.1666
31799W        W47608  10.926   5.995   4.696  0.0736  0.3642 -0.0190
31800W        W47609  10.352   9.326   4.220 -0.3838  0.0400 -0.0687
31801W        W47610   4.163   6.591   5.414  0.0428 -0.0237 -0.4744
31802W        W47611   1.365  17.378  15.206  0.0789  0.3578 -0.2518
31803W        W47612   5.988   7.435  10.838  0.4259  0.0618  0.0140
31804W        W47613  12.191  10.372   2.804 -0.0884  0.0087 -0.3806
31805W        W47614   7.276   2.062  12.358  0.0634 -0.0117 -0.3248
31806W        W47615   4.569   5.897   1.635 -0.1644  0.1633  0.3034
31807W        W47616   5.532   5.454   0.828  0.1129 -0.0955 -0.0573
31808W        W47617   1.143  15.376  14.945 -0.0211 -0.2139  0.1278
31809W        W47618  15.813   2.862   4.114 -0.1193 -0.1361  0.4373
31810W        W47619   8.187  16.962   2.556 -0.0973  0.4113  0.2281
31811W        W47620  10.881  14.548  14.092 -0.1136 -0.1166  0.1694
31812W        W47621   5.091   9.624  13.390 -0.0249  0.1517  0.0530
31813W        W47622   6.754   5.220   0.088  0.3182 -0.0848 -0.0818
31814W        W47623  16.551   7.579   1.099 -0.4478  0.0966 -0.1603
31815W        W47624  16.416  12.875   1.984  0.0314  0.2713 -0.1427
31816W        W47625   4.537   8.481  13.183 -0.1384  0.1704  0.0605
31817W        W47626   4.304   5.315  13.071 -0.0695 -0.1098  0.0954
31818W        W47627  15.015  10.493   5.039  0.0665 -0.0318  0.1877
31819W        W47628  14.011   4.636  14.723 -0.2193 -0.3600 -0.5093
31820W        W47629   6.560   7.522   4.854  0.0548  0.1289 -0.0829
31821W        W47630   6.556  14.666  14.773  0.0412  0.0634  0.3384
31822W        W47631   8.729   5.379   4.443 -0.0172  0.0258  0.1327
31823W        W47632  15.397  15.507   4.060  0.0335  0.3696  0.0314
31824W        W47633   6.378   4.716  12.781 -0.3219  0.1672  0.0464
31825W        W47634  14.992  16.348  13.341  0.2515 -0.1361 -0.1182
31826W        W47635   3.477  17.205   5.722  0.1498  0.5508  0.1161
31827W        W47636  13.728  14.464  13.180  0.2496  0.2257 -0.0118
31828W        W47637   4.964   7.232   3.078 -0.0717  0.2915 -0.2306
31829W        W47638   2.121  16.155  12.825 -0.1790 -0.3376 -0.0846
31830W        W47639  18.125  18.848   1.373  0.3134 -0.3279  0.1433
31831W        W47640  16.804  14.910   0.462  0.1503 -0.0423 -0.1987
31832W        W47641  18.285   0.966  12.237  0.2450  0.0319 -0.0674
31833W        W47642  13.718   0.532  15.129 -0.6307  0.0718  0.1255
31834W        W47643   4.753  16.360  10.383 -0.2005 -0.4297  0.0251
31835W        W47644   6.017  11.352   2.088 -0.2500 -0.0935  0.1594
31836W        W47645  11.319   3.612  13.890 -0.1842 -0.0144  0.2088
31837W        W47646  17.247   3.650   2.975 -0.1045  0.2575 -0.1857
31838W        W47647  12.258   2.820   2.318 -0.3164 -0.1863  0.1934
31839W        W47648  16.360   3.867  13.295  0.1982 -0.0621  0.1206
31840W        W47649   2.484  18.855   0.122 -0.5748  0.1904  0.1075
31841W        W47650  10.906   5.533   0.977 -0.2494 -0.0969 -0.1332
31842W        W47651  13.954   7.963  12.409  0.1693  0.1951 -0.3352
31843W        W47652   5.751   6.898   2.705 -0.2129  0.1894 -0.0794
31844W        W47653   3.274   3.521  13.781  0.3795  0.1704  0.1320
31845W        W47654   7.854  12.015   1.191 -0.1335 -0.1629  0.0930
31846W        W47655   6.243   6.384  14.564 -0.0405  0.0446  0.1552
31847W        W47656   1.132   5.056   4.861  0.2562  0.1340 -0.0870
31848W        W47657   3.006   5.437   3.707  0.1920 -0.4552  0.0438
31849W        W47658  16.184  13.912  14.118  0.1771 -0.3050  0.0418
31850W        W47659   9.106   8.010   0.924  0.3100  0.0204 -0.0560
31851W        W47660   0.747  11.199   5.528  0.2011 -0.0736  0.1008
31852W        W47661  15.511  18.263   4.375 -0.0399 -0.0692  0.0291
31853W        W47662  13.320   7.138   1.200  0.0699  0.5537  0.0611
31854W        W47663   9.158  10.110  13.200  0.2466  0.0020  0.1294
31855W        W47664   1.104   8.018  11.524  0.2236 -0.0543 -0.1938
31856W        W47665  12.928   7.552   0.531 -0.1137 -0.1736 -0.1524
31857W        W47666   1.807  10.662  12.880  0.2782  0.1625  0.1997
31858W        W47667  12.405  16.936   5.133 -0.1482  0.0207  0.3790
31859W        W47668   6.325  16.763  14.641  0.2715  0.0748  0.0493
31860W        W47669  11.990  14.378   0.915  0.0907 -0.1127  0.7029
31861W        W47670   8.400  13.969   1.116 -0.0524 -0.4305  0.3326
31862W        W47671  15.751   4.385   2.495  0.1368 -0.1449  0.0105
31863W        W47672  15.891   5.744  11.235 -0.1131  0.2623  0.0715
31864W        W47673  10.594   5.849  12.829 -0.1240 -0.2015 -0.2932
31865W        W47674   0.262  10.281  14.637 -0.0253  0.1802  0.0883
31866W        W47675   8.769  16.803  14.136  0.0675  0.2901 -0.0184
31867W        W47676  12.436  18.936   3.886 -0.1760 -0.1798  0.3714
31868W        W47677  17.658   3.883  14.039 -0.2520  0.2672 -0.2165
31869W        W47678  13.983   8.385  10.540 -0.2435  0.1320  0.0968
31870W        W47679  14.849   7.741  12.080  0.0624  0.1990 -0.1781
31871W        W47680   4.024   3.487   2.573  0.2073 -0.0516 -0.1016
31872W        W47681  16.254  12.385   2.175 -0.1373 -0.1488 -0.3009
31873W        W47682  18.084  17.561   4.522 -0.0660 -0.0744 -0.2101
31874W        W47683  17.446  15.005  13.500  0.1535 -0.1114 -0.0073
31875W        W47684  10.329  15.066  13.387  0.0810 -0.0574  0.1834
31876W        W47685   9.214  13.012   0.408  0.2524 -0.1864  0.1215
31877W        W47686   1.881  17.240  14.018 -0.0917  0.0198  0.0311
31878W        W47687  14.290  15.787  12.805  0.1498  0.0863 -0.0959
31879W        W47688  15.334   3.777  14.233 -0.3640  0.1411  0.1381
31880W        W47689   3.065  17.953   0.362  0.0182  0.1827 -0.2481
31881W        W47690   6.247   0.981  10.823 -0.0280 -0.2309 -0.1190
31882W        W47691   5.484   9.040   5.289  0.1523 -0.0788  0.1760
31883W        W47692  14.188  18.876   4.413 -0.2254  0.1810  0.1686
31884W        W47693   5.665  12.214  13.831 -0.0906  0.0857  0.0272
31885W        W47694   5.444   4.944   2.019  0.0266  0.2383 -0.0209
31886W        W47695   0.143   8.047  12.570 -0.1993  0.0406  0.2128
31887W        W47696  14.674  14.149   0.422  0.5518  0.2879 -0.1235
31888W        W47697   0.563   2.299  13.891 -0.1168 -0.1487 -0.0168
31889W        W47698  11.543   5.139   0.862  0.3050 -0.1095  0.1601
31890W        W47699   1.691  12.636   0.305  0.0834 -0.0324  0.0351
31891W        W47700   8.711   5.824   3.075  0.2495  0.2476  0.4141
31892W        W47701   1.919   8.173   0.129 -0.3857 -0.0607 -0.2124
31893W        W47702   5.619   9.944   5.133  0.0962 -0.0885  0.3732
31894W        W47703  11.289   2.764  15.240 -0.1263 -0.2301  0.0930
31895W        W47704   1.516   1.261   0.911  0.0309 -0.1015 -0.0498
31896W        W47705  12.015   3.553  14.958 -0.2022 -0.0088 -0.2851
31897W        W47706   2.775   3.550   0.788 -0.1638  0.2868 -0.0790
31898W        W47707  13.358  12.804   4.687  0.0611 -0.4251  0.1113
31899W        W47708  14.487   3.418   3.615  0.1637 -0.1901 -0.0290
31900W        W47709   3.704  16.829  14.996  0.0707 -0.1081  0.0446
31901W        W47710  15.865  14.458  13.061  0.2251 -0.3979 -0.0789
31902W        W47711   6.226   4.776  10.472  0.1337  0.0597  0.2454
31903W        W47712  16.491  12.135  10.703 -0.1466  0.1455  0.0933
31904W        W47713  18.671  13.507  12.717  0.0742 -0.0908 -0.0131
31905W        W47714   0.585   1.742   1.653 -0.1696 -0.0564  0.2582
31906W        W47715  16.945  17.483   0.839 -0.1259 -0.1142 -0.1968
31907W        W47716  17.641  16.883   4.175  0.1012  0.0685 -0.4896
31908W        W47717   7.303   9.544  11.978  0.1476  0.1037 -0.0423
31909W        W47718   7.327  14.056   4.960 -0.2381  0.2429  0.2802
31910W        W47719   0.849  19.068  12.703 -0.0842 -0.0282 -0.0780
31911W        W47720  16.098  15.303   4.831  0.0134 -0.0168 -0.2951
31912W        W47721  13.530   8.362  13.442  0.1043  0.1056 -0.2887
31913W        W47722   4.463   4.617   2.072  0.0659  0.2546 -0.1200
31914W        W47723  13.625   7.978   0.790  0.1961  0.1512  0.0689
31915W        W47724  11.045   6.377   0.042 -0.0044 -0.2227 -0.1854
31916W        W47725  18.971   2.653  12.749 -0.0949 -0.1607 -0.0284
31917W        W47726  18.346   8.193   4.502  0.1008 -0.2074  0.1190
31918W        W47727  17.253   3.132   0.413 -0.0796 -0.1356 -0.0966
31919W        W47728  17.894  13.018  10.651  0.2671  0.0169 -0.1048
31920W        W47729  18.170  15.854   3.514  0.0155 -0.1276  0.3318
31921W        W47730  16.075  13.677  12.464 -0.1394 -0.1690 -0.1120
31922W        W47731  11.635   8.585   1.070  0.2676 -0.2873  0.1839
31923W        W47732  12.439   7.221   4.136  0.0879 -0.3415  0.1233
31924W        W47733  17.830  16.229   2.987 -0.1720  0.1605  0.2181
31925W        W47734   9.268   5.201  10.682  0.0058 -0.0374  0.0737
31926W        W47735   4.658   9.117   1.388 -0.2964 -0.3123 -0.0925
31927W        W47736   1.332  16.079   2.388  0.0975  0.1378 -0.2852
31928W        W47737   3.963   8.710  11.110 -0.1010 -0.2102  0.2396
31929W        W47738   5.868  11.055   3.642  0.1276 -0.0518  0.0667
31930W        W47739  14.987   5.342  13.215  0.2039 -0.1658 -0.2106
31931W        W47740   7.585  12.474   1.122 -0.3384 -0.0798  0.1113
31932W        W47741   9.900   1.544  13.996 -0.1885  0.1714  0.0733
31933W        W47742  11.386  13.012   1.257  0.4046 -0.0411 -0.2470
31934W        W47743  16.814   1.529   3.781  0.1648 -0.2948  0.1194
31935W        W47744   3.175   2.572   1.378  0.1279  0.0012 -0.0518
31936W        W47745   6.267  17.361  13.880 -0.1180 -0.0867  0.5373
31937W        W47746  15.189  10.479   0.276 -0.2674 -0.0298 -0.0346
31938W        W47747   6.274   2.066  14.154  0.4949  0.3513 -0.0765
31939W        W47748  17.632   0.395  14.708  0.0432 -0.1516 -0.0136
31940W        W47749   3.589  17.513  11.238  0.4404 -0.2963 -0.2073
31941W        W47750  13.941  12.145   3.737  0.0151  0.1509  0.3063
31942W        W47751   9.843  12.063   0.221 -0.0050  0.2936  0.2214
31943W        W47752  12.096  16.238  15.194 -0.0461 -0.1832 -0.1903
31944W        W47753   1.665   5.121   0.866 -0.0495  0.0638  0.0451
31945W        W47754   3.907  18.320   2.744  0.2792  0.1558  0.2408
31946W        W47755   2.077   6.657   1.121 -0.0327 -0.0051 -0.2650
31947W        W47756   7.099   2.729   0.343  0.4539 -0.0010  0.1578
31948W        W47757   3.290  16.686  11.913  0.0518 -0.0310 -0.2526
31949W        W47758   5.614   2.282   9.762 -0.0914  0.5166 -0.1369
31950W        W47759   7.246  18.725   2.932 -0.0473  0.2967 -0.0895
31951W        W47760   5.948  11.357   1.232 -0.1773 -0.0725 -0.0284
31952W        W47761   3.485   8.006  12.554  0.0189  0.1626 -0.3322
31953W        W47762  13.155  17.483  13.910  0.3531 -0.3066  0.2892
31954W        W47763   1.198   7.715   4.895 -0.2351 -0.0786  0.1814
31955W        W47764   2.087   1.146  11.931  0.1449  0.1354  0.1736
31956W        W47765  10.691   4.388   2.128  0.1722 -0.2810  0.1411
31957W        W47766   2.127   4.279   3.005  0.2636  0.0797 -0.0845
31958W        W47767  17.036   0.870   4.342 -0.0774 -0.0027 -0.3691
31959W        W47768   2.066  13.308  12.401 -0.0554 -0.0730  0.1764
31960W        W47769  12.502   4.538  13.154 -0.0094  0.0901 -0.0313
31961W        W47770   9.125  16.915   5.591 -0.0656 -0.0737 -0.0042
31962W        W47771   1.809  18.802  11.464 -0.2101 -0.3930  0.1244
31963W        W47772   3.372   8.869   0.997 -0.0120  0.0382 -0.2707
31964W        W47773  18.241  16.022   4.396  0.1313 -0.1516  0.0817
31965W        W47774   4.657   8.114  14.511  0.0808  0.0608 -0.0886
31966W        W47775   2.132  18.049  12.363 -0.1305  0.1051 -0.4804
31967W        W47776   1.503  18.145  14.064 -0.0846 -0.0816 -0.3754
31968W        W47777  16.245   4.568  14.664 -0.1356 -0.0501 -0.1782
31969W        W47778   1.464   5.864  12.251 -0.0983  0.0093  0.3288
31970W        W47779   9.517  10.430  13.014  0.0689 -0.1528  0.0610
31971W        W47780   4.224  12.760  13.327 -0.2994 -0.1527  0.0577
31972W        W47781  16.953   7.540   0.829 -0.2363 -0.0557 -0.2034
31973W        W47782  14.489  10.728  13.040  0.0932 -0.0060  0.0774
31974W        W47783   4.680   4.144   3.391 -0.0031  0.0054 -0.1562
31975W        W47784   5.004  16.789   9.095 -0.2785 -0.1876 -0.1313
31976W        W47785  11.621  17.140  11.434  0.0881  0.1692 -0.1824
31977W        W47786  16.091   2.531   2.865 -0.2573 -0.1095  0.0551
31978W        W47787   4.488   0.954   3.269 -0.0134  0.2654  0.2790
31979W        W47788   2.247   2.029  14.744  0.3769  0.1832  0.0917
31980W        W47789   5.856  11.296   2.596  0.0258  0.2147 -0.1433
31981W        W47790   9.322   3.241  14.266  0.0307 -0.2188 -0.0996
31982W        W47791   6.864  12.393  13.121 -0.0613 -0.1964  0.2530
31983W        W47792  18.740   5.858  12.792 -0.1758 -0.0337  0.2661
31984W        W47793  13.757  18.428   4.703  0.4416 -0.2992  0.2030
31985W        W47794  16.120  12.184   5.450  0.2207  0.2148 -0.0933
31986W        W47795   0.001  13.318   3.835 -0.1184  0.1163 -0.0268
31987W        W47796   8.638   4.555   0.996  0.0406 -0.1137 -0.2891
31988W        W47797  16.224   4.195  11.014 -0.2580 -0.0429  0.2490
31989W        W47798  18.469  17.946   1.401 -0.0912  0.2753 -0.1779
31990W        W47799   7.871   4.426  14.676 -0.0039  0.1710  0.0941
31991W        W47800  18.133  17.281   4.973 -0.2016 -0.0098 -0.2342
31992W        W47801  18.458  18.412   1.240 -0.1068 -0.2288  0.1413
31993W        W47802  17.893  13.946   3.279 -0.0451 -0.1236 -0.3778
31994W        W47803   5.209   1.725  11.188  0.0754 -0.3278 -0.0922
31995W        W47804  15.706  16.838  11.637  0.0824  0.2829 -0.4695
31996W        W47805   0.324  15.532   3.885 -0.1451  0.0541  0.1379
31997W        W47806  18.225   9.747   1.285 -0.0282 -0.2034  0.0459
31998W        W47807  11.658   3.055  12.201 -0.0648 -0.1081  0.4168
31999W        W47808   5.174   5.394  14.069  0.1380 -0.3349 -0.0743
32000W        W47809  13.810  17.984  14.971 -0.1872 -0.4652  0.2157
32001W        W47810  10.824   9.235  10.989 -0.0768  0.1331 -0.0230
32002W        W47811  18.343   3.710  12.345 -0.2465  0.2097  0.0971
32003W        W47812  13.883   7.143  12.844  0.0686 -0.1337 -0.0050
32004W        W47813  12.121  16.287   4.256 -0.1529  0.2060 -0.2633
32005W        W47814   4.360  13.356  13.975  0.2204 -0.0002  0.2012
32006W        W47815   1.884   3.572  13.379 -0.0551  0.0608 -0.2282
32007W        W47816  12.795  17.351   1.586  0.0292 -0.2806  0.2303
32008W        W47817  13.500   6.333  10.811  0.1229  0.0485 -0.1698
32009W        W47818   3.958  16.537  12.785 -0.2827 -0.0213  0.2064
32010W        W47819  13.530  17.295  10.854 -0.0569  0.1229 -0.0050
32011W        W47820  14.623  16.744   3.220  0.3653 -0.0767  0.1160
32012W        W47821  13.847  17.797   2.997  0.0164  0.0775  0.1931
32013W        W47822   8.280  12.205   2.180  0.0627 -0.1224 -0.1987
32014W        W47823   5.754   0.054  13.861 -0.0869 -0.0287  0.0084
32015W        W47824  17.101  18.741   3.501  0.0912 -0.1419  0.3024
32016W        W47825  13.200   7.257  11.801  0.2438  0.2397  0.1560
32017W        W47826  18.478   6.652   4.516 -0.2837 -0.2402  0.0250
32018W        W47827   7.100  10.487   3.362  0.2984  0.0060  0.1738
32019W        W47828   8.139   7.277   4.631 -0.0362  0.2720  0.1862
32020W        W47829  18.468   9.050   4.463 -0.0646 -0.1047 -0.0773
32021W        W47830   3.049   1.866  14.368  0.0831 -0.0028 -0.2332
32022W        W47831  15.084   7.100   2.602  0.3623 -0.3210 -0.2865
32023W        W47832  17.511  17.198  14.562  0.1102 -0.3168  0.4034
32024W        W47833   9.558   3.788  10.001 -0.0669 -0.3223 -0.0435
32025W        W47834   7.234   2.534  14.100  0.1857 -0.1639 -0.0932
32026W        W47835  14.540   9.027  10.713  0.1862 -0.3065  0.2606
32027W        W47836   1.320  17.559   2.671  0.0892  0.0677 -0.2383
32028W        W47837  14.227   2.023   4.972 -0.2208 -0.0360 -0.0634
32029W        W47838  17.076   9.247  14.490 -0.0556 -0.1142  0.3225
32030W        W47839  18.654  18.974   1.884 -0.3222  0.1091  0.0621
32031W        W47840   4.602   3.294   3.379 -0.1449 -0.0015  0.1187
32032W        W47841  13.993  18.225  13.436  0.0268 -0.2531  0.0359
32033W        W47842  18.977  16.066  13.694  0.6060  0.1241 -0.0745
32034W        W47843   3.639  18.817  12.595 -0.0754 -0.3160  0.1357
32035W        W47844   2.340   5.890  13.371 -0.1322  0.0195  0.0697
32036W        W47845   7.195  13.317  11.850  0.1266  0.2950 -0.1816
32037W        W47846   2.527   7.910   4.670  0.1373  0.0775 -0.0401
32038W        W47847   8.407   9.121  10.189 -0.0246 -0.2347 -0.0185
32039W        W47848  14.300   7.602  12.121  0.3229  0.1051 -0.0156
32040W        W47849   6.798  12.339  10.913 -0.0522 -0.2382 -0.2136
32041W        W47850  18.688  12.430   2.766 -0.2077 -0.2567  0.1569
32042W        W47851   4.782   9.933  13.664  0.5012  0.1345  0.0399
32043W        W47852  13.332   5.765   5.383  0.0374 -0.3223  0.2436
32044W        W47853   3.373   0.391   1.069 -0.0995  0.0208 -0.0895
32045W        W47854  16.965   8.022  13.754  0.0167  0.0127  0.0832
32046W        W47855   1.356   9.394  11.793 -0.1288 -0.5501  0.5527
32047W        W47856   8.378   9.447   5.029 -0.0586 -0.1349 -0.0057
32048W        W47857  11.648   2.701   1.580 -0.1515  0.1054 -0.1724
32049W        W47858  10.696   8.052  12.940 -0.1515  0.1900  0.0618
32050W        W47859   2.592  18.330   0.280 -0.0594  0.1124  0.0791
32051W        W47860   4.251   9.527   5.847  0.2087 -0.1759  0.0733
32052W        W47861   6.358  15.802   0.381  0.2472  0.1037 -0.0562
32053W        W47862  11.486   8.707   2.955 -0.0202 -0.1516 -0.1881
32054W        W47863   2.062   3.928   2.560  0.0615 -0.1286 -0.0395
32055W        W47864   3.653  15.173  12.726  0.1658 -0.2186 -0.1697
32056W        W47865  10.404  16.023  12.471 -0.0957  0.1104  0.3765
32057W        W47866   3.883   9.154   3.160 -0.1158 -0.0551  0.0436
32058W        W47867   9.218  15.990   4.656  0.0383 -0.1929  0.2330
32059W        W47868  14.695  11.529   4.311 -0.2016 -0.1652 -0.3202
32060W        W47869  18.903   2.097   1.910  0.0217  0.1302 -0.0587
32061W        W47870  14.881  16.912   0.891  0.1235 -0.0640  0.0893
32062W        W47871   5.109  13.323  13.327 -0.1510 -0.2945  0.1851
32063W        W47872  13.733  15.229  10.878  0.0826 -0.0120  0.1130
32064W        W47873  12.283   0.172   3.567 -0.3423  0.2619  0.0887
32065W        W47874  14.608  14.635  14.773 -0.3129  0.0539  0.0871
32066W        W47875   0.270  17.909  11.007 -0.2150  0.1397  0.3812
32067W        W47876  10.960  15.461  11.540  0.3819 -0.0990 -0.1646
32068W        W47877  17.849  17.888   6.215  0.3732  0.0760  0.0385
32069W        W47878  15.283   1.973  10.492 -0.0292  0.0161  0.2551
32070W        W47879  17.165   2.914  11.186 -0.0578  0.1189 -0.0393
32071W        W47880  17.320   7.958   0.932  0.1787 -0.1815 -0.4118
32072W        W47881  11.222   4.640   0.225 -0.0547 -0.3856  0.0740
32073W        W47882  14.784  12.532   9.572 -0.1149  0.1068  0.1218
32074W        W47883   6.813  12.581  12.147 -0.1797 -0.1701  0.1947
32075W        W47884   2.607  12.095  12.788  0.1406  0.1514  0.1336
32076W        W47885  18.679   7.792   1.300 -0.0566  0.2443 -0.0423
32077W        W47886  18.519   6.359  14.056 -0.2510  0.0931  0.0134
32078W        W47887  16.192  13.099  15.259 -0.1703 -0.1304  0.0970
32079W        W47888   1.960   6.870   3.237  0.1059  0.1902  0.0973
32080W        W47889   0.973  12.218   1.570 -0.0338 -0.2018 -0.1487
32081W        W47890   9.609   3.047   4.399  0.1466 -0.0033  0.0901
32082W        W47891   7.020   2.988  10.764 -0.1055  0.0266 -0.3436
32083W        W47892   5.333   5.683  14.433  0.1593 -0.4082 -0.0755
32084W        W47893   4.794  13.507   1.005 -0.1962 -0.1746  0.0739
32085W        W47894  10.869   3.776   3.967 -0.0565 -0.1484  0.0612
32086W        W47895  14.681  13.344  11.974 -0.0522  0.1676  0.0248
32087W        W47896   3.549  13.290  14.960 -0.1035 -0.2259  0.1420
32088W        W47897   9.764   1.826   3.085 -0.0525 -0.1357  0.1325
32089W        W47898  13.570  15.603  14.087 -0.1705  0.1129  0.0914
32090W        W47899  16.548  18.328   0.367 -0.0176 -0.2031 -0.1832
32091W        W47900  13.007  12.225   0.243  0.3112 -0.1592 -0.3198
32092W        W47901   1.882   7.888  14.900  0.0346 -0.1514  0.0881
32093W        W47902   4.740  10.975   0.588  0.2351 -0.4320 -0.1164
32094W        W47903   4.713   4.188  11.826  0.3950  0.1849 -0.0964
32095W        W47904   0.570   6.927  10.668 -0.2729 -0.2035 -0.1756
32096W        W47905   2.546   1.956   2.165 -0.0028  0.0585 -0.1425
32097W        W47906  11.439  15.654   1.671  0.6101 -0.0470 -0.0959
32098W        W47907  15.681   8.025   1.643 -0.3806 -0.0404  0.0991
32099W        W47908  10.189   8.300  11.192  0.4454 -0.2131  0.4160
32100W        W47909  14.716  17.321   2.388 -0.1943  0.1214  0.0200
32101W        W47910  11.169  12.580  12.406 -0.1476 -0.4103 -0.0989
32102W        W47911  17.114  10.624  13.332 -0.3507  0.1036 -0.0621
32103W        W47912   7.244   5.923   1.207 -0.4444 -0.0747 -0.1272
32104W        W47913   7.217  14.815  10.536 -0.0695 -0.0867 -0.0576
32105W        W47914   9.945   6.392  11.530 -0.1060 -0.2191 -0.2390
32106W        W47915   0.124  15.249  15.216  0.2594  0.1233  0.0841
32107W        W47916   0.565  11.444   2.842 -0.1345 -0.3131  0.0613
32108W        W47917  13.110   9.767   4.733 -0.0582  0.0133  0.0446
32109W        W47918   0.680  14.491   4.807 -0.1943 -0.0330 -0.2538
32110W        W47919   6.377   7.688  13.677 -0.0377  0.0962  0.0338
32111W        W47920   1.774  17.818   3.379 -0.2593 -0.0626  0.3409
32112W        W47921   2.739   5.816   0.062  0.1482 -0.0653 -0.2080
32113W        W47922  17.021   8.124   2.882 -0.1748 -0.3597 -0.4064
32114W        W47923   3.985  14.707  12.040 -0.1679 -0.0438 -0.1060
32115W        W47924  10.117  10.653   4.324 -0.0593 -0.0128 -0.3386
32116W        W47925   2.320   8.294   2.293 -0.0856 -0.2034  0.0300
32117W        W47926   5.508  14.266  13.851 -0.1661  0.1831  0.5013
32118W        W47927  13.044   0.165  15.099 -0.0837 -0.1381 -0.0786
32119W        W47928  16.318   4.818  14.257  0.0509  0.2668 -0.0082
32120W        W47929   0.181   6.484   1.410  0.4895 -0.2960  0.1475
32121W        W47930   5.502  16.014   2.138 -0.0284 -0.0361  0.0318
32122W        W47931  14.146  11.885  14.005 -0.2612 -0.0446  0.0062
32123W        W47932   2.766  10.806  13.770 -0.0563 -0.0151  0.1422
32124W        W47933   4.932  17.176   1.539 -0.1288 -0.2072  0.1664
32125W        W47934  16.371  11.027  13.598 -0.0739 -0.0937  0.2443
32126W        W47935  11.388  11.415  14.404  0.2279 -0.1884  0.3182
32127W        W47936  12.486   3.366   3.555 -0.1733  0.0308 -0.0754
32128W        W47937  10.487   8.593  11.571  0.1158 -0.0833 -0.1303
32129W        W47938   8.430   9.832   2.064 -0.2178 -0.0717 -0.1271
32130W        W47939   1.320  13.369  14.596 -0.0310  0.0532  0.0362
32131W        W47940  12.757   9.500   0.367  0.3216 -0.1904  0.2542
32132W        W47941  16.375   1.277  13.580 -0.0223 -0.1221  0.1165
32133W        W47942   3.008  14.993  14.333 -0.1607  0.0370  0.3441
32134W        W47943  10.880   4.235   1.670  0.1509  0.2041 -0.0882
32135W        W47944  14.158   3.737   0.927 -0.2039 -0.2177 -0.0725
32136W        W47945  13.869   5.313  15.264 -0.3842  0.3746  0.0626
32137W        W47946   9.903   3.450   3.892  0.2518 -0.3609  0.0558
32138W        W47947  17.075   9.802  10.758  0.2665  0.0970  0.0358
32139W        W47948   9.169   7.907  14.407  0.1997 -0.1356  0.0841
32140W        W47949  10.018   0.963   5.001  0.1911 -0.1654  0.0180
32141W        W47950  15.498  14.277   1.948  0.3869  0.1481  0.4417
32142W        W47951  16.933  18.242   4.928 -0.2595 -0.2289 -0.2846
32143W        W47952  12.309  12.402  14.465  0.3168  0.0104  0.0093
32144W        W47953  10.182   0.949  11.476 -0.1548 -0.0494 -0.1844
32145W        W47954  15.198  14.005  12.202  0.3315  0.2157 -0.0005
32146W        W47955  13.378   3.328   1.883 -0.1016  0.3720  0.1550
32147W        W47956  17.404  11.450   2.137 -0.0430 -0.1853  0.0639
32148W        W47957  10.907   6.944  12.142 -0.0256  0.0172 -0.1491
32149W        W47958  17.583  10.591   3.032  0.1353  0.2059  0.2798
32150W        W47959   1.183   6.541   2.938  0.2805  0.1110  0.0765
32151W        W47960  16.122   2.936  10.863 -0.0096 -0.0780  0.1403
32152W        W47961  12.404  17.596   1.067  0.1756 -0.0332 -0.1880
32153W        W47962  10.027   4.971  11.960  0.1222 -0.1560 -0.2130
32154W        W47963  10.673  10.254   1.671 -0.0567  0.1008  0.0369
32155W        W47964  10.149  14.586  10.858 -0.1397 -0.4697  0.1910
32156W        W47965  10.704   4.071  11.014  0.0756  0.0310 -0.1223
32157W        W47966  13.848   3.990   4.198 -0.3586 -0.0015  0.0757
32158W        W47967  19.032  18.091  10.708  0.1015  0.0939 -0.1161
32159W        W47968  12.213   6.151  11.094  0.0506  0.0862  0.1908
32160W        W47969  16.493  11.576   4.773 -0.2279  0.0471 -0.1446
32161W        W47970   4.310  18.793  11.837 -0.1663  0.0701 -0.4646
32162W        W47971   9.637  11.616   1.264  0.0287 -0.0301  0.0744
32163W        W47972   6.597  10.643   3.828 -0.0499 -0.2753 -0.0235
32164W        W47973   6.653  13.774   4.146 -0.2081 -0.1025 -0.1641
32165W        W47974  12.458   7.602  10.086 -0.2250 -0.0810 -0.1767
32166W        W47975   3.103  11.170  13.731  0.2392 -0.0192  0.2806
32167W        W47976  11.596   0.934  10.219 -0.0280  0.0484 -0.0013
32168W        W47977   6.875   4.036  12.559 -0.1114 -0.2359 -0.2895
32169W        W47978   6.578   2.937   3.758 -0.3650 -0.0797 -0.1446
32170W        W47979   6.999  11.935   3.821  0.0901  0.1383 -0.1769
32171W        W47980  11.403   9.157   2.055 -0.0193  0.2872  0.0821
32172W        W47981   7.037  12.910  13.776  0.0027  0.1004  0.1821
32173W        W47982   1.165   5.475  14.006  0.0378 -0.3251  0.1863
32174W        W47983   1.383   6.623  11.075  0.1515  0.0045 -0.0797
32175W        W47984  15.339  10.860  15.231 -0.1165 -0.1829  0.3672
32176W        W47985  17.243  14.013   3.650  0.0536  0.2477  0.1885
32177W        W47986  10.027   8.137  14.013 -0.0228  0.0509 -0.0693
32178W        W47987   7.182   9.697  11.332  0.2012  0.1700  0.1185
32179W        W47988   3.575  17.901   2.560 -0.1385 -0.2477  0.1005
32180W        W47989   6.383   5.338   3.087 -0.0757  0.3876  0.0823
32181W        W47990  11.114   0.696   3.929 -0.0247  0.2045  0.1220
32182W        W47991   2.947   8.111   4.999 -0.2122 -0.0112  0.0061
32183W        W47992  10.523   9.494  13.943  0.3011  0.1702 -0.0338
32184W        W47993  16.064   9.547  13.557 -0.2985  0.0900  0.0683
32185W        W47994   1.085   6.733   1.623 -0.0737 -0.6291 -0.0248
32186W        W47995  14.389  14.663   3.327  0.0563  0.2677 -0.1480
32187W        W47996   5.072  13.919   3.001 -0.0186  0.3596 -0.0322
32188W        W47997  12.516  18.392  14.207 -0.1032 -0.0749 -0.0311
32189W        W47998  16.752  10.549  13.696 -0.2254 -0.0446 -0.4103
32190W        W47999  12.548  15.043  13.647  0.2442 -0.0282  0.4577
32191W        W48000   6.944  14.392  11.104 -0.0837 -0.1652 -0.0572
32192W        W48001  17.815   1.725  10.468 -0.1412  0.3165  0.2911
32193W        W48002   3.509   8.927   3.422 -0.1017 -0.0609  0.0255
32194W        W48003   6.655  16.417   2.856  0.1345  0.0613 -0.1934
32195W        W48004  10.846  19.062  14.595 -0.0144 -0.0999 -0.1586
32196W        W48005  14.595  13.742   1.860 -0.1401 -0.0359  0.0762
32197W        W48006   2.320   9.310   3.264  0.0447 -0.0018  0.1036
32198W        W48007   2.899  18.137  15.168  0.2146 -0.1441 -0.2812
32199W        W48008  10.885  12.240   0.721  0.0297 -0.2439  0.2774
32200W        W48009   3.977   2.940   1.687  0.0449 -0.1576 -0.1145
32201W        W48010  17.340   6.099  15.245 -0.5149  0.0494  0.0221
32202W        W48011  12.651  13.324  14.164  0.0586  0.1735 -0.1731
32203W        W48012  17.279  16.323   4.777  0.0405  0.0428  0.0719
32204W        W48013  16.055  16.382   1.405  0.0185 -0.1538  0.3373
32205W        W48014   2.010  11.389   0.079  0.1737 -0.1513  0.3280
32206W        W48015  12.774   8.028  12.600  0.2821  0.2827  0.0216
32207W        W48016   5.772   7.847   3.857 -0.0295 -0.1913 -0.0723
32208W        W48017  12.326   3.782   0.059  0.2512 -0.3556  0.0778
32209W        W48018  13.054  12.577  15.141  0.2088  0.4108  0.0369
32210W        W48019  12.894   5.756   0.001 -0.0465 -0.3788 -0.4485
32211W        W48020   3.215  14.655   4.991 -0.2379  0.0510 -0.0647
32212W        W48021  18.181  13.724   2.209  0.0879 -0.2497  0.1120
32213W        W48022   3.327   0.835   0.208  0.0689  0.0590 -0.0694
32214W        W48023  13.850   1.084  11.757 -0.0024  0.4272  0.1262
32215W        W48024  18.739   9.149  13.410 -0.2828  0.0874  0.0035
32216W        W48025  17.591  14.591  10.507 -0.1821  0.1342  0.1572
32217W        W48026  10.187   3.385   4.508  0.3561 -0.1909 -0.0021
32218W        W48027   1.365   3.540  12.320  0.2737  0.0796 -0.0013
32219W        W48028  14.906  11.228   3.386 -0.1719  0.0301  0.1462
32220W        W48029  11.983  12.931   2.145  0.0695  0.2247  0.1123
32221W        W48030   1.095  16.249  14.377  0.0134  0.1519  0.2273
32222W        W48031  15.309  12.714  13.105  0.0308  0.0810  0.2126
32223W        W48032   7.975  17.094  11.265  0.0513 -0.2665  0.2924
32224W        W48033  14.435  16.224  15.056 -0.0163 -0.0353  0.1484
32225W        W48034   7.702  14.844  10.731 -0.1022  0.1028  0.1917
32226W        W48035   1.865  15.795  14.658 -0.0346 -0.0616  0.1415
32227W        W48036  14.349   1.361   0.024  0.0473  0.0282  0.2223
32228W        W48037   3.333  10.646   1.790 -0.2604  0.2796  0.2809
32229W        W48038   5.759  17.876  11.170  0.0192 -0.3018 -0.4386
32230W        W48039  17.022  11.734  13.491 -0.4633 -0.0061  0.0091
32231W        W48040   2.276  17.432   0.166  0.1011  0.1369 -0.1036
32232W        W48041   3.594   5.657  10.680  0.4887  0.0730  0.2801
32233W        W48042   7.371  10.870   3.986 -0.0412  0.0755  0.1971
32234W        W48043   0.060  12.112   3.336 -0.2252  0.1225  0.0430
32235W        W48044   1.883  10.032  13.786  0.0846 -0.2064 -0.1156
32236W        W48045   5.451  12.609   3.233 -0.3126  0.1860 -0.2583
32237W        W48046  18.634   1.107   0.240  0.0102  0.0651  0.3064
32238W        W48047   4.945  12.054   4.846  0.4084 -0.0848  0.0793
32239W        W48048   0.659  15.056   3.239  0.0422  0.0063  0.2457
32240W        W48049   4.059   7.526   0.915 -0.1021  0.4014  0.1905
32241W        W48050  16.838   0.141   0.322 -0.0176  0.1035  0.2568
32242W        W48051   1.967   4.794   0.628  0.2824 -0.0882 -0.2817
32243W        W48052  18.940  15.604  10.378 -0.0520  0.3524 -0.1867
32244W        W48053  18.473   4.483  11.673 -0.4576  0.1513 -0.2248
32245W        W48054   4.603  14.427  11.944 -0.1221  0.1174 -0.4302
32246W        W48055  17.147  12.636   0.314 -0.0587  0.0435 -0.0027
32247W        W48056  13.101   6.232   2.202  0.0060  0.1638 -0.0900
32248W        W48057  11.378  14.923  10.106  0.1497  0.2003 -0.0382
32249W        W48058   6.998  10.280   1.841 -0.0408  0.1942  0.1000
32250W        W48059   4.766  10.273  14.899  0.1930  0.1486 -0.1167
32251W        W48060   8.760  11.393   2.905 -0.0996  0.1103  0.0755
32252W        W48061   4.580  14.014  12.868 -0.0471  0.1215  0.2416
32253W        W48062   1.178   0.210  15.177  0.1243  0.0348 -0.2747
32254W        W48063  17.186   5.667  11.580  0.3625  0.0033 -0.3762
32255W        W48064   2.024  17.470   1.033  0.4120 -0.2051 -0.0393
32256W        W48065   5.009   5.891  13.249 -0.0975  0.0945  0.0601
32257W        W48066  15.299   1.902  13.539 -0.0709  0.7772 -0.5113
32258W        W48067  13.216   9.070  11.900  0.0321  0.0513  0.0920
32259W        W48068   6.471  11.186   1.350 -0.0793  0.3369 -0.1159
32260W        W48069  11.694  10.902   0.846  0.4027  0.1164 -0.1021
32261W        W48070  12.432  16.764  11.973 -0.0209  0.0323 -0.2825
32262W        W48071   1.882   0.690  12.093 -0.0826 -0.0581  0.1557
32263W        W48072   2.225  14.245  12.585 -0.0013 -0.1195 -0.0526
32264W        W48073  13.650  15.706   4.842 -0.1003  0.1598  0.1001
32265W        W48074  10.403  13.438   4.983  0.0141 -0.2873 -0.0976
32266W        W48075   4.956   3.815  11.652  0.2008  0.3224  0.0080
32267W        W48076  16.160   9.208   4.243  0.2534 -0.0735  0.2975
32268W        W48077  10.230   1.944  12.400  0.0473 -0.1049  0.0962
32269W        W48078   5.925  13.496   2.220 -0.0133 -0.0175 -0.2862
32270W        W48079  13.500  12.666  11.043  0.2322  0.0878 -0.3185
32271W        W48080   8.462  13.830   5.115  0.0419 -0.2986 -0.0159
32272W        W48081   3.728  13.167   1.394  0.2555  0.0854 -0.0709
32273W        W48082  14.019   6.268  14.902  0.0646  0.0911  0.0908
32274W        W48083   6.473   6.452   9.983  0.0653 -0.0992  0.5139
32275W        W48084  15.894   0.110   5.268 -0.0514  0.1408 -0.1426
32276W        W48085   1.640   5.762  10.214 -0.0208  0.2000  0.2432
32277W        W48086  13.152   8.489  13.198 -0.1879 -0.0743  0.3604
32278W        W48087   3.446  12.560   2.879 -0.3047 -0.2558 -0.0466
32279W        W48088   2.699   6.484   2.215 -0.1482  0.0435  0.2999
32280W        W48089  13.709  10.851   0.353  0.4291  0.1671 -0.1572
32281W        W48090  10.689   3.168   1.808  0.3299 -0.4926 -0.0991
32282W        W48091   8.579   3.005  12.453  0.0594 -0.0535 -0.0469
32283W        W48092   8.673   1.008  11.649 -0.0019  0.1026  0.0126
32284W        W48093   6.232  16.269   2.479 -0.2385  0.0286 -0.4012
32285W        W48094  14.088  11.165  12.916  0.1427  0.1567  0.2838
32286W        W48095  12.500  18.998  11.237 -0.1242  0.0173 -0.0719
32287W        W48096  15.645  18.749   4.597 -0.2285  0.1145  0.1489
32288W        W48097  18.761   7.101   4.576 -0.1921 -0.1152  0.0118
32289W        W48098   0.522   1.930  14.195  0.1461 -0.0242  0.0707
32290W        W48099   1.976  14.519  14.404  0.3928  0.1776 -0.1456
32291W        W48100   1.852   1.472   1.993  0.0780  0.2032  0.0654
32292W        W48101   8.023  12.775   3.400 -0.0625 -0.1956 -0.0858
32293W        W48102   2.017   6.735  13.234 -0.2684  0.0524 -0.3344
32294W        W48103  17.941   1.159   0.070  0.3028 -0.0395 -0.0042
32295W        W48104   4.503   4.042   4.343 -0.1316 -0.0488  0.0382
32296W        W48105  12.858   8.511   4.344  0.2009  0.1536  0.3680
32297W        W48106   2.461  12.792  15.058 -0.1546 -0.0564 -0.0868
32298W        W48107  14.031   1.527   3.511  0.0473 -0.0941  0.2270
32299W        W48108  16.057  15.834   1.249 -0.2323  0.0291 -0.3401
32300W        W48109   9.582  11.276  14.682  0.1890  0.4357  0.1129
32301W        W48110   6.681   5.757   2.898 -0.1882 -0.2045 -0.0695
32302W        W48111   5.261   7.812   2.248  0.2176  0.0466 -0.1283
32303W        W48112  15.752  10.356  13.670 -0.0462 -0.1253  0.0670
32304W        W48113  15.996  11.679  12.409  0.1727  0.1295  0.0060
32305W        W48114  17.766   6.975  11.201 -0.0657 -0.1389  0.1867
32306W        W48115  12.337  10.650  11.494 -0.2159 -0.1842  0.3842
32307W        W48116   1.422   0.024  14.756 -0.0889 -0.2267  0.0264
32308W        W48117   2.173  18.574   2.822  0.0185 -0.1043 -0.1160
32309W        W48118   3.685  18.590   2.318  0.0561 -0.3851  0.0037
32310W        W48119   0.566   6.567   3.680 -0.0713  0.2538 -0.1911
32311W        W48120  14.653  11.371  15.159 -0.0429 -0.2169  0.1120
32312W        W48121   7.176  13.867  13.227  0.1677  0.0167  0.0935
32313W        W48122   8.027   2.283  13.068  0.2068  0.1847  0.1235
32314W        W48123  12.522  18.603  11.839  0.2420 -0.1039 -0.2614
32315W        W48124  11.542   3.257  15.109  0.0399 -0.1155 -0.0946
32316W        W48125   1.435   1.267   1.457 -0.3557  0.1155 -0.1341
32317W        W48126   1.739   3.523  10.202 -0.6090  0.0462  0.2289
32318W        W48127   9.457  16.733   1.331  0.1105 -0.0557  0.2221
32319W        W48128   3.259   3.955  10.697  0.1920 -0.1144 -0.0198
32320W        W48129  13.548   0.931   0.962  0.1275  0.2415 -0.0343
32321W        W48130   3.745   7.709  15.259  0.0031 -0.1906 -0.2775
32322W        W48131   2.381  15.964  14.801  0.0552 -0.0254  0.0009
32323W        W48132   8.314   2.975   1.715  0.0827 -0.4268  0.0159
32324W        W48133   2.992   7.823  12.680  0.0758  0.0794 -0.1318
32325W        W48134  15.485  11.240   0.266  0.0389 -0.2279 -0.1906
32326W        W48135   4.741  14.194   2.334 -0.0365 -0.0050  0.2651
32327W        W48136  15.940  11.801  15.247 -0.0845 -0.0761 -0.0719
32328W        W48137   4.997   1.620  10.384 -0.0464  0.2142 -0.0135
32329W        W48138   1.444   6.985   4.727  0.2083 -0.3671  0.1048
32330W        W48139   3.756  12.294  14.874  0.2622  0.0303  0.0538
32331W        W48140   5.790   0.507   5.116  0.0808 -0.1454 -0.0081
32332W        W48141  11.052   1.168   1.998 -0.0991  0.1733  0.2101
32333W        W48142   3.275  12.914   1.584  0.0826 -0.0269 -0.1135
32334W        W48143   4.947   9.817   0.819  0.2296  0.0750 -0.1019
32335W        W48144   0.078  17.000   1.994  0.0107  0.0211 -0.1653
32336W        W48145  12.501   0.735  14.415  0.2945 -0.1795 -0.0131
32337W        W48146   1.828  14.705  13.939  0.2138  0.0624  0.1982
32338W        W48147  16.645  15.975  12.157  0.0343  0.1341  0.3913
32339W        W48148   4.881  19.136   0.334  0.4109 -0.0042  0.0273
32340W        W48149  15.248  14.463  14.564 -0.1347  0.0422 -0.1592
32341W        W48150   3.219   1.331  13.329 -0.0187 -0.3985  0.2815
32342W        W48151  18.276  13.081  14.319 -0.0769 -0.1038  0.0021
32343W        W48152  10.472  14.114  13.189 -0.0630 -0.2923 -0.1505
32344W        W48153   1.562  17.833  13.359  0.0616  0.1373  0.0281
32345W        W48154   4.770   6.486   2.963  0.1837  0.2794  0.1377
32346W        W48155  16.344   1.121  12.862  0.3065 -0.2257 -0.3452
32347W        W48156   7.913  16.819  14.387  0.1424  0.4126 -0.0384
32348W        W48157  13.385   4.681   0.197 -0.0932 -0.0005 -0.0281
32349W        W48158   7.361   5.929  14.636 -0.0198 -0.0274 -0.2845
32350W        W48159  17.985   0.942  14.100 -0.0530 -0.1575 -0.2092
32351W        W48160  15.514  12.658  12.562  0.1283  0.0254  0.1792
32352W        W48161  17.117  13.085  12.673  0.2127 -0.0723  0.0834
32353W        W48162  12.491  10.085  11.256 -0.0287  0.2903  0.0177
32354W        W48163  13.656  12.034   1.006 -0.0550  0.1335  0.3450
32355W        W48164   1.739   9.631   4.601  0.0933  0.4524 -0.1697
32356W        W48165  13.163  15.418  11.493 -0.0797 -0.2074 -0.1914
32357W        W48166  18.714   0.373  10.915  0.0565  0.3397  0.0360
32358W        W48167  15.414   9.131  11.776 -0.1850 -0.0558  0.2995
32359W        W48168  11.854  13.822  14.473 -0.0421  0.0064 -0.0961
32360W        W48169  13.552   2.026  12.186 -0.2428  0.1498  0.0881
32361W        W48170   5.317  18.412   3.739 -0.0766 -0.1014  0.3028
32362W        W48171  17.588  10.200  14.851 -0.4542  0.0856  0.0069
32363W        W48172  12.720   4.734   3.039  0.0846 -0.1430 -0.0862
32364W        W48173   8.029   3.406   0.983 -0.4258 -0.1953  0.1049
32365W        W48174   1.912   5.163  10.839 -0.3064  0.2182  0.3873
32366W        W48175  14.163  17.795   4.020  0.0982  0.2542  0.0366
32367W        W48176  16.751  18.777   3.885 -0.1287 -0.0684 -0.2005
32368W        W48177   9.786   9.055  14.027  0.0082  0.0453 -0.2425
32369W        W48178  13.283  17.565   1.828 -0.1019  0.0095  0.0679
32370W        W48179   5.045  14.217   3.398 -0.0529 -0.3231 -0.2515
32371W        W48180  16.169  14.470   3.279  0.2125  0.0361  0.1855
32372W        W48181   7.152  13.256   3.846 -0.0933 -0.0880 -0.1640
32373W        W48182  18.584  11.650  13.788 -0.0765 -0.1832  0.0028
32374W        W48183  14.707  17.110   1.411  0.4302 -0.0175 -0.0846
32375W        W48184  14.114  17.886  13.821  0.2216 -0.1145 -0.1433
32376W        W48185   0.583   1.228   4.128  0.0364  0.0685  0.1908
32377W        W48186  11.146   0.373  14.578  0.4584 -0.0058  0.3891
32378W        W48187  18.175   5.838  12.703  0.0310 -0.0589  0.0051
32379W        W48188   8.183  14.673  13.665 -0.0718  0.4015 -0.0088
32380W        W48189   3.135  12.785   2.061 -0.0255  0.0381 -0.0821
32381W        W48190  15.310   4.025   9.307 -0.0903  0.0525 -0.0005
32382W        W48191   6.166  17.540  12.953 -0.1107 -0.1229  0.2162
32383W        W48192   0.575   0.114  10.973  0.0124 -0.0127 -0.1062
32384W        W48193   9.830  12.318   4.761 -0.5131 -0.0426  0.0150
32385W        W48194  14.043   8.120   3.071 -0.1076 -0.0014 -0.3142
32386W        W48195   2.327  16.997   4.942 -0.1823  0.0407  0.1116
32387W        W48196  15.766  13.610   3.355  0.0520 -0.1381 -0.2991
32388W        W48197   2.329  17.363  13.985  0.0122 -0.0070  0.2430
32389W        W48198  13.449   1.581   2.164  0.0754  0.0664  0.0304
32390W        W48199  10.523   2.409   4.047  0.3248 -0.1331  0.0844
32391W        W48200  18.009   2.235  10.326 -0.1781  0.1578 -0.0665
32392W        W48201   8.145  16.290  13.043  0.2012 -0.0605  0.1489
32393W        W48202  10.419  12.732  13.682  0.0214 -0.0849 -0.0563
32394W        W48203   9.277   8.687  14.884  0.0675  0.0480 -0.1681
32395W        W48204   0.415   0.549   5.246 -0.1310  0.0755  0.0735
32396W        W48205  17.984  13.201  14.691 -0.2701 -0.2217 -0.2817
32397W        W48206   9.777  11.833  15.039  0.3130  0.0921 -0.0726
32398W        W48207  18.362   7.836  12.142  0.2328  0.1370 -0.0576
32399W        W48208  13.141   6.668   4.625  0.3169  0.0800  0.1582
32400W        W48209   1.593  17.652  11.184  0.0161  0.0392 -0.1365
32401W        W48210   1.474  14.593   2.046  0.0274 -0.0049  0.0855
32402W        W48211   7.998  15.711  14.426  0.2357  0.3333  0.4493
32403W        W48212   4.418   6.189   2.828 -0.5311 -0.1334 -0.3821
32404W        W48213  18.979   0.965   4.085  0.0810 -0.0913  0.0087
32405W        W48214   9.831   2.606  11.472 -0.1709  0.1498  0.4048
32406W        W48215   7.767  17.462  11.523 -0.2167 -0.1047  0.2629
32407W        W48216   1.335   6.372   4.116  0.1049 -0.1565 -0.2241
32408W        W48217  17.637   8.422  11.345 -0.1319  0.2389  0.1162
32409W        W48218   5.920  16.831   2.530  0.3537  0.0399 -0.0984
32410W        W48219  11.595  13.240   2.183  0.7204 -0.1721 -0.1004
32411W        W48220   6.010   6.660   0.157  0.1092 -0.2778  0.0520
32412W        W48221  15.139  11.525   1.333 -0.0448 -0.2585 -0.1425
32413W        W48222  18.947  10.288   1.841  0.2625 -0.1331 -0.0870
32414W        W48223  16.817   2.655   5.423 -0.1852 -0.2025  0.0514
32415W        W48224   2.999   6.194  14.859 -0.1543  0.0773 -0.1373
32416W        W48225  13.747  12.482   4.569 -0.2921  0.1679  0.2575
32417W        W48226  10.147   2.525  13.804 -0.0004 -0.0012 -0.0746
32418W        W48227   2.054  16.237  13.901 -0.2679  0.0361 -0.1524
32419W        W48228  18.161   6.038   0.354  0.1312 -0.0230 -0.1231
32420W        W48229  12.323   6.231  11.584 -0.0803  0.2854 -0.1695
32421W        W48230  10.705  11.866   1.603  0.2801  0.0424 -0.0114
32422W        W48231  17.452   3.737   4.220 -0.1184  0.0519  0.1487
32423W        W48232   6.638  12.720   0.678  0.0998 -0.0327  0.1681
32424W        W48233  10.614   2.757  12.207  0.2736  0.2189  0.0902
32425W        W48234  18.506   7.658  11.435 -0.1402  0.4191 -0.1051
32426W        W48235   9.886  14.875  12.223 -0.2308 -0.3193 -0.0713
32427W        W48236   2.324  14.936  13.099 -0.2371 -0.0885  0.0394
32428W        W48237   6.912  16.903  11.727  0.3855 -0.0648 -0.0352
32429W        W48238   2.972  17.396   5.946 -0.1124  0.1353 -0.1714
32430W        W48239   7.195   2.998  14.373  0.2673 -0.1251  0.0052
32431W        W48240   0.957   9.837  11.204 -0.0014 -0.3218 -0.1901
32432W        W48241   4.152  16.385   2.453  0.1978 -0.1385 -0.0522
32433W        W48242   0.757   3.673   2.046 -0.0421 -0.0572  0.0629
32434W        W48243   9.366   1.835   0.940  0.2859  0.4468  0.1183
32435W        W48244   2.722   4.342  13.963  0.1460 -0.0152  0.0695
32436W        W48245   6.503   1.775  10.597  0.1354 -0.2063  0.1731
32437W        W48246  10.176   7.482   3.917 -0.0238  0.2389  0.0182
32438W        W48247   0.025  18.681  12.315 -0.2346 -0.2693 -0.1801
32439W        W48248   1.786   0.527   4.314  0.1087 -0.0954  0.1855
32440W        W48249   8.826   3.429   2.183  0.0608  0.1258  0.3376
32441W        W48250   2.956  15.791  13.910  0.3294 -0.1022 -0.1697
32442W        W48251   3.797  14.691  11.566 -0.1308 -0.2896 -0.0079
32443W        W48252  11.813   3.379   0.652  0.2508 -0.3134  0.1507
32444W        W48253   5.280  16.412  10.491 -0.1116 -0.1302  0.1099
32445W        W48254   6.101  14.156   2.309 -0.1818  0.1809  0.0967
32446W        W48255  12.651   7.641   1.912 -0.0127 -0.3144  0.2952
32447W        W48256   1.466   3.259   3.713  0.0672 -0.2302 -0.1105
32448W        W48257   7.169   2.889   0.883  0.0059 -0.1806  0.0888
32449W        W48258   6.512   3.528   2.349  0.1885 -0.3142  0.0448
32450W        W48259   4.091   3.660  13.161  0.0261 -0.0171 -0.0950
32451W        W48260  17.060   7.064  11.524  0.2237 -0.0806 -0.0805
32452W        W48261   8.292  13.253  12.839 -0.0650  0.1856  0.0526
32453W        W48262   2.374   7.138   4.058 -0.0950 -0.2830  0.1571
32454W        W48263   6.743  11.691  10.052 -0.0073 -0.0451  0.0736
32455W        W48264  10.583  10.183  12.278 -0.0374  0.2032 -0.1400
32456W        W48265  17.898   5.010  10.591  0.0620  0.2459  0.0222
32457W        W48266  17.510  15.024   2.767  0.1456 -0.0888  0.3199
32458W        W48267  12.259  13.118   5.658 -0.0425  0.1885  0.1417
32459W        W48268  17.292   7.425   3.760  0.1264  0.2666 -0.1315
32460W        W48269  10.883  11.186   2.252  0.0514  0.1176  0.0225
32461W        W48270   2.669  15.026   3.824 -0.2274  0.3892 -0.0594
32462W        W48271   6.086  14.503   3.737  0.0007  0.0428  0.2520
32463W        W48272  18.856   6.594  12.135 -0.0183 -0.1787 -0.0299
32464W        W48273  10.292   1.413   2.949  0.2876  0.1230 -0.0026
32465W        W48274   7.506  18.540  12.329  0.1821  0.0739  0.1032
32466W        W48275   4.217  18.272   0.360 -0.0578 -0.1665 -0.1380
32467W        W48276  14.256   9.391   3.428 -0.1205  0.0933 -0.1005
32468W        W48277  15.806  19.068   9.915  0.0075 -0.3286  0.0453
32469W        W48278  15.756  14.986   3.373 -0.0160  0.0978  0.1814
32470W        W48279   2.442  11.259   1.030 -0.0296  0.3631  0.1836
32471W        W48280   5.555  14.331   5.346  0.1333  0.1085 -0.1164
32472W        W48281  13.700  15.221   2.420  0.0576 -0.0159  0.1648
32473W        W48282   6.109   3.370  12.788 -0.0971  0.1968  0.0946
32474W        W48283  11.402   2.612   4.473 -0.2827 -0.3255 -0.5063
32475W        W48284   2.002  13.732   3.027  0.0444  0.2327  0.0234
32476W        W48285   0.828  17.489  12.159 -0.4056 -0.0164 -0.2676
32477W        W48286   9.339   8.080   1.742  0.2160 -0.0585 -0.0160
32478W        W48287  18.013  12.049  12.516  0.1125 -0.1990 -0.3429
32479W        W48288  13.217  11.052  13.558 -0.0669 -0.1816 -0.1718
32480W        W48289   2.861  15.675  10.214 -0.0941 -0.0465  0.1717
32481W        W48290  15.990   3.695   1.522 -0.1293 -0.0109 -0.0209
32482W        W48291   2.209   7.975  11.897 -0.2149 -0.2875 -0.3210
32483W        W48292  14.497  14.514  12.491  0.0944 -0.2591  0.1734
32484W        W48293  18.693   4.990  14.692 -0.1922  0.1364 -0.1846
32485W        W48294   6.810  19.030  14.707 -0.1365 -0.0052  0.2521
32486W        W48295  16.961   1.951  11.774 -0.0881 -0.0347 -0.0021
32487W        W48296   8.780  16.345  10.290  0.2095 -0.2374  0.1130
32488W        W48297  17.060   0.906   0.081 -0.2331 -0.2398  0.1986
32489W        W48298  15.399  18.819   0.795 -0.2247  0.7401  0.2199
32490W        W48299   8.201   5.073   1.136  0.2394 -0.0941  0.2782
32491W        W48300  16.452   8.202   4.331 -0.1590 -0.0018 -0.2289
32492W        W48301  16.786   2.473  11.031 -0.3604  0.1433  0.0423
32493W        W48302   6.187  11.459  11.290  0.1154  0.2156 -0.1310
32494W        W48303   4.789   6.106   1.270  0.0689 -0.1244  0.1146
32495W        W48304   4.776  12.197  10.930 -0.1010  0.0504 -0.0341
32496W        W48305   3.446   3.643   3.036  0.2959  0.0540  0.0012
32497W        W48306   7.040  10.391   2.315  0.1747 -0.0509 -0.1729
32498W        W48307   8.009  12.004  10.269  0.0141  0.1101 -0.1089
32499W        W48308   4.567  17.789  12.487 -0.2217  0.0254  0.1759
32500W        W48309   4.433  16.394   3.313 -0.3097 -0.2668 -0.2234
32501W        W48310   9.714   5.025  13.126  0.4430 -0.1470 -0.0984
32502W        W48311   6.870  15.926   0.794 -0.3474 -0.0188 -0.1388
32503W        W48312  16.159  11.887   4.197  0.1199  0.2413  0.2277
32504W        W48313  18.210   4.444  12.755  0.1505 -0.1460  0.1767
32505W        W48314   4.215   8.078   2.479 -0.0126  0.0605 -0.1427
32506W        W48315  15.259   7.881   5.149  0.0566  0.1178  0.4253
32507W        W48316   7.788   5.972  11.085 -0.1522  0.1083  0.2090
32508W        W48317  14.032  18.028   4.729 -0.0950 -0.2562 -0.0541
32509W        W48318   1.091  17.372   3.258 -0.0440 -0.2416 -0.4037
32510W        W48319   8.936   9.355   0.014 -0.2135  0.1154  0.1276
32511W        W48320  14.213  12.893  14.105 -0.0974  0.0451  0.1547
32512W        W48321   0.882   9.286  10.989  0.0253  0.1871 -0.0897
32513W        W48322  11.828  14.760  13.172  0.0444 -0.1598  0.2877
32514W        W48323   3.194  12.944  14.885  0.2564 -0.0728 -0.0089
32515W        W48324   5.899   2.865  12.126  0.2096  0.4416  0.3373
32516W        W48325  16.007  12.768  13.443 -0.2041  0.2415 -0.1535
32517W        W48326   2.514   2.800   3.699  0.1492  0.2252 -0.4845
32518W        W48327  17.874  12.417   3.011 -0.0143  0.0536 -0.0731
32519W        W48328   4.531   0.998   0.265  0.1210  0.1062  0.0813
32520W        W48329   4.559  16.192   9.466  0.3672  0.0730  0.1874
32521W        W48330   8.907  18.334   4.013  0.1829 -0.2770 -0.3029
32522W        W48331   8.087  18.970   4.726  0.1334 -0.0364 -0.0691
32523W        W48332  16.360  17.546  11.911 -0.1501 -0.0155  0.1571
32524W        W48333  13.755   4.041   0.072  0.0543  0.0545 -0.2035
32525W        W48334   0.786  16.420   0.537 -0.0828 -0.0193  0.0821
32526W        W48335  17.194  10.428   1.932  0.0711  0.3088 -0.1760
32527W        W48336   2.003  15.293  13.589 -0.1380  0.2559 -0.4321
32528W        W48337   5.507   6.887  15.090  0.1009  0.1032  0.1096
32529W        W48338  11.969   4.674   5.087  0.0825 -0.2462 -0.1098
32530W        W48339   3.791   3.462   4.369  0.2016  0.2046 -0.2523
32531W        W48340   1.293   9.687  12.173  0.1996  0.2033 -0.1635
32532W        W48341   9.275   7.434   2.970 -0.2107  0.0913 -0.2968
32533W        W48342   9.535   9.198   0.577 -0.1129  0.3170 -0.0433
32534W        W48343  16.641   6.775  13.514 -0.1993  0.3017 -0.1622
32535W        W48344   0.850   4.187  12.676 -0.2434  0.1288  0.1523
32536W        W48345  15.682  16.138   5.339  0.1328 -0.0208 -0.0900
32537W        W48346   7.529   2.636  13.194 -0.1269 -0.1933 -0.3318
32538W        W48347  14.066  18.339   2.879  0.0394  0.1659 -0.0650
32539W        W48348  10.395   5.504  11.488 -0.1550 -0.2168 -0.0487
32540W        W48349  13.895   3.434   2.787 -0.0074  0.0572 -0.1348
32541W        W48350  15.534   7.217  10.174  0.1042  0.0606  0.1433
32542W        W48351  13.685  17.015  13.272 -0.1229 -0.2580  0.0041
32543W        W48352   4.225   5.447   2.672  0.1701  0.1431 -0.4089
32544W        W48353   9.866   3.943  14.285 -0.1108 -0.0965 -0.0439
32545W        W48354  16.072   5.869   1.222 -0.2208  0.3026  0.3097
32546W        W48355  19.134   6.496   0.079 -0.2722  0.1917  0.3677
32547W        W48356   3.427   1.788   3.770  0.3482  0.1094 -0.1065
32548W        W48357   5.132   8.026   0.057  0.1298 -0.1447 -0.0631
32549W        W48358   0.417   8.458   4.407  0.3200  0.1352  0.1931
32550W        W48359  12.214   8.970   2.545 -0.1677  0.1331 -0.1723
32551W        W48360   5.901   7.420   1.904  0.1226  0.0674 -0.3315
32552W        W48361  17.598  12.776   2.773  0.0522 -0.0779 -0.0616
32553W        W48362  12.231  10.491  12.004  0.0065  0.1435 -0.1032
32554W        W48363  11.093   4.163   2.327 -0.3179  0.6001 -0.1451
32555W        W48364  18.116   0.078  12.381 -0.0991 -0.1680  0.0792
32556W        W48365   9.059  11.905  13.880  0.0563  0.0514  0.2112
32557W        W48366  13.623   8.087  10.687 -0.5102 -0.2738  0.0679
32558W        W48367  15.625  14.129   0.608  0.1959 -0.2317  0.0594
32559W        W48368   8.645   7.099  14.543 -0.1782  0.2706  0.1013
32560W        W48369   6.813   7.165   3.086 -0.2093  0.0530 -0.0511
32561W        W48370  18.323  12.866  13.029 -0.2384 -0.1439  0.2054
32562W        W48371  12.367   6.270  12.977 -0.3367 -0.0086 -0.1173
32563W        W48372  16.017  11.725   3.376  0.0170  0.1260 -0.0829
32564W        W48373   7.309  14.740  11.387 -0.0131  0.1097  0.1126
32565W        W48374   4.699   5.294   2.675  0.1512 -0.2441  0.2176
32566W        W48375   6.594   5.942   0.222  0.2404 -0.3860 -0.1808
32567W        W48376  13.651   0.976  11.261  0.1325  0.2255  0.0582
32568W        W48377   7.388  11.916   1.386 -0.1362  0.2484  0.1554
32569W        W48378   2.830   6.891   3.328  0.0859  0.1458  0.0642
32570W        W48379  17.078   5.038  13.634 -0.1626  0.1140 -0.0433
32571W        W48380  16.623  14.629   0.079  0.0791  0.0097 -0.0912
32572W        W48381  14.183   0.721  12.980  0.2450 -0.1230  0.2246
32573W        W48382  16.847   5.667  12.067 -0.0889  0.2345  0.0233
32574W        W48383  16.926   0.570   2.494 -0.1371  0.1557 -0.0467
32575W        W48384  13.009   2.893  15.118  0.1441 -0.2468  0.2362
32576W        W48385   5.359   6.087  14.708 -0.2103  0.1998  0.3610
32577W        W48386   5.032   7.320   1.029  0.0617  0.3511  0.0057
32578W        W48387   5.534  10.775   2.352  0.2109  0.0465 -0.1274
32579W        W48388  15.260   5.763   3.056  0.0240  0.0202  0.0617
32580W        W48389  11.512   6.126   3.635 -0.2044 -0.1406  0.2932
32581W        W48390   5.404   9.372   5.679 -0.2236 -0.1373 -0.0411
32582W        W48391  13.590   0.828  13.149 -0.0277  0.0007  0.2249
32583W        W48392   7.990  16.266   3.284  0.0453  0.0931  0.0751
32584W        W48393   3.830   6.200  10.949  0.1379 -0.2102  0.2531
32585W        W48394  14.819  18.435   2.409 -0.0955  0.1617  0.0880
32586W        W48395   7.726   1.519  11.921  0.1850 -0.0611  0.0546
32587W        W48396   2.335   9.062   0.983 -0.0185  0.2284 -0.1796
32588W        W48397  17.881  15.874   5.832 -0.0748 -0.0560 -0.1469
32589W        W48398   4.281   9.020  12.128  0.1653 -0.1686  0.0667
32590W        W48399  17.315   2.806  12.740  0.0453  0.0177  0.0924
32591W        W48400  17.222   9.254   4.498  0.0299  0.2861  0.2631
32592W        W48401   7.875   9.680   3.734 -0.0192 -0.1374 -0.1935
32593W        W48402   1.581   0.782   1.199  0.3579  0.4953  0.0530
32594W        W48403   4.508   3.187   3.889  0.0758  0.2695 -0.1740
32595W        W48404   4.208   0.210  12.068  0.0710  0.0997 -0.1089
32596W        W48405  18.620  14.305   4.054 -0.0928 -0.2164  0.0307
32597W        W48406  16.942   3.598   3.715 -0.2255  0.3028  0.0057
32598W        W48407  15.008  13.425   2.500 -0.3290 -0.2717 -0.2318
32599W        W48408  11.857   4.000   5.007  0.1293 -0.2964 -0.0904
32600W        W48409  15.670  16.660   3.726 -0.4433 -0.4427 -0.0959
32601W        W48410   1.979   9.166   5.199  0.1044 -0.0501 -0.3507
32602W        W48411   1.663   1.052  15.110  0.3784  0.0041 -0.1766
32603W        W48412  11.550  11.084  13.771  0.1491  0.1351  0.1170
32604W        W48413   5.192   4.053   1.158 -0.1370 -0.0391 -0.1762
32605W        W48414  13.711  16.313   4.616  0.1124 -0.1529 -0.0301
32606W        W48415   9.402   0.138   4.478  0.1461 -0.0089  0.2199
32607W        W48416   5.992  18.707  14.637  0.1126  0.0898  0.1750
32608W        W48417  16.728  16.238   2.556  0.0267  0.0463  0.0209
32609W        W48418  16.554   6.102   1.592 -0.2060  0.2351 -0.2132
32610W        W48419   6.972  12.093   0.584  0.0649  0.1645  0.2930
32611W        W48420  18.037   7.446   5.182 -0.2685  0.4516 -0.0400
32612W        W48421  15.776   3.774  11.566  0.0918 -0.1483  0.4137
32613W        W48422  17.813  13.342  13.742  0.0113 -0.0644 -0.0577
32614W        W48423  11.755  13.774   4.494  0.1930 -0.0612  0.0077
32615W        W48424  12.761  17.227  15.002  0.1115  0.1317  0.0574
32616W        W48425   6.543  18.502   0.138  0.1678  0.0129 -0.1331
32617W        W48426   9.302   1.359   5.120  0.0213  0.1171 -0.1040
32618W        W48427   6.051  16.009   2.893  0.0712 -0.1889  0.0002
32619W        W48428  10.641   2.123   4.684  0.0274  0.0067 -0.1510
32620W        W48429  17.050  12.230  10.646 -0.3698  0.0586 -0.2427
32621W        W48430   5.505  11.027   3.149 -0.1799  0.2700  0.2124
32622W        W48431   3.584   2.132  14.529  0.2988  0.0127 -0.0123
32623W        W48432   7.213   3.898  13.066  0.3095  0.1233  0.3208
32624W        W48433   7.470  13.084  12.849  0.0875 -0.0923 -0.0810
32625W        W48434  16.288  18.827   1.867 -0.1961 -0.2582 -0.2738
32626W        W48435   7.962   9.395  11.370 -0.1934 -0.2266 -0.2085
32627W        W48436   5.378  17.880  14.095 -0.4004  0.1227 -0.0075
32628W        W48437   9.639  18.279  13.385  0.1182  0.1131  0.3478
32629W        W48438  13.297  19.084   0.689 -0.0805  0.1070  0.0096
32630W        W48439   7.008   8.860   0.080 -0.0286 -0.0675  0.1623
32631W        W48440  14.605   1.270  11.419 -0.1637 -0.0802 -0.1295
32632W        W48441   2.403   5.075   4.314 -0.0124  0.4115  0.0392
32633W        W48442   2.568   5.937   2.969  0.1174  0.1154  0.0101
32634W        W48443   5.098  13.635  12.908  0.1231 -0.2355  0.0830
32635W        W48444   7.859   5.448   4.558 -0.0534 -0.0492 -0.0841
32636W        W48445  10.525  15.475   5.267  0.3623 -0.0394 -0.1529
32637W        W48446   6.496  10.031  12.178  0.0043  0.1029  0.2419
32638W        W48447   1.781   0.957   4.184 -0.2551  0.2308  0.1308
32639W        W48448  10.177   6.633   5.449  0.0348 -0.1531  0.0743
32640W        W48449  10.501   7.494  14.567  0.0098 -0.1689 -0.0775
32641W        W48450  11.932  15.492   5.578  0.0387  0.2720  0.1177
32642W        W48451  11.933  16.896  14.424 -0.4437 -0.1185 -0.2205
32643W        W48452   5.122   0.327   2.407 -0.0589 -0.1594 -0.0483
32644W        W48453   2.040   8.135  11.067  0.0376 -0.4513  0.2214
32645W        W48454  14.587   6.007   1.057  0.0339  0.0990  0.0178
32646W        W48455  15.085  12.036   5.011  0.0880 -0.2453 -0.1291
32647W        W48456  17.634   6.406  10.390  0.2988 -0.0081 -0.0123
32648W        W48457   4.272   6.293   2.323  0.0021  0.1122 -0.2307
32649W        W48458   4.605  13.089  14.514 -0.0839 -0.2642  0.1393
32650W        W48459  16.393   5.916  10.595  0.1923 -0.0448  0.0537
32651W        W48460  15.150  15.155   5.428  0.0072 -0.2701  0.0635
32652W        W48461  10.086   7.146  12.427 -0.2950  0.1074 -0.1575
32653W        W48462   1.726   2.391   4.834  0.0376  0.0273  0.1725
32654W        W48463  12.482  12.439   4.092  0.2102  0.0797  0.1359
32655W        W48464   1.966  11.801  14.287 -0.0799 -0.2014 -0.2952
32656W        W48465   7.001  16.340   3.280 -0.1465 -0.1881 -0.2275
32657W        W48466  17.289  15.599   0.034 -0.0753 -0.2188  0.0154
32658W        W48467   2.068   9.317   3.705 -0.2563 -0.0506 -0.3442
32659ION     NA48468   8.795   4.532  11.423  0.1536  0.1526 -0.0307
32660ION     NA48469  10.128   5.617   5.293  0.1244 -0.3221  0.3537
32661ION     NA48470   4.278  18.144   9.288 -0.1196 -0.0153  0.4802
32662ION     NA48471  11.930   2.924  11.678 -0.1056 -0.3991  0.0205
32663ION     NA48472  13.622  18.493  10.272 -0.1043  0.3852 -0.0577
32664ION     NA48473   5.345  12.303   9.904  0.1682  0.3030  0.1082
32665ION     NA48474   6.123   8.998  15.016 -0.2714 -0.4436 -0.3604
32666ION     NA48475  18.312  17.080  10.267 -0.4451 -0.1971 -0.0173
32667ION     NA48476  12.744   2.455   9.660 -0.0422 -0.4291  0.0317
32668ION     NA48477   5.578   9.348   2.308  0.0067  0.0110 -0.0878
32669ION     NA48478  14.353   3.680   9.561 -0.1266 -0.5334 -0.1612
32670ION     NA48479   7.848   3.057   9.263 -0.2345 -0.0000  0.1933
32671ION     NA48480  10.145  16.206  11.974 -0.2392 -0.1762 -0.0012
32672ION     NA48481   2.940   8.000   5.552 -0.0862 -0.1827  0.1870
32673ION     NA48482   4.973   3.496   9.504 -0.0694 -0.2743  0.0718
32674ION     NA48483  13.766  17.364   2.666  0.1456 -0.3358  0.0400
32675ION     NA48484   9.680  16.379   5.355 -0.1568 -0.3063  0.0815
32676ION     NA48485  17.168   0.458   9.917 -0.0808 -0.0163  0.4026
32677ION     NA48486   3.989   2.180   5.415 -0.2357  0.2166  0.1658
32678ION     NA48487   1.083  18.399   3.188  0.3290  0.0009 -0.1259
32679ION     NA48488  18.184  11.431  10.168  0.0974 -0.3244 -0.2505
32680ION     NA48489  11.501  12.659   4.003  0.3016 -0.1117  0.3270
32681ION     NA48490  13.518  11.670  10.346 -0.0373 -0.0103 -0.2999
32682ION     NA48491   3.417  17.610   2.080 -0.0269  0.4385  0.0957
32683ION     NA48492   9.845   8.880   9.845  0.0158  0.1557 -0.0663
32684ION     NA48493  11.762  12.046   9.804  0.1003  0.0538 -0.2839
32685ION     NA48494   6.056  15.954  14.070 -0.0526  0.0813 -0.2196
32686ION     NA48495   5.100   6.485   9.659 -0.2983  0.2269  0.0062
32687ION     NA48496   8.072  10.766   9.283  0.1604 -0.4258  0.2543
32688ION     NA48497  16.754  15.734   0.983  0.0017  0.3223 -0.2787
32689ION     NA48498   4.562   7.873   9.700 -0.1192 -0.0789  0.1716
32690ION     NA48499   5.698  19.127  13.322  0.3429 -0.0724  0.0778
32691ION     NA48500  10.759  12.254  13.484  0.2584 -0.1113  0.2315
32692ION     NA48501  11.029  14.194  12.774 -0.0496 -0.1959  0.2679
32693ION     NA48502   3.180   6.127   9.320  0.0030  0.2064 -0.0049
32694ION     NA48503   3.482  15.963  13.302  0.3473  0.1486 -0.1693
32695ION     NA48504  14.449  15.199   5.903 -0.0646  0.3508 -0.3872
32696ION     NA48505  15.634  16.513  10.158  0.1643  0.1402  0.1591
32697ION     NA48506  18.668   3.444   4.600  0.3043  0.5492 -0.0987
32698ION     NA48507   6.499  16.761   5.366  0.1644 -0.1853 -0.1064
32699ION     NA48508   8.146  15.539   5.288 -0.3631  0.1958  1.0162
32700ION     NA48509  19.125  14.547   9.908  0.0246 -0.0374  0.3543
32701ION     NA48510   8.717   9.510   0.499  0.2288  0.1321  0.1175
32702ION     NA48511  15.751   7.340   9.364 -0.0262  0.2124 -0.1076
32703ION     NA48512   4.086   1.926  10.478 -0.3646 -0.1865  0.1416
32704ION     NA48513   5.490   8.071  10.555  0.1389 -0.1427 -0.1057
32705ION     NA48514  14.258  18.246  15.215  0.2114  0.0596  0.1962
32706ION     NA48515   6.152  15.295   2.815 -0.1092  0.2999  0.2128
32707ION     NA48516  12.638   2.101   3.049  0.3512 -0.2244  0.1130
32708ION     NA48517   1.534   8.001   0.954  0.0562  0.0765 -0.0183
32709ION     NA48518  15.458   8.624  12.991 -0.1483  0.3818 -0.0571
32710ION     NA48519   1.773   9.891  10.101 -0.4410  0.1174 -0.1056
32711ION     NA48520  10.828  14.123   9.756  0.0115  0.0752 -0.4148
32712ION     NA48521  14.360   0.803   9.973 -0.1269  0.1233 -0.0180
32713ION     NA48522   7.679   0.634  10.967  0.0436  0.2443 -0.0266
32714ION     NA48523   7.749  14.633  14.860 -0.3739 -0.1782 -0.0472
32715ION     NA48524  11.568   9.527   0.866  0.1793 -0.0941  0.0674
32716ION     NA48525   2.555  13.758  13.398 -0.0177 -0.1084  0.1026
32717ION     NA48526   9.447  13.760   9.819  0.0546 -0.1723  0.0036
32718ION     NA48527  11.177  15.710   9.914  0.2624  0.1145 -0.1090
32719ION     NA48528  14.075   6.809  13.661 -0.1815  0.0222  0.1121
32720ION     NA48529  12.651   1.140  14.081  0.2041 -0.0171  0.0599
32721ION     NA48530  17.457   1.304   9.782  0.3773 -0.1667 -0.2145
32722ION     NA48531  10.222  12.302   9.799 -0.1361  0.1770 -0.0491
32723ION     NA48532   5.299   7.441   9.946 -0.1938  0.0536  0.3400
32724ION     NA48533   0.961   2.367   9.441  0.2703  0.0831  0.1175
32725ION     NA48534   3.633   1.829   4.965 -0.0886  0.0379  0.1631
32726ION     NA48535   1.525  15.786  10.386  0.3691 -0.0536 -0.0421
32727ION     NA48536  16.544  16.923   5.258 -0.2352  0.1730 -0.1496
32728ION     NA48537  18.342  14.494  14.773 -0.2811  0.0975  0.1244
32729ION     NA48538   2.477   5.516  10.526 -0.0469  0.2099  0.0668
32730ION     NA48539  12.878   3.669  10.229  0.0191 -0.1253 -0.1563
32731ION     NA48540  14.974  15.055  11.468  0.4707  0.0290 -0.1427
32732ION     NA48541  13.273   4.181  15.157 -0.0389  0.1214  0.0231
32733ION     NA48542   8.901  17.459   9.578  0.0826  0.1613 -0.2622
32734ION     NA48543   9.121   9.640   9.787 -0.2069 -0.0930 -0.2342
32735ION     NA48544  12.208  15.121   1.244  0.4363 -0.0302 -0.2654
32736ION     NA48545   0.267  18.680   9.607 -0.2871  0.0716 -0.2606
32737ION     NA48546   3.741  15.096   9.680  0.1486  0.2329  0.0344
32738ION     NA48547   4.789   6.807   5.218  0.3018 -0.2002 -0.1854
32739ION     NA48548  14.645   1.349  12.043  0.0492 -0.0934 -0.0203
32740ION     NA48549  15.054  15.904   1.094  0.1485  0.2604  0.1445
32741ION     NA48550   4.357  14.227   3.124  0.0425  0.3085 -0.0687
32742ION     NA48551   7.601  13.421   4.507  0.1830 -0.1017 -0.3238
32743ION     NA48552   9.432  10.557   9.501  0.1353  0.0285 -0.0024
32744ION     NA48553   7.061   8.437  14.990  0.1228 -0.0826 -0.3021
32745ION     NA48554   8.294  18.561   4.935  0.0187  0.3390  0.1086
32746ION     NA48555   7.872   8.504   9.830  0.2106  0.2132  0.3074
32747ION     NA48556  17.607   2.891  13.351 -0.3723 -0.0069 -0.1641
32748ION     NA48557  14.457   7.896   3.668 -0.0322  0.0089 -0.1835
32749ION     NA48558  17.388   2.888   0.830  0.2346 -0.2909  0.0325
32750ION     NA48559   0.913  12.146   3.567 -0.1180 -0.2121 -0.1650
32751ION     NA48560  13.742  12.260  10.185  0.1498  0.1126  0.6392
32752ION     NA48561  16.622  14.464   9.929 -0.0161  0.1525 -0.2104
32753ION     NA48562  12.822  13.896   9.802  0.0960 -0.0002 -0.0276
32754ION     NA48563  12.663   8.143   2.893 -0.0737  0.3028 -0.0146
32755ION     NA48564  10.106  11.666   9.577 -0.1816  0.1577  0.0033
32756ION     NA48565  12.036  10.685   4.377  0.0248 -0.1336 -0.0047
32757ION     NA48566   9.274  19.041   9.562  0.0894 -0.1791  0.0860
32758ION     NA48567   2.816   7.938   0.765  0.0032 -0.0496  0.1473
32759ION     NA48568   2.096   5.650  14.164  0.2114 -0.0257  0.2019
32760ION     NA48569   3.401   6.525   5.141  0.0454 -0.1124  0.0426
32761ION     NA48570  10.317  10.716   9.725  0.0088  0.0436  0.1025
32762ION     NA48571   0.508  13.361   6.057  0.0301 -0.0973  0.2152
32763ION     NA48572   8.405  16.152  11.868  0.0203  0.1052 -0.2728
32764ION     NA48573   1.258   6.092   3.227 -0.1094  0.1102  0.0143
32765ION     NA48574  14.790   2.715   9.660  0.0111  0.2361 -0.2474
32766ION     NA48575  10.165   4.838   1.689 -0.1257  0.1308  0.1464
32767ION     NA48576   4.390  18.077   5.422  0.0916  0.1618  0.0549
32768ION     NA48577   4.250  15.090   5.541  0.0953 -0.1869  0.1342
32769ION     NA48578  15.190  12.212   5.506 -0.1258  0.0545 -0.2440
32770ION     NA48579  13.838  17.388  10.254 -0.1107 -0.0515  0.0104
32771ION     NA48580  17.727  18.524   9.754 -0.0674 -0.1238 -0.0355
32772ION     NA48581   9.234  16.016   0.561  0.2548 -0.3157 -0.0674
32773ION     NA48582   9.362   2.255   9.530  0.1907 -0.1005 -0.1005
32774ION     NA48583  17.522  13.013  10.093  0.0537  0.2624  0.0598
32775ION     NA48584  16.353   8.417   4.933  0.0413 -0.0353  0.3231
32776ION     NA48585  12.516  15.796   9.807  0.1698 -0.1934 -0.2057
32777ION     NA48586  11.519   4.804   9.426 -0.1032  0.2958  0.1435
32778ION     NA48587  11.003   2.700   9.417  0.1910 -0.0042 -0.0537
32779ION     NA48588   0.241  17.222   9.983 -0.1259 -0.2300 -0.0731
32780ION     NA48589  15.331  15.171  15.115  0.3180  0.0104 -0.3185
32781ION     NA48590   6.439   0.410   0.553  0.2808 -0.0912  0.2986
32782ION     NA48591   0.660   5.869   9.748 -0.0469 -0.0752 -0.0388
32783ION     NA48592   6.282   9.109   5.615 -0.2919 -0.3295  0.0494
32784ION     NA48593  17.197   5.745   0.905 -0.1883  0.1779 -0.2445
32785ION     NA48594   7.430  10.256   9.686 -0.0732 -0.2021  0.0198
32786ION     NA48595   4.021   7.629   5.830 -0.1316  0.0138  0.2574
32787ION     NA48596   6.919   2.087  10.694  0.1903  0.1790 -0.3154
32788ION     NA48597  12.461  10.861   9.613 -0.1799  0.3133 -0.0367
32789ION     NA48598  10.075   1.350   1.917 -0.2828  0.1302  0.0552
32790ION     NA48599  12.386   0.156   4.250  0.1358 -0.0235 -0.1875
32791ION     NA48600   4.451  12.430   9.856 -0.3046 -0.2814  0.0589
32792ION     NA48601  14.531  10.844   3.577 -0.1346 -0.3840  0.1236
32793ION     NA48602  18.330   9.105   9.882  0.1727  0.1130  0.0399
32794ION     NA48603   4.728  11.158   9.963  0.2285  0.1809 -0.0893
32795ION     NA48604  10.301  19.120   9.664 -0.2789 -0.1377 -0.2123
32796ION     NA48605  18.048  16.164  10.091  0.2177  0.3574 -0.1158
32797ION     NA48606  12.178   0.049  11.607 -0.2681 -0.3544 -0.0600
32798ION     NA48607   4.281   5.900   9.462  0.0568  0.1641 -0.1600
32799ION     NA48608   0.518   1.653   9.954  0.0136  0.2403  0.1858
32800ION     NA48609   2.662  11.927  10.174  0.0252  0.0885  0.3390
32801ION     NA48610   1.763  10.885  10.357 -0.0140 -0.4772  0.2721
32802ION     NA48611   0.308  10.865  10.262  0.0745 -0.0904 -0.2314
32803ION     NA48612  12.207  14.617   9.866  0.1981  0.0588  0.0748
32804ION     NA48613  18.264  11.688   4.866  0.2688 -0.2155  0.0543
32805ION     NA48614   5.911  14.875   9.252  0.0531 -0.0038 -0.3050
32806ION     NA48615   6.240   8.800  10.125 -0.0339 -0.1034 -0.4090
32807ION     NA48616  10.813  13.264   9.618 -0.1247 -0.1951 -0.3292
32808ION     NA48617   5.968   1.133  11.442 -0.3046 -0.0468 -0.4254
32809ION     NA48618   6.958  14.830   9.708  0.5944  0.1335 -0.1265
32810ION     NA48619  16.419   7.103   9.868 -0.3682 -0.0782 -0.3550
32811ION     NA48620  11.874   7.161   9.844 -0.1145  0.2886  0.1759
32812ION     NA48621  10.091   1.650   9.807  0.0049 -0.2643  0.1418
32813ION     NA48622  17.506   6.532   3.030 -0.2254 -0.1161 -0.3159
32814ION     NA48623  12.192   4.910  10.299 -0.4259 -0.1729 -0.1576
32815ION     NA48624   7.201   1.271   9.213  0.2577  0.1606  0.0603
32816ION     NA48625   0.312   5.452   1.123 -0.0863 -0.0111 -0.3989
32817ION     NA48626   5.493  16.713  12.961  0.1117  0.0325 -0.5222
32818ION     NA48627   3.268  13.246  10.172 -0.4014 -0.0935  0.2619
32819ION     NA48628   4.085   9.257  10.194  0.2058  0.2272 -0.0823
32820ION     NA48629   3.144  13.198   9.678 -0.1535  0.0843 -0.1163
32821ION     NA48630  12.331   7.201   2.615 -0.1278  0.0610  0.1487
32822ION     NA48631  14.089  10.367   1.542  0.4344 -0.1436  0.5015
32823ION     NA48632   1.359   5.423   9.161  0.3218 -0.0495 -0.1988
32824ION     NA48633   5.144   1.141  13.184  0.1090 -0.1848  0.1112
32825ION     NA48634   0.973   5.455   0.288 -0.2242 -0.0657  0.0797
32826ION     NA48635  13.101  11.076   2.395  0.0385  0.0973  0.2295
32827ION     NA48636   1.997  12.709  10.122 -0.1221  0.0878  0.0514
32828ION     NA48637  13.600  10.138   5.640  0.1324  0.0330  0.2992
32829ION     NA48638   7.771  16.444   9.584 -0.1094  0.0289  0.0767
32830ION     NA48639   4.012  14.620   9.616  0.1778 -0.1902  0.1579
32831ION     NA48640  10.419   6.913   9.944  0.0160  0.1441 -0.0599
32832ION     NA48641  10.079   2.343   0.236 -0.1193  0.2332 -0.3230
32833ION     NA48642   1.453   8.501  10.125  0.1310 -0.0562 -0.3035
32834ION     NA48643   3.638   8.508   9.792 -0.0378 -0.2349 -0.1962
32835ION     NA48644   2.806  13.009   1.679  0.1672 -0.3956  0.1606
32836ION     NA48645   5.242   6.362  11.769  0.2540 -0.1339 -0.2375
32837ION     NA48646   9.612  11.418   9.607  0.1987  0.1920  0.0681
32838ION     NA48647  18.559   0.641   9.615  0.0138 -0.0862 -0.2282
32839ION     NA48648   2.100  10.004  12.399  0.1675  0.3106 -0.1638
32840ION     NA48649  15.265  11.272   9.915 -0.0126  0.0016 -0.1314
32841ION     NA48650  13.818   9.913   2.470 -0.1752  0.3018  0.0854
32842ION     NA48651   3.741   9.413  14.564 -0.0197  0.2133  0.1368
32843ION     NA48652   8.090   9.144   3.587 -0.2738 -0.1372 -0.1547
32844ION     NA48653   9.562  15.637   4.765  0.0192 -0.0970  0.0893
32845ION     NA48654  15.224   7.152  13.569  0.1469 -0.0956  0.0774
32846ION     NA48655  15.862   4.276   9.670  0.0459 -0.2583 -0.1451
32847ION     NA48656  18.111  13.820   4.683 -0.0910  0.1508 -0.0659
32848ION     NA48657   8.944   1.198   9.819 -0.0382  0.1038  0.1925
32849ION     NA48658   8.821   8.769  11.957 -0.3456  0.0145 -0.2747
32850ION     NA48659  10.709  12.855   5.324  0.1238 -0.0962  0.0991
32851ION     NA48660   5.126   7.181  10.892  0.4234 -0.1303 -0.0925
32852ION     NA48661  11.990  16.609   9.989 -0.0879  0.2269 -0.2447
32853ION     NA48662   2.247   4.942   9.053  0.4795 -0.0725 -0.0943
32854ION     NA48663  11.017   1.560   9.763 -0.0241 -0.0933 -0.1988
32855ION     NA48664  17.601   4.937   4.720 -0.2857  0.0259 -0.0924
32856ION     NA48665  15.721   6.367   9.744 -0.0106 -0.2622  0.3268
32857ION     NA48666   3.293   7.802  14.836 -0.1725  0.3100  0.0300
32858ION     NA48667  12.478   5.290   9.531  0.1400  0.1988  0.1127
32859ION     NA48668  10.216  18.577   9.794 -0.0571 -0.2279 -0.2562
32860ION     NA48669  16.464  14.443  14.898  0.2061 -0.4442  0.2590
32861ION     NA48670   5.445   8.381  10.063  0.2627 -0.0344  0.1656
32862ION     NA48671   8.570  11.899   4.452 -0.3044  0.0258  0.0245
32863ION     NA48672  17.948   9.468   5.533  0.1573 -0.0916 -0.0360
32864ION     NA48673  16.272  14.375   5.394 -0.2594  0.2901 -0.2176
32865ION     NA48674   4.788   4.209   1.884  0.2693  0.0293  0.1807
32866ION     NA48675  16.847   5.884   9.439 -0.0119 -0.0517 -0.1275
32867ION     NA48676  14.712   1.695   9.808  0.0754  0.2806 -0.0067
32868ION     NA48677   9.099  13.784  13.681  0.0290  0.2377 -0.1764
32869ION     NA48678  16.822   6.480   5.191 -0.0881 -0.0385 -0.4032
32870ION     NA48679  14.581  14.300   5.922  0.0564 -0.0269  0.2421
32871ION     NA48680  14.221  11.823  11.139 -0.3457 -0.0582  0.2017
32872ION     NA48681   7.284   7.227   0.722 -0.0814  0.1015  0.3097
32873ION     NA48682   2.202   2.291   9.259  0.3142 -0.4031  0.0637
32874ION     NA48683  10.139   5.791  14.661 -0.0962 -0.1737 -0.1129
32875ION     NA48684  18.950  10.793   1.616 -0.4156  0.0784  0.1329
32876ION     NA48685  15.086  17.870  10.054  0.3075 -0.0004 -0.1963
32877ION     NA48686  16.213  11.051   9.998  0.2354 -0.1387 -0.3425
32878ION     NA48687   0.365   7.974  10.355  0.1389  0.0030  0.0603
32879ION     NA48688   2.104  17.564  12.017  0.1528 -0.2430  0.1545
32880ION     NA48689   6.308  18.687   9.457  0.0257 -0.4653  0.4869
32881ION     NA48690  12.549  11.812   3.964 -0.2909 -0.0352  0.0757
32882ION     NA48691   8.408  10.322   9.433  0.2922  0.2681 -0.1643
32883ION     NA48692  16.983   2.940   9.358  0.2506 -0.1477  0.0551
32884ION     NA48693  17.648   6.829  10.052  0.2648  0.0280  0.0316
32885ION     NA48694  18.418   3.949  11.810 -0.0066  0.0430  0.0727
32886ION     NA48695   9.593  16.058   9.747  0.0459  0.2164 -0.0343
32887ION     NA48696   1.056   9.392  10.192 -0.1689  0.2325 -0.1896
32888ION     NA48697   2.144   0.252   5.394 -0.3174 -0.3024 -0.3018
32889ION     NA48698   3.796  10.221  12.840  0.2462  0.1596  0.2824
32890ION     NA48699   9.993   3.921  13.019 -0.2048  0.0120  0.2029
32891ION     NA48700   6.344  14.768  12.300  0.0237  0.3634 -0.0068
32892ION     NA48701   9.723   1.938   4.366 -0.1114  0.2298  0.2341
32893ION     NA48702  17.257  17.824   9.883 -0.0689 -0.0291  0.1179
32894ION     NA48703  16.570   5.693   0.251 -0.0858 -0.1760 -0.0336
32895ION     NA48704   1.283  10.261  13.440  0.2197  0.0008  0.2825
32896ION     NA48705  13.605  13.438   9.784  0.5430 -0.1423 -0.1144
32897ION     NA48706  12.577   8.467   0.202 -0.2996  0.0332  0.0192
32898ION     NA48707   4.318   0.513   9.387 -0.0737 -0.1245 -0.2481
32899ION     NA48708   2.037  19.082   9.812 -0.1090  0.2425 -0.2065
32900ION     NA48709   1.320  18.359   9.644  0.1269  0.1796 -0.1451
32901ION     NA48710   8.577  12.869   9.445  0.2268 -0.1401 -0.1765
32902ION     NA48711   4.708  15.200   9.413  0.1394 -0.0502  0.1347
32903ION     NA48712  10.074   2.948   9.440  0.1068 -0.2204 -0.2257
32904ION     NA48713  14.897   8.644   0.289 -0.0437  0.0832  0.0201
32905ION     NA48714   4.655   5.141  10.007 -0.2941 -0.3620 -0.0436
32906ION     NA48715   3.373   2.452   9.491  0.2421  0.0131 -0.1802
32907ION     NA48716  18.301   5.093   9.697 -0.3015 -0.0335  0.5167
32908ION     NA48717   9.602  13.295   4.569  0.0824 -0.1233  0.2837
32909ION     NA48718  14.613  15.695   0.319  0.0266  0.1088 -0.2495
32910ION     NA48719   7.797   4.272  13.729 -0.2532  0.1378 -0.1448
32911ION     NA48720   9.930   6.129  10.328 -0.2700  0.0750  0.2075
32912ION     NA48721   6.493  18.684  11.394 -0.1234  0.0688  0.1520
32913ION     NA48722   2.367  17.851   1.127  0.1969  0.0982  0.1969
32914ION     NA48723  12.932   9.005   1.223 -0.0980 -0.0545 -0.3189
32915ION     NA48724  11.287   2.474  14.728  0.0066 -0.1659 -0.0036
32916ION     NA48725  17.840  15.195   9.939 -0.4475  0.3798  0.4206
32917ION     NA48726   1.327   0.946   9.697  0.0223  0.3319  0.2323
32918ION     NA48727   8.906   2.539   1.361  0.0928  0.0974  0.3115
32919ION     NA48728   4.603   6.678   9.699  0.2880 -0.1584 -0.0717
32920ION     NA48729  13.412   6.303  10.282 -0.2148 -0.3234  0.1979
32921ION     NA48730  17.354   1.717   3.132  0.0331  0.2968  0.0312
32922ION     NA48731   5.379   8.805   5.727  0.0812 -0.1259 -0.2791
32923ION     NA48732   8.149  12.667  12.072  0.1720  0.7051 -0.0780
32924ION     NA48733  11.461  12.103   5.356  0.1009  0.1947  0.1575
32925ION     NA48734  13.865   4.929   9.746 -0.1637  0.0815 -0.0556
32926ION     NA48735  13.230  15.042   1.073 -0.0540 -0.2269  0.0408
32927ION     NA48736   8.679  15.837   9.431 -0.0228  0.2700  0.1674
32928ION     NA48737  16.599   0.325  12.252 -0.1476  0.0314 -0.1960
32929ION     NA48738  12.464   6.108   3.332  0.0925  0.0364  0.4695
32930ION     NA48739  18.647  14.706   9.741 -0.4858  0.1287  0.0694
32931ION     NA48740  11.171  12.736   9.667 -0.1397  0.4472  0.0283
32932ION     NA48741  17.523   3.841   9.370 -0.2059  0.1219  0.0462
32933ION     NA48742   3.014  15.345   2.337  0.0639  0.2196  0.1608
32934ION     NA48743   2.887   8.694   9.921  0.0715  0.2663  0.0635
32935ION     NA48744   5.168   0.332   8.970  0.2665  0.0182 -0.4266
32936ION     NA48745   7.573   9.523  10.053 -0.0521 -0.0761  0.0291
32937ION     NA48746  11.894  14.008   9.796 -0.2023 -0.1663 -0.2104
32938ION     NA48747  11.868   8.523   9.668  0.2596  0.2089  0.0869
32939ION     NA48748   7.067   5.250  12.243  0.1025  0.0040 -0.5031
32940ION     NA48749  12.425   8.354   4.031 -0.0797 -0.1404 -0.0129
32941ION     NA48750  13.576   2.318  10.113  0.0019 -0.1772  0.0267
32942ION     NA48751  10.362   2.967  13.144  0.2763 -0.2303 -0.0582
32943ION     NA48752   8.022  18.366   9.328  0.1015 -0.0363 -0.2122
32944ION     NA48753  11.907   2.614   5.314  0.0819 -0.1625  0.0667
32945ION     NA48754   6.530  19.077   2.749  0.2228  0.3200 -0.1647
32946ION     NA48755  17.734   1.001   3.571 -0.1451 -0.1402 -0.3223
32947ION     NA48756   7.086   4.381   1.794 -0.1359  0.3120  0.2963
32948ION     NA48757   8.370  12.029   9.243  0.0634 -0.0640  0.1867
32949ION     NA48758   6.764  12.513   9.513 -0.1554 -0.1536  0.1506
32950ION     NA48759   8.894   8.454   0.926  0.1001 -0.0743  0.1478
32951ION     NA48760   7.790  17.484  12.996 -0.1990  0.0110 -0.0073
32952ION     NA48761   2.312   6.804  14.368 -0.0721 -0.0948  0.0691
32953ION     NA48762   7.385  17.605   9.499 -0.1818  0.0811  0.0345
32954ION     NA48763  19.092  11.703  10.325 -0.0223 -0.0161 -0.1853
32955ION     NA48764   2.624   1.087   3.540  0.0783 -0.0152  0.0746
32956ION     NA48765   2.676  18.191   9.840  0.0424  0.0709  0.1042
32957ION     NA48766   1.697  16.692  12.366  0.0740  0.1924 -0.4881
32958ION     NA48767  13.429   8.690   9.772 -0.0864  0.2199  0.0477
32959ION     NA48768   4.274   3.302  14.969 -0.0320 -0.0624 -0.0232
32960ION     NA48769   1.447  13.646  12.484  0.0059 -0.0328  0.0302
32961ION     NA48770  18.753  12.008  15.172 -0.0498  0.1189  0.1484
32962ION     NA48771  18.773  18.902  15.144 -0.3526  0.2962 -0.1587
32963ION     NA48772   0.607  14.972   3.911 -0.0513 -0.3987 -0.2114
32964ION     NA48773   2.004  15.321   9.741 -0.2314 -0.1325  0.0187
32965ION     NA48774   9.961   9.022   5.700  0.3347  0.3531  0.1046
32966ION     NA48775  14.361  10.098  10.124 -0.0481 -0.3498 -0.1915
32967ION     NA48776  18.331   2.660  10.628  0.1083 -0.0921 -0.1094
32968ION     NA48777  17.225  13.729  10.039 -0.3193  0.0546  0.0208
32969ION     NA48778  10.733   8.822  10.034 -0.2198  0.3048  0.1013
32970ION     NA48779  14.194   3.658   4.369  0.1448  0.1579 -0.1251
32971ION     NA48780   5.076   9.362  10.318 -0.1538  0.0670  0.0597
32972ION     NA48781  16.109   3.482  14.418 -0.0477 -0.1558 -0.0731
32973ION     NA48782   8.375   2.136   0.042 -0.0213 -0.0564 -0.1835
32974ION     NA48783   3.745   6.794   9.423 -0.0691 -0.1332  0.2038
32975ION     NA48784  15.656   5.986  13.782  0.1589  0.2540 -0.1252
32976ION     NA48785   8.712   8.712  10.043 -0.0152  0.0111  0.2311
32977ION     NA48786   7.122  18.228  12.816  0.1220  0.1172  0.2661
32978ION     NA48787  10.298   2.385   4.963 -0.0790 -0.2770 -0.4790
32979ION     NA48788  11.692  18.793   0.040 -0.2950 -0.2620 -0.0748
32980ION     NA48789   2.951  18.913  13.705 -0.1980 -0.3653 -0.0578
32981ION     NA48790  12.651   9.572   4.038 -0.2302  0.3388  0.0134
32982ION     NA48791  18.090   2.904   9.590 -0.1226 -0.0774 -0.1616
32983ION     NA48792  17.222  15.399  10.043  0.0426  0.0012  0.1386
32984ION     NA48793  10.038   7.602   9.627 -0.4364 -0.2428 -0.1656
32985ION     NA48794   9.875  15.230   0.500 -0.0083 -0.3902 -0.0111
32986ION     NA48795   8.746  11.253   9.260 -0.0605 -0.1958 -0.0301
32987ION     NA48796  10.511   3.431   4.938 -0.1580  0.3166  0.2593
32988ION     NA48797   2.110  16.005  11.093 -0.5113 -0.1257  0.3983
32989ION     NA48798   0.021   1.770   9.523 -0.1866  0.5075 -0.3732
32990ION     NA48799   8.086  16.427   0.477  0.2665 -0.0963 -0.2024
32991ION     NA48800   5.397   9.856   3.974 -0.0341 -0.3418 -0.0423
32992ION     NA48801   7.527   4.378  10.022  0.1941  0.2258  0.2422
32993ION     NA48802   0.666  15.796  10.485  0.0220  0.0889  0.0051
32994ION     NA48803   2.118   6.186   9.476 -0.3353 -0.0291 -0.1714
32995ION     NA48804   1.382  13.004  10.020  0.1958  0.1858 -0.1843
32996ION     NA48805   8.012   6.378   5.753 -0.1530 -0.1315 -0.0863
32997ION     NA48806  16.000  12.765   5.500 -0.0759  0.0315 -0.0250
32998ION     NA48807   2.639   4.136   9.295 -0.0217 -0.0326  0.0622
32999ION     NA48808  15.569   1.271   9.878 -0.0019  0.4589  0.1406
33000ION     NA48809   5.476   3.723   5.299  0.0593 -0.1476  0.0401
33001ION     NA48810   2.786   5.394   0.920 -0.4667 -0.1191  0.1794
33002ION     NA48811  15.181   5.920   9.699  0.0865  0.0427  0.5357
33003ION     NA48812  10.611   3.514   9.469 -0.1155  0.1929 -0.0822
33004ION     NA48813  11.861   6.157   5.044 -0.2922  0.0138 -0.0809
33005ION     NA48814   6.782   2.034   9.416  0.0611  0.0603  0.3005
33006ION     NA48815   4.947  13.226   9.501 -0.1443 -0.2391  0.0965
33007ION     NA48816   0.080  15.403   9.980  0.0181  0.0088 -0.1952
33008ION     NA48817   7.778   5.253  10.404 -0.3757 -0.2626  0.0912
33009ION     NA48818  10.932   1.956   1.523  0.4207  0.0812 -0.1869
33010ION     NA48819   1.042  17.778  13.224 -0.0403  0.1513  0.0643
33011ION     NA48820  18.062  13.981   9.774  0.1045  0.0757 -0.0451
33012ION     NA48821   9.437   4.361   0.553 -0.0257  0.1702  0.0778
33013ION     NA48822   2.642   7.116   5.424  0.2670 -0.1397 -0.1705
33014ION     NA48823  12.826  14.825  10.899 -0.1305 -0.0149 -0.0475
33015ION     NA48824   4.699  15.792  10.213 -0.1695 -0.1111 -0.1026
33016ION     NA48825   3.437   3.575   9.358 -0.2135 -0.0087  0.1488
33017ION     NA48826   7.124  16.126  12.496 -0.0887  0.0720  0.0401
33018ION     NA48827   9.922   6.088   9.690 -0.1728  0.0737  0.0840
33019ION     NA48828   3.638  13.098  12.838 -0.2291 -0.2467  0.3383
33020ION     NA48829   9.635  10.965   5.430 -0.0070 -0.1955 -0.2913
33021ION     NA48830   6.403  18.837   1.816 -0.2075 -0.3864 -0.0575
33022ION     NA48831   9.139   5.595   5.489 -0.1803  0.3490  0.0884
33023ION     NA48832   5.299   2.724   9.713 -0.1778  0.0559 -0.0655
33024ION     NA48833   1.007  10.355  10.238  0.0298 -0.1280 -0.2536
33025ION     NA48834   1.681  11.775  10.172  0.3432 -0.1995 -0.1596
33026ION     NA48835  16.649   4.019   9.533 -0.5426  0.1268 -0.0947
33027ION     NA48836  10.342  13.174   9.590  0.0029  0.0493 -0.1264
33028ION     NA48837   4.042  14.122   5.718 -0.2715 -0.1052  0.1834
33029ION     NA48838  12.807   6.828   9.692  0.0122  0.1220 -0.0540
33030ION     NA48839   7.308   7.184   5.601  0.3850 -0.0877 -0.0306
33031ION     NA48840   6.235  13.152   5.322  0.0240  0.0984  0.3899
33032ION     NA48841   7.546  13.639   9.449  0.4439 -0.0330 -0.0105
33033ION     NA48842   9.177   2.894  12.242  0.1075 -0.0402  0.0174
33034ION     NA48843  15.551  10.363   9.783 -0.0358  0.2129 -0.0852
33035ION     NA48844  13.872   8.375   0.669 -0.2212 -0.1279 -0.0902
33036ION     NA48845  11.420   4.127   9.616  0.4561  0.2969 -0.0705
33037ION     NA48846  14.177   6.103   0.226 -0.2748  0.1986  0.3640
33038ION     NA48847   9.524   7.032   9.958  0.1995  0.0935 -0.0219
33039ION     NA48848   5.708  18.079   9.304 -0.2429 -0.4079 -0.0113
33040ION     NA48849  12.730  14.426  10.053  0.0673  0.0799 -0.1946
33041ION     NA48850   2.982   1.639   9.435 -0.2121  0.1921 -0.2089
33042ION     NA48851   5.050  12.313   3.311 -0.2696 -0.4025 -0.0249
33043ION     NA48852   2.387  13.669   9.797 -0.0367  0.0364  0.1513
33044ION     NA48853   4.698  14.868  15.212  0.0344 -0.2902 -0.0053
33045ION     NA48854   6.971  11.217   9.827  0.1745  0.1706  0.0736
33046ION     NA48855   2.114  14.328   3.160  0.1166 -0.2136  0.2095
33047ION     NA48856   4.450   2.745   9.658 -0.0660 -0.1187 -0.1056
33048ION     NA48857  18.994   3.661   5.195 -0.0856 -0.2270 -0.5678
33049ION     NA48858   9.921   7.010   3.957  0.0585 -0.0211  0.1109
33050ION     NA48859   4.720   9.966   0.151  0.2736  0.2214  0.1779
33051ION     NA48860  17.538   4.731   9.608 -0.3034 -0.1183  0.2414
33052ION     NA48861   4.992  17.315  13.699 -0.1389 -0.0026 -0.2975
33053ION     NA48862   5.572   6.923   4.062  0.1531 -0.1475 -0.0729
33054ION     NA48863   3.221  14.189   9.609  0.0284  0.1827  0.2412
33055ION     NA48864   7.698   4.922   0.374 -0.0367 -0.1798 -0.0054
33056ION     NA48865  10.066  14.523   9.858 -0.0877  0.0081 -0.0839
33057ION     NA48866  16.216   9.205   9.468  0.2379 -0.3860 -0.2232
33058ION     NA48867   2.037  16.186  10.146 -0.0978  0.0053 -0.0923
33059ION     NA48868   8.845   2.759  10.887 -0.2080 -0.0961  0.1435
33060ION     NA48869   7.364   9.690  14.490  0.2522  0.1303 -0.0198
33061ION     NA48870  17.185   2.027   1.288 -0.3273 -0.4194 -0.0400
33062ION     NA48871  13.552   8.539   5.437 -0.0410  0.3585 -0.1005
33063ION     NA48872  14.350  14.157  13.845  0.0761  0.1370  0.2137
33064ION     NA48873  10.389   3.902   9.681 -0.1729 -0.1966 -0.1390
33065ION     NA48874   9.492   1.146  11.018  0.0758  0.2662 -0.0432
33066ION     NA48875   7.480  15.405  14.487 -0.1196  0.0821 -0.3415
33067ION     NA48876  16.736  18.692   1.739  0.6063 -0.1220  0.1696
33068ION     NA48877  11.804   5.423   5.579 -0.1770 -0.1126  0.0029
33069ION     NA48878  15.599   4.495  13.540 -0.2323  0.0346 -0.7514
33070ION     NA48879  14.076  11.982  13.516  0.0263 -0.3111 -0.2986
33071ION     NA48880  14.617   9.530   9.878  0.2885 -0.1040 -0.0415
33072ION     NA48881  15.255  16.869   5.968 -0.2819  0.1426  0.2606
33073ION     NA48882   6.597   3.927   4.245  0.0495  0.2239 -0.2395
33074ION     NA48883  14.527   7.018   9.497 -0.1214 -0.0922 -0.1222
33075ION     NA48884   8.257   2.142   9.324  0.0831  0.0646  0.0859
33076ION     NA48885   7.702  16.822  12.225  0.5576 -0.2405  0.1267
33077ION     NA48886  16.096  14.286   9.802 -0.2792 -0.2114 -0.0406
33078ION     NA48887  18.283   3.914   5.186 -0.3915 -0.0897  0.1029
33079ION     NA48888   5.422  17.204   3.100  0.0678  0.2005  0.1451
33080ION     NA48889   5.959   6.563   9.976 -0.1276 -0.0762 -0.0361
33081ION     NA48890   3.715   2.089  12.480 -0.2505  0.0366 -0.1314
33082ION     NA48891  13.489  14.550   5.456  0.0438 -0.1162 -0.0189
33083ION     NA48892   9.606  17.219   1.623 -0.0795 -0.0343 -0.0789
33084ION     NA48893  11.217  17.145  12.088 -0.1444  0.2225  0.1762
33085ION     NA48894   0.262   0.519   9.624  0.0859 -0.0603  0.3757
33086ION     NA48895  17.737   0.459   9.753 -0.0342 -0.0357 -0.2058
33087ION     NA48896   3.174  18.904  10.791 -0.0331 -0.0485 -0.3232
33088ION     NA48897   5.844  11.321   4.216  0.0561  0.0019 -0.0033
33089ION     NA48898   8.538  16.697  10.048  0.3569 -0.0435  0.0142
33090ION     NA48899  17.268   7.656   9.743 -0.1476  0.0809 -0.2370
33091ION     NA48900  16.170   3.685   0.952 -0.4578 -0.0932 -0.0884
33092ION     NA48901  13.259   4.114   9.654  0.0082 -0.2584  0.2480
33093ION     NA48902   6.036  10.897   9.912  0.1652  0.2895 -0.0585
33094ION     NA48903  18.726  15.658   9.939 -0.4236 -0.0315  0.0901
33095ION     NA48904  12.687  15.884  13.633 -0.1597  0.3250 -0.2225
33096ION     NA48905   1.073  12.166   3.019 -0.0661 -0.1865  0.2204
33097ION     NA48906   9.728  18.556   5.685  0.3384 -0.0621 -0.0450
33098ION     NA48907   2.883   6.137   1.412  0.1453 -0.2593 -0.4692
33099ION     NA48908  10.923   4.299  12.190  0.0376  0.3028  0.0429
33100ION     NA48909   4.044  11.132  11.882  0.2383  0.2958 -0.2896
33101ION     NA48910  10.407  15.912   5.512 -0.0993 -0.0665 -0.1341
33102ION     NA48911  12.807  18.321  10.256  0.2717  0.0452  0.2241
33103ION     NA48912  11.271  16.977   5.134 -0.0679  0.2620  0.2645
33104ION     NA48913  11.206   0.277  11.337  0.0327 -0.0576  0.0473
33105ION     NA48914   5.546   1.696   9.758 -0.1607  0.2666  0.0516
33106ION     NA48915  14.774   5.181  10.001 -0.1228  0.0550 -0.2561
33107ION     NA48916   8.924  14.717   9.556  0.1023  0.0725 -0.4195
33108ION     NA48917  13.034  10.309  10.153  0.0516  0.0607 -0.1097
33109ION     NA48918   0.334   6.161  14.595 -0.4191  0.2277 -0.1529
33110ION     NA48919   6.867   2.971   9.272  0.0529 -0.2440  0.2140
33111ION     NA48920   3.655  13.438   1.870 -0.1740 -0.1717  0.2493
33112ION     NA48921   3.625  12.077  10.113 -0.1557 -0.0536  0.1350
33113ION     NA48922   1.922  17.153  10.186 -0.0549  0.0471 -0.0721
33114ION     NA48923  12.719   8.065   1.091 -0.1089 -0.2583 -0.1205
33115ION     NA48924  11.601  17.937   9.763  0.1486  0.0251 -0.0123
33116ION     NA48925  14.842  14.332  10.452  0.3486 -0.0906  0.1050
33117ION     NA48926  13.473   1.056   9.839 -0.2392 -0.2017 -0.0593
33118ION     NA48927  11.500   8.806   1.512  0.1086 -0.0500 -0.1014
33119ION     NA48928   6.740   9.740   4.357 -0.2163  0.0393 -0.0136
33120ION     NA48929   8.687  15.212   9.782  0.3961 -0.1466 -0.1898
33121ION     NA48930   6.143  11.793   9.761  0.1828 -0.0614  0.1099
33122ION     NA48931   8.155   3.876   9.391 -0.1307  0.2431 -0.0859
33123ION     NA48932  12.493   1.279   4.923  0.0522 -0.4229  0.0167
33124ION     NA48933   3.187  14.908   5.581  0.0945 -0.0866 -0.1513
33125ION     NA48934   0.703  18.644   4.501  0.0924  0.2053 -0.3357
33126ION     NA48935   1.311  16.849   5.457  0.1347  0.1762 -0.1161
33127ION     NA48936   6.939   5.875  14.013  0.0239 -0.0946 -0.1780
33128ION     NA48937   2.565  16.555   0.881  0.1136  0.0325 -0.1021
33129ION     NA48938   6.333  10.369   5.196  0.0031 -0.0706 -0.2236
33130ION     NA48939  18.717   9.976  10.551 -0.0776 -0.1082 -0.0172
33131ION     NA48940   6.901   6.057   4.175 -0.1121  0.2316 -0.4234
33132ION     NA48941  10.251  12.003   5.696  0.1261 -0.1850 -0.0160
33133ION     NA48942  18.691   3.668  10.567  0.4752  0.1429  0.0443
33134ION     NA48943  12.216   9.543   5.725 -0.0029  0.2121  0.0198
33135ION     NA48944   4.773  16.960   9.475  0.1861 -0.0579  0.1098
33136ION     NA48945   8.707   1.415   5.159 -0.1424 -0.1240 -0.0089
33137ION     NA48946   9.302  18.172   9.498 -0.2033 -0.2767 -0.2222
33138ION     NA48947   5.417  14.933  12.538  0.2691  0.0147 -0.1945
33139ION     NA48948   7.169   6.190  11.884 -0.1191  0.0899 -0.2816
33140ION     NA48949   1.104  17.285   9.713 -0.1618 -0.0921 -0.0143
33141ION     NA48950   4.875   7.613   5.137 -0.0464 -0.1560 -0.0282
33142ION     NA48951  15.051   3.886   9.781  0.1318  0.0792  0.1443
33143ION     NA48952   6.278  15.406   9.370 -0.0754  0.2526 -0.1586
33144ION     NA48953   1.476  14.894   9.901 -0.1042 -0.2692  0.0721
33145ION     NA48954   7.964   7.197  11.261 -0.2960 -0.2346 -0.0577
33146ION     NA48955  14.913   5.634   5.458 -0.0431  0.3782  0.0999
33147ION     NA48956   9.627   2.113  10.523  0.1326 -0.0729  0.0568
33148ION     NA48957  12.509  11.210   0.461 -0.2305  0.1954 -0.3670
33149ION     NA48958   0.758   5.914   4.254  0.1120  0.1921 -0.0495
33150ION     NA48959   9.748   3.666  11.290 -0.1211 -0.0497 -0.0836
33151ION     NA48960   2.282   3.117   9.362  0.3454 -0.2522 -0.0948
33152ION     NA48961  18.992   4.434   1.295  0.1704 -0.0157 -0.1228
33153ION     NA48962  10.460  11.318  12.420 -0.0794 -0.0317  0.1262
33154ION     NA48963   2.153   8.107   9.896  0.0211 -0.3380 -0.0492
33155ION     NA48964   1.363  10.084   3.427 -0.0990 -0.2090  0.1271
33156ION     NA48965  17.506  15.760  13.957  0.0889  0.0123  0.1511
33157ION     NA48966   3.574   5.424  13.543  0.0612 -0.2300  0.0234
33158ION     NA48967   9.642  16.677  10.073  0.1373  0.0483 -0.3568
33159ION     NA48968  18.363  15.668   5.602 -0.0295  0.2698  0.1608
33160ION     NA48969   2.689  10.843  10.724  0.0108  0.0004  0.1543
33161ION     NA48970  12.653  14.927   5.546  0.0210 -0.2813  0.0223
33162ION     NA48971  15.463  12.928   9.972  0.3479  0.0914  0.3134
33163ION     NA48972   9.203  11.934   9.620  0.0333 -0.1007  0.0272
33164ION     NA48973   9.392  17.743  15.139  0.3777 -0.0792  0.0821
33165ION     NA48974   6.099   5.593   9.873  0.0160 -0.1380  0.1443
33166ION     NA48975  14.996   5.217  13.676 -0.3515 -0.3082  0.1147
33167ION     NA48976   9.359   5.727   9.772  0.0541  0.1075  0.3023
33168ION     NA48977  10.743  15.836  12.849  0.1450  0.0372  0.0177
33169ION     NA48978   5.880  15.924   2.391 -0.2886  0.0606  0.0979
33170ION     NA48979   7.517   0.456   2.724 -0.4340 -0.0999  0.0043
33171ION     NA48980   3.596   5.178  10.305 -0.2858  0.1214 -0.0907
33172ION     NA48981   8.598   6.791  10.034 -0.1041 -0.1091  0.2889
33173ION     NA48982   7.827  17.315   5.087 -0.0029  0.0666  0.1475
33174ION     NA48983   4.094  14.765   4.711  0.0629  0.3907 -0.2922
33175ION     NA48984  12.840   9.308  10.225 -0.0155  0.0785  0.0358
33176ION     NA48985   8.711  12.446  13.363 -0.5546 -0.4174  0.2728
33177ION     NA48986   6.196  13.344   9.925  0.2184  0.1804  0.1117
33178ION     NA48987   1.418  11.238  10.020  0.0086  0.1363 -0.1377
33179ION     NA48988  13.052  16.990   3.468 -0.0777  0.1638  0.5766
33180ION     NA48989   7.348   3.839   9.590  0.2340  0.1151  0.0026
33181ION     NA48990   4.304  10.436   1.961 -0.1567  0.1595  0.1003
33182ION     NA48991   2.702  16.990  13.760  0.3206 -0.2144 -0.1256
33183ION     NA48992   9.203   7.849   9.678  0.0734  0.0825  0.1815
33184ION     NA48993  10.284  11.431   5.036 -0.1738  0.1872 -0.0352
33185ION     NA48994  17.825   1.445   9.415  0.0564 -0.0981 -0.3030
33186ION     NA48995   6.212   4.772  10.001 -0.4392  0.1955 -0.5399
33187ION     NA48996  12.207   9.890   9.773 -0.3188 -0.2114 -0.2316
33188ION     NA48997  16.481   9.818   5.518  0.1336  0.4048 -0.2194
33189ION     NA48998  19.024  16.227  10.014  0.0451  0.4977 -0.1613
33190ION     NA48999   8.204   1.009   9.269 -0.0283  0.1435 -0.1518
33191ION     NA49000  13.699   7.223   9.471 -0.2306  0.0308  0.1186
33192ION     NA49001  12.173  12.658   9.713  0.5554 -0.1085  0.1524
33193ION     NA49002   4.843  14.405   9.548 -0.0654  0.0374 -0.2105
33194ION     NA49003  10.781   9.954   5.396 -0.0841  0.1320 -0.3750
33195ION     NA49004   2.569  12.665   5.512 -0.0504  0.0279 -0.0911
33196ION     NA49005   9.877   0.612   9.760 -0.0876 -0.3127  0.1353
33197ION     NA49006  11.646  11.128   9.865 -0.0760 -0.0987  0.0463
33198ION     NA49007   3.586   3.513  11.361  0.3644  0.0909 -0.1115
33199ION     NA49008  12.199   6.182   9.586  0.2317  0.1444  0.0003
33200ION     NA49009  12.326   8.039  10.032 -0.2766 -0.1219  0.0018
33201ION     NA49010  11.773  11.317   5.459 -0.1879 -0.0765  0.0492
33202ION     NA49011  14.405   8.827   9.712  0.1779  0.0122  0.3148
33203ION     NA49012   3.882   7.560   9.669  0.0621 -0.1935 -0.2673
33204ION     NA49013   0.471   3.114   9.201 -0.0036  0.2045 -0.1842
33205ION     NA49014   8.661   0.029   9.642  0.0455  0.0982  0.3275
33206ION     NA49015  19.132  10.306  10.189 -0.0368 -0.0928 -0.2726
33207ION     NA49016   0.559  12.915   9.932  0.1353  0.2227  0.2439
33208ION     NA49017   7.435  16.494   5.555  0.2549  0.1988  0.0288
33209ION     NA49018  12.681   1.069   3.909  0.1342  0.2325 -0.0712
33210ION     NA49019   8.571   6.057  13.217 -0.1826  0.0515 -0.0444
33211ION     NA49020   0.135   9.424   9.994  0.1796 -0.3233  0.1342
33212ION     NA49021   4.744   1.545  11.232  0.0489 -0.3893  0.0351
33213ION     NA49022  13.770  13.594  14.117  0.0096 -0.4580  0.0530
33214ION     NA49023   3.834  16.808   9.599 -0.2638  0.1786  0.0464
33215ION     NA49024   7.923   6.528   5.246  0.1466  0.2232  0.0611
33216ION     NA49025   4.476   9.548   2.858  0.0394  0.1923 -0.3653
33217ION     NA49026   2.083   0.839   9.823  0.0685 -0.0784  0.1312
33218ION     NA49027  16.438  13.057   3.699 -0.0018 -0.2278  0.2873
33219ION     NA49028   0.152   6.163   0.487 -0.0831 -0.0544  0.0649
33220ION     NA49029  11.862   2.491   9.467  0.1229  0.0303  0.0193
33221ION     NA49030  13.689   0.124   3.746  0.1174  0.0062  0.1711
33222ION     NA49031  12.590   4.624   5.044 -0.4410  0.2873 -0.4428
33223ION     NA49032  12.436   3.800   9.452  0.0278  0.4805 -0.0683
33224ION     NA49033   0.913   4.624   9.037 -0.0674 -0.0473 -0.2052
33225ION     NA49034  18.397   3.412   9.339  0.2260  0.1023 -0.0517
33226ION     NA49035   5.632  14.783   5.158  0.4174 -0.0082 -0.0530
33227ION     NA49036   5.890   3.498   9.595 -0.1509  0.3002  0.0552
33228ION     NA49037   6.522   0.855   4.817 -0.0840  0.0236 -0.0154
33229ION     NA49038   7.872   2.815   3.889  0.0216 -0.1871 -0.1706
33230ION     NA49039   1.123   9.485   5.922 -0.0334 -0.2239 -0.0410
33231ION     NA49040   5.288  15.501   0.206 -0.0780  0.0526  0.2306
33232ION     NA49041   7.698   0.131   9.280  0.1842  0.2756 -0.3906
33233ION     NA49042   5.348   8.032   3.172 -0.2495  0.3866  0.1017
33234ION     NA49043   9.516  17.801   3.285  0.2407  0.1675 -0.2392
33235ION     NA49044  14.447   7.248   9.979  0.1300 -0.0130  0.0481
33236ION     NA49045   3.381  11.240  12.678 -0.0873 -0.0710  0.0246
33237ION     NA49046  17.504   5.344  13.690 -0.3353  0.0558 -0.0625
33238ION     NA49047  10.963  11.990   9.207  0.2077  0.0774 -0.2160
33239ION     NA49048  11.138  18.838   9.847 -0.2950 -0.0791  0.0516
33240ION     NA49049  18.569   8.257  10.042 -0.2613  0.1499  0.0335
33241ION     NA49050  11.089   5.474   0.552 -0.0191  0.0412  0.1791
33242ION     NA49051   3.326   9.719  13.837  0.2802 -0.2011  0.0182
33243ION     NA49052   4.702   4.299   5.220  0.0174  0.0949  0.2709
33244ION     NA49053  16.426  13.838   9.765 -0.0848 -0.2383  0.1655
33245ION     NA49054   0.898  12.031  10.200 -0.0260 -0.1008  0.0264
33246ION     NA49055  16.477  18.593   3.314 -0.0161 -0.0515  0.0289
33247ION     NA49056  15.186  10.337  10.172  0.0056  0.3646 -0.1015
33248ION     NA49057   5.111   0.773  11.075  0.0339 -0.2086  0.3156
33249ION     NA49058   3.184  15.690   9.819 -0.4908 -0.0375 -0.0238
33250ION     NA49059   1.042   9.877  14.196  0.1403 -0.1424 -0.1145
33251ION     NA49060   1.956   1.920  15.192 -0.0669 -0.0261  0.1479
33252ION     NA49061  15.239   4.368   9.674 -0.0121  0.1350 -0.2041
33253ION     NA49062   5.916   1.838   0.360  0.1679 -0.2137 -0.0125
33254ION     NA49063   2.043   8.178  13.976 -0.1518  0.0931  0.0451
33255ION     NA49064   2.304  14.333   9.882 -0.0213  0.1684  0.3964
33256ION     NA49065  14.717  16.665  15.195 -0.1182  0.1805  0.1332
33257ION     NA49066  11.954   1.966  11.393  0.2707 -0.0421  0.1522
33258ION     NA49067  18.496   4.628   9.539  0.1142 -0.0051 -0.1970
33259ION     NA49068   0.948  19.101   9.867  0.5250  0.0705 -0.2161
33260ION     NA49069   7.051  15.627   9.560  0.0134 -0.0043 -0.1024
33261ION     NA49070  18.831   2.471   9.251 -0.1198 -0.2227 -0.1029
33262ION     NA49071  18.890   6.339  11.580 -0.3180  0.1246  0.3144
33263ION     NA49072  18.965   3.791   9.201  0.2045 -0.3502  0.4517
33264ION     NA49073   4.403  16.211   1.485  0.5671  0.2109  0.0127
33265ION     NA49074  14.857   8.064  14.158 -0.1870 -0.1280  0.0064
33266ION     NA49075  10.545  16.689   9.723 -0.3656 -0.1518  0.2380
33267ION     NA49076  11.483  13.234   5.445 -0.0851  0.3799 -0.0770
33268ION     NA49077  17.472   9.903   9.821 -0.0154  0.0575  0.0367
33269ION     NA49078   3.894   4.834   9.560  0.0656  0.0506  0.0039
33270ION     NA49079   5.496   6.092  13.546 -0.1255  0.2606  0.0724
33271ION     NA49080  12.623   5.383  10.008  0.0755  0.0619  0.0355
33272ION     NA49081   4.991   0.487  14.814  0.1275  0.0363 -0.3074
33273ION     NA49082  12.060   4.672   2.310 -0.0223 -0.0631  0.2061
33274ION     NA49083  12.692   1.504   9.914  0.2458  0.1101 -0.0352
33275ION     NA49084  10.247   5.692   9.516 -0.0633 -0.3752  0.4684
33276ION     NA49085   6.927  10.260   9.878 -0.2008  0.0176  0.0866
33277ION     NA49086  10.332  17.692   9.661 -0.2463 -0.4949  0.1076
33278ION     NA49087  11.824  10.333   9.946 -0.3242 -0.0969 -0.0665
33279ION     NA49088  13.788   1.425   9.899  0.0488 -0.2903 -0.0649
33280ION     NA49089  14.772  13.411  10.036  0.1795  0.0419  0.1110
33281ION     NA49090   0.740  14.634   9.892  0.0717  0.1184 -0.1533
33282ION     NA49091  16.694   8.223   0.273 -0.1609 -0.2642  0.0412
33283ION     NA49092  16.239  18.629   9.846  0.1901  0.1292  0.1598
33284ION     NA49093  16.818   9.136  14.892  0.0569 -0.2130  0.1758
33285ION     NA49094  15.397   1.149   5.786  0.1104  0.0803 -0.0295
33286ION     NA49095  15.602  18.715  10.227 -0.1962  0.0750  0.1080
33287ION     NA49096   8.372   8.646   0.022  0.3282  0.1632  0.2864
33288ION     NA49097  14.729   1.507   1.305 -0.1542 -0.2302  0.1720
33289ION     NA49098   9.848   2.133  13.061  0.2485  0.1117 -0.2613
33290ION     NA49099  12.527   9.166  14.470  0.3543  0.2120  0.2545
33291ION     NA49100   5.483   1.284   9.003 -0.1445 -0.1972  0.2524
33292ION     NA49101   3.931   1.437   9.570  0.0238  0.0523  0.0211
33293ION     NA49102  14.770   0.026   9.985  0.1482 -0.0352 -0.1507
33294ION     NA49103   7.158  18.595   9.213  0.0807 -0.0020 -0.0038
33295ION     NA49104  14.991  12.095   9.922  0.0107 -0.0754  0.0861
33296ION     NA49105   9.810  17.025   9.626  0.2995 -0.3257 -0.3320
33297ION     NA49106  14.613  16.927  12.272 -0.1393  0.1907 -0.2327
33298ION     NA49107   6.947   8.541   9.762  0.0166 -0.0800  0.1273
33299ION     NA49108   4.557  11.892   1.092  0.2900 -0.1857 -0.0545
33300ION     NA49109  10.979   0.597   0.169  0.0868 -0.1121  0.2061
33301ION     NA49110  13.587   2.971   9.543 -0.1641  0.0805  0.1428
33302ION     NA49111   8.771   3.082   9.405 -0.0673 -0.3141 -0.2163
33303ION     NA49112   3.888  11.506  10.112 -0.1378 -0.0634  0.1259
33304ION     NA49113   7.242   3.013   5.312  0.0937  0.1982 -0.1195
33305ION     NA49114   4.096  15.873   9.529 -0.2912  0.3003  0.2419
33306ION     NA49115   5.048   2.335  14.059  0.2405  0.0723 -0.1097
33307ION     NA49116   8.868  14.645   5.393  0.4808  0.1260 -0.0514
33308ION     NA49117   8.160   4.141   4.857 -0.0112  0.1796  0.1787
33309ION     NA49118   0.175   4.607   9.207  0.1025  0.0501  0.2463
33310ION     NA49119  10.508   7.399   5.409  0.1137 -0.4053 -0.0488
33311ION     NA49120   6.098  17.734   9.407 -0.1968  0.0018 -0.3767
33312ION     NA49121  12.694  12.957   0.971 -0.2023 -0.3316  0.1560
33313ION     NA49122  13.740  10.864  10.025 -0.0520 -0.0668  0.0431
33314ION     NA49123   3.927   5.727  12.187  0.1993 -0.0400 -0.2786
33315ION     NA49124  16.539   2.751  13.328 -0.2461 -0.1945  0.2129
33316ION     NA49125   7.055  15.915   5.524 -0.0959  0.1537  0.4576
33317ION     NA49126  10.313  17.795  11.017  0.0553  0.0316 -0.0930
33318ION     NA49127   1.805  10.099   4.473  0.3698  0.2572 -0.0092
33319ION     NA49128  11.941  16.512   5.731 -0.0431 -0.1520 -0.0730
33320ION     NA49129   5.933   9.668  10.082  0.0506 -0.1804 -0.2394
33321ION     NA49130  13.541  15.214   3.414  0.4053 -0.1815 -0.1050
33322ION     NA49131  14.395  12.993   0.225 -0.2078  0.1351  0.1613
33323ION     NA49132   4.236   0.269   5.277  0.3836  0.2896 -0.1023
33324ION     NA49133  16.595  12.954  12.551 -0.0058  0.1573 -0.1165
33325ION     NA49134  15.106   2.487  14.156 -0.0604  0.0646  0.1317
33326ION     NA49135   7.150   2.107  15.034  0.1371 -0.0705  0.1896
33327ION     NA49136   0.359  13.014   2.421 -0.2704 -0.1371 -0.0134
33328ION     NA49137   3.457   9.318  10.179 -0.1016 -0.3232  0.1521
33329ION     NA49138   4.133  11.772   3.467 -0.0309 -0.0981  0.2303
33330ION     NA49139   7.903  15.101   9.476 -0.1176  0.2890  0.2406
33331ION     NA49140  10.434   0.195   4.240  0.0429  0.0109  0.1500
33332ION     NA49141  13.943  11.827   0.435  0.0741 -0.0837 -0.4993
33333ION     NA49142   6.385   1.318   2.513 -0.1568 -0.0339  0.0411
33334ION     NA49143   5.134  13.496  10.183  0.0571  0.2623 -0.0861
33335ION     NA49144   5.599   0.319   9.168  0.1725  0.2448  0.0678
33336ION     NA49145   6.570   4.300   9.732 -0.0742  0.3178  0.0380
33337ION     NA49146  13.393  11.371  12.072 -0.0353  0.0656  0.2205
33338ION     NA49147  10.058   4.128   5.241 -0.4534 -0.0898  0.0899
33339ION     NA49148  11.171  17.058   5.656 -0.0821 -0.2249 -0.0973
33340ION     NA49149  14.599   9.901  13.972  0.1626  0.0109  0.1063
33341ION     NA49150  10.027  11.591  14.674 -0.0240 -0.0016 -0.0687
33342ION     NA49151   3.665  10.669   5.607 -0.1845 -0.0466 -0.1121
33343ION     NA49152   3.603  16.258  12.044  0.3055  0.1946  0.2268
33344ION     NA49153  15.820   5.236   9.812  0.0091  0.2762 -0.2521
33345ION     NA49154  17.164   2.110   9.372  0.1505 -0.3065 -0.1040
33346ION     NA49155  16.467  11.609   3.879 -0.0042  0.0496  0.0864
33347ION     NA49156   0.369   7.963   5.884 -0.2971 -0.1987 -0.1097
33348ION     NA49157  14.346  17.879   3.128 -0.5500  0.0048 -0.5351
33349ION     NA49158  13.304  15.106  10.136  0.0290  0.0244 -0.3090
33350ION     NA49159  10.562   4.889   9.633  0.2809 -0.0118  0.0795
33351ION     NA49160  19.003  13.014   9.943  0.0319  0.2821  0.3240
33352ION     NA49161   7.693  12.681   9.206 -0.1359 -0.0756  0.0611
33353ION     NA49162   3.355   7.404   1.995 -0.0486  0.4133 -0.0188
33354ION     NA49163  17.934  11.165  12.848 -0.0898  0.0800  0.0692
33355ION     NA49164   8.805   1.862  13.528 -0.1578  0.5223 -0.2518
33356ION     NA49165  10.130   7.537  12.734 -0.3909 -0.2055  0.4530
33357ION     NA49166  17.531  14.880   5.834 -0.2540  0.1825  0.0324
33358ION     NA49167   3.106  12.578  14.016 -0.0959  0.2888 -0.1429
33359ION     NA49168   0.336   1.258  13.730  0.4415  0.2134  0.1202
33360ION     NA49169  14.560   4.795  14.742 -0.1060 -0.0379 -0.0574
33361ION     NA49170  10.973  14.779  14.533 -0.0262 -0.2256 -0.0317
33362ION     NA49171  16.307  12.527   9.993  0.2755  0.2548  0.0501
33363ION     NA49172   5.998  16.630   9.145 -0.1543 -0.1780  0.0633
33364ION     NA49173   7.566   1.344  14.963  0.2163  0.4713 -0.0372
33365ION     NA49174  13.364  16.626  10.378 -0.0494  0.1839 -0.0183
33366ION     NA49175  10.299   5.095   2.576 -0.0901 -0.1757  0.0087
33367ION     NA49176   5.380  17.554   1.604  0.2802 -0.1379  0.1824
33368ION     NA49177   1.704   1.346  14.368 -0.2995 -0.0021  0.1682
33369ION     NA49178   2.897  15.792   3.186 -0.0366  0.3434 -0.1618
33370ION     NA49179   3.926  17.824   9.526  0.3052 -0.2474  0.0685
33371ION     NA49180  16.901   7.965   5.432  0.0672  0.0978  0.1873
33372ION     NA49181   7.722   1.000  10.120 -0.2415  0.1008  0.0956
33373ION     NA49182  12.662   0.269   2.862 -0.0624  0.3985  0.0318
33374ION     NA49183   0.168  12.588  11.203  0.0740  0.2736  0.1286
33375ION     NA49184   2.259  11.165  10.328  0.2376 -0.0872 -0.0494
33376ION     NA49185   8.226   6.175  10.354  0.1183  0.2501 -0.0425
33377ION     NA49186  16.479  16.217  10.337 -0.0173 -0.1596  0.2837
33378ION     NA49187  18.185  16.883   1.435  0.2179 -0.0316 -0.1418
33379ION     NA49188  16.528  14.079   1.107 -0.0143 -0.1253 -0.0454
33380ION     NA49189  12.298   2.112   4.540 -0.2581 -0.1540 -0.2197
33381ION     NA49190  11.693  13.620   9.600 -0.0339 -0.1270 -0.3037
33382ION     NA49191   2.085  13.757  15.245  0.3141 -0.2409 -0.0046
33383ION     NA49192  18.622   4.101  13.696  0.1107 -0.0138 -0.0570
33384ION     NA49193   4.548   4.303   9.678 -0.1978 -0.0375 -0.1470
33385ION     NA49194   6.167  17.199   5.252 -0.1338  0.2478  0.2234
33386ION     NA49195  10.504   0.938   9.939 -0.3908  0.2731  0.1951
33387ION     NA49196   4.569   1.690   0.568  0.0467 -0.0171 -0.3096
33388ION     NA49197  19.115   0.394   5.418 -0.0147  0.2453  0.0793
33389ION     NA49198  11.919   2.500  10.073  0.0384  0.0285  0.4415
33390ION     NA49199  17.307  18.943   5.480  0.3043 -0.0275  0.3182
33391ION     NA49200  15.986   1.479   1.259  0.0291 -0.0148 -0.1022
33392ION     NA49201   9.942  12.906   5.654 -0.0394 -0.0796 -0.2416
33393ION     NA49202   6.247   1.378   9.227 -0.0473 -0.0437  0.0750
33394ION     NA49203   0.771   3.767   9.266 -0.2219  0.3134  0.0409
33395ION     NA49204  12.004  15.225   4.324 -0.0115 -0.1308 -0.0090
33396ION     NA49205   2.230  17.656  10.674  0.2201 -0.1624  0.0728
33397ION     NA49206   4.944  15.828   9.444 -0.1654 -0.3013  0.1410
33398ION     NA49207  14.568  15.146  10.222 -0.2641  0.0932 -0.0077
  19.13629  19.13629  15.26964
