INSANE! Membrane UpperLeaflet>loPI:POPI:DPPI:PYPI:ERGO=140.0:15.0:9.0:6.0:30.0 LowerLeaflet>PSPI:POPI:POPS:YOPS:POPE:YOPE:POPC:YOPC:ERGO=6.0:14.0:21.0:9.0:9.0:21.0:12.0:48.0:60.0
49207
    1loPI    C1    1   5.821   6.451  10.168 -0.1348  0.0262 -0.0460
    1loPI    C2    2   5.474   6.649  10.196 -0.1881 -0.0575 -0.1097
    1loPI    C3    3   5.513   6.287  10.363 -0.1256 -0.0410 -0.0879
    1loPI   PO4    4   5.887   6.470   9.912 -0.0095 -0.0638 -0.1280
    1loPI   GL1    5   5.808   6.292   9.508  0.0214  0.0711  0.0043
    1loPI   GL2    6   5.725   6.620   9.409 -0.3410  0.0629 -0.0913
    1loPI   C1A    7   5.810   6.096   9.131 -0.2153  0.0055 -0.2796
    1loPI   C2A    8   5.557   5.869   8.701  0.1791 -0.2660  0.1183
    1loPI   C3A    9   5.429   5.626   8.405  0.1608 -0.0373 -0.0907
    1loPI   C4A   10   5.174   5.729   8.047  0.0805 -0.2919 -0.0351
    1loPI   C5A   11   4.988   5.649   7.661 -0.0714 -0.2303  0.1891
    1loPI   C6A   12   4.973   5.432   7.364 -0.1433  0.1789 -0.0531
    1loPI   C1B   13   5.775   6.702   8.990  0.1419 -0.1028  0.1316
    1loPI   C2B   14   5.578   6.878   8.578  0.0270 -0.3097  0.1840
    1loPI   C3B   15   5.198   7.006   8.340 -0.0146 -0.1240  0.0411
    1loPI   C4B   16   5.041   6.914   7.870 -0.0543  0.0477  0.0250
    2loPI    C1   17   0.430  10.469  10.404  0.0419 -0.2115  0.0407
    2loPI    C2   18   0.828  10.439  10.419  0.0476 -0.2891 -0.2164
    2loPI    C3   19   0.621  10.519  10.752  0.2900 -0.0842 -0.1113
    2loPI   PO4   20   0.348  10.628  10.212 -0.2416 -0.3534  0.1169
    2loPI   GL1   21   0.267  10.543   9.732  0.1016  0.1743 -0.0734
    2loPI   GL2   22   0.481  10.825   9.781  0.0391 -0.3135  0.1071
    2loPI   C1A   23   0.130  10.590   9.373  0.4168 -0.2211  0.0228
    2loPI   C2A   24  -0.069  10.538   8.932 -0.0076  0.1472  0.0765
    2loPI   C3A   25  -0.072  10.465   8.499 -0.0186 -0.1691  0.1711
    2loPI   C4A   26  -0.177  10.452   8.041 -0.6244 -0.1250 -0.1219
    2loPI   C5A   27  -0.213  10.688   7.747  0.3467  0.0212 -0.1205
    2loPI   C6A   28  -0.282  10.673   7.293  0.2868  0.2821  0.1363
    2loPI   C1B   29   0.672  10.727   9.367 -0.1537 -0.1116  0.2129
    2loPI   C2B   30   0.746  10.884   9.005 -0.0484  0.0276 -0.2112
    2loPI   C3B   31   0.573  10.985   8.571 -0.0797  0.1193 -0.0609
    2loPI   C4B   32   0.509  11.170   8.140 -0.0894 -0.1598  0.3575
    3loPI    C1   33   3.978   4.530  10.616 -0.0002 -0.0031 -0.0381
    3loPI    C2   34   4.150   4.880  10.706 -0.2277  0.0872  0.0562
    3loPI    C3   35   3.764   4.869  10.602 -0.1487 -0.1024 -0.2295
    3loPI   PO4   36   4.045   4.334  10.351 -0.2763 -0.0821 -0.1701
    3loPI   GL1   37   4.048   4.386   9.837 -0.1217  0.2950 -0.3501
    3loPI   GL2   38   4.107   4.058   9.819  0.2671 -0.1709 -0.1735
    3loPI   C1A   39   3.968   4.609   9.409  0.2015  0.2363 -0.1087
    3loPI   C2A   40   4.084   5.016   9.180 -0.2359 -0.0369 -0.0591
    3loPI   C3A   41   4.165   5.171   8.798  0.4944 -0.0845  0.0667
    3loPI   C4A   42   4.179   4.990   8.349  0.1126  0.1589 -0.1406
    3loPI   C5A   43   4.345   4.889   7.985  0.1556 -0.0221  0.1270
    3loPI   C6A   44   4.181   4.936   7.592  0.0811 -0.1367 -0.0226
    3loPI   C1B   45   4.044   3.729   9.488  0.0234  0.1524  0.0585
    3loPI   C2B   46   4.051   3.646   9.039  0.0566  0.2127  0.2449
    3loPI   C3B   47   4.148   3.533   8.650 -0.3718 -0.0721 -0.0818
    3loPI   C4B   48   4.272   3.526   8.299  0.2806 -0.1233  0.0276
    4loPI    C1   49  16.846   4.368  10.637 -0.0880 -0.0444 -0.1951
    4loPI    C2   50  16.867   3.972  10.587 -0.2403 -0.0632 -0.1166
    4loPI    C3   51  16.758   4.124  10.941  0.2469  0.0579 -0.0109
    4loPI   PO4   52  16.765   4.418  10.339 -0.1144 -0.3905  0.0447
    4loPI   GL1   53  16.702   4.352   9.933  0.0403  0.1541 -0.0037
    4loPI   GL2   54  16.886   4.086   9.982 -0.1701 -0.0136  0.2912
    4loPI   C1A   55  16.726   4.207   9.529 -0.4059 -0.2280  0.2251
    4loPI   C2A   56  16.811   4.175   9.000  0.0732 -0.0240  0.1605
    4loPI   C3A   57  16.741   4.257   8.500  0.1394  0.2896  0.0008
    4loPI   C4A   58  16.816   4.285   7.966  0.2015  0.2265  0.1948
    4loPI   C5A   59  16.933   4.481   7.614  0.0121  0.0466 -0.1546
    4loPI   C6A   60  16.973   4.815   7.471 -0.1353  0.1205  0.1401
    4loPI   C1B   61  17.074   3.863   9.578  0.2754  0.1658  0.0518
    4loPI   C2B   62  17.270   3.957   9.168 -0.1224 -0.1634 -0.1299
    4loPI   C3B   63  17.169   3.938   8.659 -0.0953  0.1052 -0.1764
    4loPI   C4B   64  17.173   4.022   8.192 -0.0317 -0.1886  0.1930
    5loPI    C1   65   7.635  11.506  10.373  0.0083 -0.1375 -0.1382
    5loPI    C2   66   7.594  11.876  10.519  0.1849 -0.1380 -0.0845
    5loPI    C3   67   7.572  11.561  10.764  0.0492 -0.1629 -0.1280
    5loPI   PO4   68   7.512  11.505  10.209 -0.2212  0.1820 -0.0686
    5loPI   GL1   69   7.578  11.864  10.015 -0.3461  0.0039  0.0630
    5loPI   GL2   70   7.309  11.830   9.930  0.3467 -0.0595 -0.1829
    5loPI   C1A   71   7.712  11.755   9.599 -0.1841  0.2991  0.0119
    5loPI   C2A   72   7.734  11.619   9.234  0.1041  0.0357 -0.1857
    5loPI   C3A   73   7.983  11.179   9.031 -0.1393  0.2063 -0.0919
    5loPI   C4A   74   7.959  10.913   8.666 -0.2192  0.2601 -0.0774
    5loPI   C5A   75   7.794  10.739   8.329  0.0886  0.1243 -0.0369
    5loPI   C6A   76   7.573  10.995   8.013 -0.3653 -0.0558  0.0367
    5loPI   C1B   77   7.320  12.093   9.502 -0.4343  0.4739  0.1004
    5loPI   C2B   78   7.349  11.951   9.088 -0.2089  0.1657 -0.1727
    5loPI   C3B   79   7.324  11.820   8.648 -0.1046  0.1209 -0.1357
    5loPI   C4B   80   7.342  11.842   8.180  0.0287 -0.1846 -0.0930
    6loPI    C1   81   2.019  10.184  10.336  0.0177 -0.0827 -0.0442
    6loPI    C2   82   1.716  10.426  10.239  0.0717 -0.0047 -0.0194
    6loPI    C3   83   1.995  10.549  10.498  0.1302 -0.0723 -0.0500
    6loPI   PO4   84   2.091  10.010  10.152  0.6161  0.0426 -0.2656
    6loPI   GL1   85   1.935  10.061   9.688 -0.0431 -0.1867  0.0397
    6loPI   GL2   86   1.730  10.322   9.737  0.0444  0.0620 -0.1134
    6loPI   C1A   87   1.840  10.149   9.234  0.1450 -0.1986  0.0508
    6loPI   C2A   88   1.946  10.195   8.755 -0.2583  0.3705 -0.2348
    6loPI   C3A   89   2.032   9.998   8.347 -0.3650 -0.0699  0.1503
    6loPI   C4A   90   1.686   9.965   8.044 -0.0357 -0.2072 -0.0465
    6loPI   C5A   91   1.347   9.694   8.142  0.1319  0.0755  0.0026
    6loPI   C6A   92   1.191   9.497   8.487 -0.1166  0.2081  0.2212
    6loPI   C1B   93   1.386  10.491   9.494 -0.2198 -0.3409 -0.4488
    6loPI   C2B   94   1.147  10.959   9.391 -0.1867 -0.0422  0.3040
    6loPI   C3B   95   1.209  11.283   9.132  0.0931 -0.1936  0.2144
    6loPI   C4B   96   1.205  11.421   8.725  0.1728  0.0386 -0.0971
    7loPI    C1   97  14.862  14.935  10.695  0.1343  0.0279 -0.3779
    7loPI    C2   98  14.695  14.577  10.763  0.1058  0.0551 -0.3039
    7loPI    C3   99  15.090  14.607  10.712  0.1534  0.0577  0.0444
    7loPI   PO4  100  14.697  15.056  10.520  0.1356  0.2677  0.1961
    7loPI   GL1  101  14.754  15.061  10.015 -0.1798  0.0726 -0.4538
    7loPI   GL2  102  14.510  15.113  10.011  0.3352  0.3139  0.2347
    7loPI   C1A  103  15.091  15.246   9.731 -0.0698  0.2330 -0.0068
    7loPI   C2A  104  15.137  15.317   9.295 -0.0302 -0.2337 -0.0194
    7loPI   C3A  105  15.292  15.362   8.851  0.1297 -0.0093  0.2017
    7loPI   C4A  106  15.289  15.295   8.446 -0.0137 -0.2869  0.1686
    7loPI   C5A  107  15.109  15.250   8.009  0.1143 -0.0532  0.2547
    7loPI   C6A  108  14.882  15.027   7.656  0.2574 -0.0769  0.2458
    7loPI   C1B  109  14.589  15.207   9.567  0.1569  0.1218  0.2073
    7loPI   C2B  110  14.584  15.171   9.182 -0.1009  0.1139 -0.0251
    7loPI   C3B  111  14.429  15.018   8.758  0.3210 -0.0749  0.0152
    7loPI   C4B  112  14.384  15.105   8.343  0.2043 -0.2020  0.0109
    8loPI    C1  113  10.282   0.905  10.919 -0.0097  0.1353 -0.0651
    8loPI    C2  114  10.347   1.277  11.051  0.1927  0.1012 -0.0654
    8loPI    C3  115  10.541   0.970  11.217 -0.1038 -0.0261  0.0537
    8loPI   PO4  116  10.285   0.910  10.611 -0.0146  0.2764 -0.1508
    8loPI   GL1  117  10.347   0.685  10.120 -0.2539 -0.1102 -0.1458
    8loPI   GL2  118  10.644   0.757  10.067 -0.0212 -0.1444 -0.1125
    8loPI   C1A  119  10.100   1.012   9.866  0.1235 -0.0817  0.1317
    8loPI   C2A  120   9.818   0.932   9.443 -0.1731 -0.0640  0.0923
    8loPI   C3A  121   9.840   0.760   8.966  0.1934 -0.0708  0.0849
    8loPI   C4A  122   9.739   0.414   8.689 -0.1564  0.3537 -0.1623
    8loPI   C5A  123   9.683   0.317   8.259  0.0440 -0.0756 -0.2688
    8loPI   C6A  124   9.956   0.072   8.043 -0.0072 -0.1199  0.1285
    8loPI   C1B  125  10.675   1.178   9.935  0.2488 -0.0727 -0.0842
    8loPI   C2B  126  10.495   1.580   9.793 -0.3378 -0.3323  0.1260
    8loPI   C3B  127  10.587   1.730   9.305 -0.0900 -0.0184 -0.2853
    8loPI   C4B  128  10.451   1.536   8.855 -0.3521 -0.0292 -0.2971
    9loPI    C1  129  13.501   8.067  10.841 -0.1070  0.0952 -0.0024
    9loPI    C2  130  13.149   7.881  10.805 -0.0601 -0.0082  0.0687
    9loPI    C3  131  13.458   7.692  10.975  0.0019  0.1174  0.0961
    9loPI   PO4  132  13.653   8.101  10.597  0.1759 -0.0325  0.0373
    9loPI   GL1  133  13.643   8.007  10.229 -0.1280 -0.1834  0.1721
    9loPI   GL2  134  13.444   7.715  10.164  0.0378  0.2461  0.0253
    9loPI   C1A  135  13.521   8.178   9.833 -0.0020  0.0810 -0.0585
    9loPI   C2A  136  13.424   8.157   9.476  0.2348  0.2964 -0.1209
    9loPI   C3A  137  13.533   8.071   9.057  0.0807  0.0131 -0.0389
    9loPI   C4A  138  13.418   8.181   8.595 -0.0535  0.1749 -0.0494
    9loPI   C5A  139  13.618   8.044   8.266 -0.1829  0.1635 -0.1002
    9loPI   C6A  140  13.766   7.780   7.889 -0.0302  0.2824 -0.1763
    9loPI   C1B  141  13.380   7.724   9.696 -0.1290  0.1831 -0.1584
    9loPI   C2B  142  13.428   7.610   9.203  0.1672 -0.0628 -0.0883
    9loPI   C3B  143  13.445   7.627   8.758 -0.0040 -0.1511 -0.2428
    9loPI   C4B  144  13.593   7.549   8.380 -0.0426 -0.1181  0.0479
   10loPI    C1  145   9.397   8.302   9.935  0.0077 -0.0817  0.0782
   10loPI    C2  146   9.342   8.111  10.282 -0.1929 -0.0741  0.0517
   10loPI    C3  147   9.339   7.906   9.938  0.1862 -0.1086  0.0651
   10loPI   PO4  148   9.534   8.520   9.936 -0.0821  0.1000 -0.2972
   10loPI   GL1  149   9.791   8.472   9.632 -0.1209  0.1243 -0.1944
   10loPI   GL2  150   9.550   8.506   9.413  0.2523 -0.1405 -0.0915
   10loPI   C1A  151   9.887   8.095   9.418  0.1140  0.0934 -0.1465
   10loPI   C2A  152   9.806   7.896   8.960 -0.0510  0.1357 -0.0844
   10loPI   C3A  153   9.513   7.753   8.574  0.0318  0.0259  0.0937
   10loPI   C4A  154   9.344   7.751   8.218 -0.1299 -0.2766 -0.0526
   10loPI   C5A  155   9.484   7.799   7.850 -0.1399  0.0457 -0.3487
   10loPI   C6A  156   9.494   7.873   7.399  0.4456  0.2502  0.0201
   10loPI   C1B  157   9.816   8.458   8.961  0.0617  0.0841 -0.2559
   10loPI   C2B  158   9.720   8.290   8.596 -0.2898  0.1995  0.0398
   10loPI   C3B  159   9.455   8.279   8.144  0.4230  0.2828  0.3782
   10loPI   C4B  160   9.134   8.153   7.918  0.2753  0.1987  0.0671
   11loPI    C1  161   7.968   9.949  10.144 -0.0457  0.0051 -0.1331
   11loPI    C2  162   8.185   9.771   9.858  0.2912  0.5547 -0.2331
   11loPI    C3  163   8.219   9.653  10.239  0.0651  0.0212 -0.3696
   11loPI   PO4  164   7.897  10.094  10.078 -0.0409  0.2075  0.1023
   11loPI   GL1  165   7.805  10.089   9.627  0.4096  0.1542  0.3090
   11loPI   GL2  166   7.448  10.202   9.833  0.1841 -0.2927 -0.2743
   11loPI   C1A  167   7.889  10.279   9.304 -0.3778  0.1522  0.0749
   11loPI   C2A  168   7.951  10.527   9.035  0.0154 -0.0913 -0.0256
   11loPI   C3A  169   8.106  10.427   8.669 -0.1869 -0.0615 -0.1327
   11loPI   C4A  170   8.482  10.185   8.485 -0.1430  0.0040 -0.1016
   11loPI   C5A  171   8.703  10.336   8.048 -0.2521  0.1217  0.1734
   11loPI   C6A  172   9.028  10.372   7.794  0.0244 -0.0870 -0.0624
   11loPI   C1B  173   7.291  10.461   9.580 -0.2168 -0.0319 -0.0963
   11loPI   C2B  174   7.278  10.461   9.167  0.0587 -0.0333  0.1057
   11loPI   C3B  175   7.486  10.636   8.768 -0.0613  0.2651 -0.2534
   11loPI   C4B  176   7.255  10.835   8.409 -0.2529  0.2017  0.1935
   12loPI    C1  177  17.598  13.254  10.427  0.0646  0.0493  0.0382
   12loPI    C2  178  17.383  13.499  10.658  0.1228  0.0305  0.1127
   12loPI    C3  179  17.499  13.143  10.798  0.0467 -0.0363  0.0081
   12loPI   PO4  180  17.522  13.256  10.151  0.1358  0.0256 -0.3901
   12loPI   GL1  181  17.760  13.083   9.847 -0.2228 -0.2276  0.1608
   12loPI   GL2  182  18.029  12.905   9.695  0.2923  0.1435 -0.2151
   12loPI   C1A  183  17.547  13.064   9.463  0.1434  0.0666  0.1371
   12loPI   C2A  184  17.430  12.966   8.975 -0.0446  0.0348 -0.1831
   12loPI   C3A  185  17.426  13.070   8.504  0.3050 -0.1130 -0.1579
   12loPI   C4A  186  17.422  13.044   8.090 -0.0817  0.2603 -0.0334
   12loPI   C5A  187  17.136  13.001   7.630  0.0671  0.0497  0.0180
   12loPI   C6A  188  16.813  12.782   7.515  0.2965  0.1975  0.0767
   12loPI   C1B  189  17.950  12.978   9.170  0.0989  0.2766  0.0365
   12loPI   C2B  190  17.912  13.041   8.747 -0.0470  0.1802  0.0386
   12loPI   C3B  191  17.922  13.002   8.244 -0.1781  0.0008 -0.0696
   12loPI   C4B  192  17.964  13.202   7.845 -0.1123 -0.2858  0.1726
   13loPI    C1  193   4.293  16.176  10.444  0.0824  0.1715 -0.2701
   13loPI    C2  194   4.033  16.477  10.491  0.0498  0.1210 -0.1221
   13loPI    C3  195   4.362  16.459  10.719 -0.0045 -0.0151 -0.0536
   13loPI   PO4  196   4.177  16.029  10.303  0.1324  0.2034 -0.0356
   13loPI   GL1  197   4.021  15.909   9.985 -0.1646 -0.1917 -0.1108
   13loPI   GL2  198   4.320  15.732   9.866 -0.0905 -0.0764  0.0993
   13loPI   C1A  199   3.938  15.458   9.716 -0.0787  0.1445 -0.1937
   13loPI   C2A  200   3.993  15.354   9.267  0.1478  0.0548  0.0741
   13loPI   C3A  201   3.977  15.040   9.047 -0.0418  0.1519 -0.0085
   13loPI   C4A  202   4.115  14.680   8.845  0.1146 -0.2114  0.1682
   13loPI   C5A  203   4.343  14.410   8.984  0.0330  0.1268 -0.0006
   13loPI   C6A  204   4.686  14.298   8.697  0.0851 -0.2036  0.0066
   13loPI   C1B  205   4.154  15.834   9.489 -0.2602  0.2099  0.2113
   13loPI   C2B  206   4.034  15.795   9.089 -0.0717  0.0525 -0.1314
   13loPI   C3B  207   3.918  15.498   8.687 -0.0182 -0.3136  0.1511
   13loPI   C4B  208   3.871  15.007   8.558 -0.2851  0.0083  0.0200
   14loPI    C1  209  14.359   0.287  10.697  0.1031  0.2039  0.0435
   14loPI    C2  210  14.621   0.521  10.888  0.0072  0.3060  0.0515
   14loPI    C3  211  14.283   0.410  11.070  0.1383  0.0053  0.1170
   14loPI   PO4  212  14.457   0.288  10.438 -0.0792 -0.1936  0.3014
   14loPI   GL1  213  14.348   0.085  10.172  0.1292 -0.2492  0.0407
   14loPI   GL2  214  14.019   0.165  10.109 -0.2015  0.0433  0.1542
   14loPI   C1A  215  14.519   0.241   9.810 -0.4634 -0.1206 -0.3850
   14loPI   C2A  216  14.366   0.479   9.495  0.0716  0.3086 -0.1569
   14loPI   C3A  217  14.411   0.521   9.029  0.2484  0.2431 -0.2169
   14loPI   C4A  218  14.260   0.713   8.670 -0.1957  0.1472 -0.1282
   14loPI   C5A  219  13.966   0.916   8.417 -0.1951  0.0726  0.1672
   14loPI   C6A  220  14.019   1.392   8.288 -0.0242  0.0213 -0.0255
   14loPI   C1B  221  13.971   0.356   9.750  0.0892 -0.1006  0.0266
   14loPI   C2B  222  13.970   0.290   9.299  0.3166 -0.0458 -0.1874
   14loPI   C3B  223  13.818   0.468   8.973 -0.0032 -0.0735  0.1444
   14loPI   C4B  224  13.803   0.477   8.559 -0.0912  0.1167  0.2080
   15loPI    C1  225   3.269   6.596  10.053 -0.2354  0.1894  0.0345
   15loPI    C2  226   3.218   6.711  10.433 -0.0456 -0.0682  0.1408
   15loPI    C3  227   3.570   6.770  10.251 -0.0906 -0.0748  0.0510
   15loPI   PO4  228   3.181   6.691   9.931 -0.1350  0.0692  0.0339
   15loPI   GL1  229   3.276   6.684   9.563  0.0150 -0.2169 -0.2608
   15loPI   GL2  230   2.940   6.581   9.537  0.0980  0.1650 -0.2248
   15loPI   C1A  231   3.267   6.788   9.215 -0.2131 -0.2172 -0.1017
   15loPI   C2A  232   3.247   6.478   8.920  0.0977 -0.0082 -0.1919
   15loPI   C3A  233   3.203   6.346   8.417 -0.1435  0.0842 -0.0487
   15loPI   C4A  234   3.304   6.410   7.985  0.0836  0.2391  0.1712
   15loPI   C5A  235   3.701   6.339   7.707 -0.2074  0.3638  0.2307
   15loPI   C6A  236   3.781   5.995   7.399 -0.2815 -0.0416 -0.1417
   15loPI   C1B  237   2.898   6.208   9.287 -0.0948  0.1474  0.1532
   15loPI   C2B  238   3.143   5.990   8.865 -0.2298 -0.1908  0.1945
   15loPI   C3B  239   3.456   5.862   8.504  0.0579  0.0938  0.0605
   15loPI   C4B  240   3.896   5.762   8.468  0.0780  0.1796  0.2024
   16loPI    C1  241   5.305  15.793  10.452  0.0123  0.0720  0.1022
   16loPI    C2  242   5.103  15.988  10.737 -0.1281 -0.0549  0.0907
   16loPI    C3  243   5.377  15.715  10.837  0.1361  0.2126  0.1082
   16loPI   PO4  244   5.132  15.796  10.252 -0.0008 -0.1912 -0.1307
   16loPI   GL1  245   5.108  16.066   9.938  0.3284 -0.1946  0.2201
   16loPI   GL2  246   5.063  16.469   9.927 -0.1805  0.2770  0.0753
   16loPI   C1A  247   5.037  16.248   9.462 -0.0456 -0.0262  0.2155
   16loPI   C2A  248   4.814  16.332   9.206  0.2527 -0.0708  0.0074
   16loPI   C3A  249   4.857  16.739   9.031  0.1542 -0.1917  0.1506
   16loPI   C4A  250   5.177  16.915   8.608  0.0253  0.0824  0.3121
   16loPI   C5A  251   5.230  16.502   8.376  0.0363 -0.3774  0.2920
   16loPI   C6A  252   5.479  16.106   8.124 -0.0378  0.2757 -0.4073
   16loPI   C1B  253   5.435  16.347   9.707 -0.3847  0.2233  0.0574
   16loPI   C2B  254   5.491  16.350   9.313 -0.3230 -0.0989  0.0734
   16loPI   C3B  255   5.234  16.286   8.934  0.0336 -0.2820 -0.1427
   16loPI   C4B  256   4.910  16.182   8.606 -0.1253 -0.1072  0.1650
   17loPI    C1  257   6.928  14.619  10.404 -0.0217 -0.0584  0.1890
   17loPI    C2  258   7.260  14.785  10.255 -0.1849  0.2566  0.1675
   17loPI    C3  259   7.265  14.620  10.620  0.0810 -0.0511  0.0306
   17loPI   PO4  260   6.754  14.751  10.278  0.0110 -0.0588 -0.1301
   17loPI   GL1  261   6.783  14.943   9.831  0.4689 -0.1435 -0.1326
   17loPI   GL2  262   7.149  14.923   9.698 -0.0506 -0.2563 -0.2785
   17loPI   C1A  263   6.809  15.357   9.513  0.1231 -0.0375 -0.1330
   17loPI   C2A  264   6.735  15.491   9.089 -0.0551 -0.2425 -0.3000
   17loPI   C3A  265   6.658  15.502   8.699  0.0254  0.0003  0.0271
   17loPI   C4A  266   6.446  15.398   8.352  0.1178  0.0001 -0.2733
   17loPI   C5A  267   6.028  15.276   8.275  0.1433 -0.0774 -0.3411
   17loPI   C6A  268   5.810  14.962   7.864  0.1995 -0.0454  0.2567
   17loPI   C1B  269   7.100  15.020   9.193  0.1068  0.1187  0.1425
   17loPI   C2B  270   7.115  15.233   8.690 -0.3916 -0.1385  0.0282
   17loPI   C3B  271   6.968  15.439   8.299 -0.1976  0.0982 -0.3710
   17loPI   C4B  272   7.063  15.677   7.954  0.1781 -0.0720  0.3799
   18loPI    C1  273   9.345   0.925  10.657  0.1591 -0.1142 -0.1429
   18loPI    C2  274   9.329   0.554  10.805  0.2102 -0.1097 -0.1259
   18loPI    C3  275   9.343   0.867  11.053 -0.3180 -0.0714 -0.1331
   18loPI   PO4  276   9.423   1.031  10.461  0.0641 -0.2966  0.1745
   18loPI   GL1  277   9.291   1.136   9.999  0.3126  0.0027 -0.1831
   18loPI   GL2  278   9.570   0.987   9.956  0.0078  0.1158 -0.2424
   18loPI   C1A  279   9.359   1.206   9.564 -0.0634 -0.2965  0.1245
   18loPI   C2A  280   9.431   1.044   9.146 -0.0237 -0.0096  0.2207
   18loPI   C3A  281   9.405   0.975   8.671 -0.3032  0.1188 -0.2092
   18loPI   C4A  282   9.634   0.889   8.435 -0.1803  0.0538 -0.0797
   18loPI   C5A  283   9.866   0.782   8.086  0.3890  0.0257  0.0944
   18loPI   C6A  284   9.741   0.786   7.680  0.1798  0.0018  0.0470
   18loPI   C1B  285   9.428   0.728   9.655 -0.1577 -0.0117 -0.1208
   18loPI   C2B  286   9.439   0.554   9.255  0.2109 -0.1035  0.0163
   18loPI   C3B  287   9.303   0.501   8.886  0.0500  0.1350 -0.0482
   18loPI   C4B  288   9.178   0.551   8.503  0.0961  0.2323  0.0944
   19loPI    C1  289   9.063   8.598  10.268 -0.1373 -0.3619  0.0516
   19loPI    C2  290   8.730   8.732  10.443  0.0156  0.0465  0.0411
   19loPI    C3  291   9.067   8.696  10.656  0.0683  0.0326 -0.0444
   19loPI   PO4  292   9.037   8.664  10.048 -0.0459 -0.4110  0.3537
   19loPI   GL1  293   9.142   8.650   9.660 -0.1041 -0.0199 -0.2455
   19loPI   GL2  294   9.173   8.881   9.447 -0.1513  0.1614  0.0740
   19loPI   C1A  295   9.049   8.541   9.160 -0.0504 -0.3750 -0.0682
   19loPI   C2A  296   9.089   8.563   8.732  0.2258 -0.0567  0.2063
   19loPI   C3A  297   9.082   8.625   8.267 -0.1212 -0.1788  0.1269
   19loPI   C4A  298   9.165   8.695   7.846  0.1444 -0.2516 -0.0774
   19loPI   C5A  299   9.529   8.952   7.771  0.0660  0.0943  0.0395
   19loPI   C6A  300  10.028   8.994   7.998 -0.0423  0.3058  0.1639
   19loPI   C1B  301   8.936   9.040   8.977  0.1321  0.1708 -0.3064
   19loPI   C2B  302   8.799   9.047   8.525  0.0748  0.0759 -0.1931
   19loPI   C3B  303   8.643   8.906   8.102  0.2321 -0.0293  0.0750
   19loPI   C4B  304   8.777   8.924   7.686  0.2780  0.1786  0.3360
   20loPI    C1  305   5.297   4.253  10.210  0.1215 -0.0531 -0.1751
   20loPI    C2  306   4.905   4.298  10.275  0.1666  0.2362 -0.0926
   20loPI    C3  307   5.145   4.184  10.574  0.1142 -0.1711 -0.2000
   20loPI   PO4  308   5.277   4.117   9.949 -0.1605  0.1445  0.1398
   20loPI   GL1  309   5.330   4.338   9.554  0.0018 -0.0253  0.1391
   20loPI   GL2  310   5.624   4.345   9.589  0.1769  0.2134  0.1679
   20loPI   C1A  311   5.320   4.346   9.115 -0.2631  0.1404  0.0885
   20loPI   C2A  312   5.237   4.327   8.638  0.1040  0.2267  0.2244
   20loPI   C3A  313   5.324   4.394   8.220 -0.0221 -0.0701 -0.0600
   20loPI   C4A  314   5.520   4.290   7.875 -0.3568 -0.0129  0.0866
   20loPI   C5A  315   5.883   4.214   7.659 -0.1913  0.0364 -0.0515
   20loPI   C6A  316   6.359   4.030   7.508 -0.0089 -0.1058  0.0460
   20loPI   C1B  317   5.892   4.239   9.244  0.0407 -0.1393 -0.0507
   20loPI   C2B  318   6.123   4.259   8.863  0.2706  0.2112 -0.2409
   20loPI   C3B  319   6.180   4.317   8.433 -0.1048 -0.0950 -0.1275
   20loPI   C4B  320   6.214   4.049   8.031 -0.2833 -0.0055 -0.0784
   21loPI    C1  321   3.861  13.495  10.690  0.1945 -0.2139 -0.0490
   21loPI    C2  322   3.818  13.374  11.069 -0.1414 -0.1267 -0.0557
   21loPI    C3  323   3.568  13.646  10.916  0.2125  0.1071 -0.2341
   21loPI   PO4  324   4.040  13.252  10.533 -0.0665  0.3330 -0.0136
   21loPI   GL1  325   4.077  13.122  10.087 -0.3163 -0.0002 -0.1937
   21loPI   GL2  326   3.782  13.078   9.862 -0.0178 -0.1479  0.3610
   21loPI   C1A  327   4.216  12.827   9.728 -0.0083  0.1018  0.1266
   21loPI   C2A  328   4.627  12.871   9.368  0.0258  0.0502 -0.0063
   21loPI   C3A  329   4.790  13.030   9.000 -0.1189 -0.3791 -0.0029
   21loPI   C4A  330   4.910  12.871   8.612  0.1979  0.0588  0.3325
   21loPI   C5A  331   4.809  12.681   8.117  0.0129  0.0034 -0.1191
   21loPI   C6A  332   4.812  12.511   7.751  0.2992 -0.0991  0.1185
   21loPI   C1B  333   3.850  12.902   9.418  0.1135  0.2855 -0.0356
   21loPI   C2B  334   4.140  12.661   9.187  0.2560  0.3464 -0.0076
   21loPI   C3B  335   4.070  12.560   8.667 -0.1009  0.2096  0.0210
   21loPI   C4B  336   3.823  12.363   8.410  0.0433 -0.1559  0.3916
   22loPI    C1  337  17.326   1.472  10.517  0.2346 -0.0760  0.0178
   22loPI    C2  338  17.392   1.853  10.617  0.1659 -0.0287 -0.1153
   22loPI    C3  339  17.341   1.578  10.903 -0.1438  0.1251 -0.0182
   22loPI   PO4  340  17.115   1.419  10.409  0.0921  0.2357 -0.2043
   22loPI   GL1  341  16.963   1.749  10.127 -0.0483  0.0605 -0.4152
   22loPI   GL2  342  17.234   1.847  10.119  0.0588  0.2118 -0.1617
   22loPI   C1A  343  17.005   1.616   9.723  0.1484 -0.1541  0.3777
   22loPI   C2A  344  17.032   1.834   9.242  0.1237 -0.1694 -0.0432
   22loPI   C3A  345  17.071   2.121   9.010 -0.0186 -0.0767  0.1002
   22loPI   C4A  346  17.002   2.406   8.639 -0.0113 -0.2169  0.0782
   22loPI   C5A  347  17.248   2.392   8.233  0.0815  0.1521  0.1154
   22loPI   C6A  348  17.653   2.430   8.102  0.0073 -0.0023 -0.0336
   22loPI   C1B  349  17.309   2.006   9.666 -0.1190  0.0792  0.0367
   22loPI   C2B  350  17.398   2.313   9.286 -0.2378 -0.2727  0.3155
   22loPI   C3B  351  17.417   2.572   9.005  0.1833  0.2641 -0.1298
   22loPI   C4B  352  17.518   2.613   8.602  0.1074  0.1708 -0.3472
   23loPI    C1  353   6.572  17.100  10.870  0.0240 -0.0411  0.1074
   23loPI    C2  354   6.353  17.281  11.152 -0.2275  0.1367 -0.1958
   23loPI    C3  355   6.243  16.922  11.014  0.0374 -0.0662  0.1073
   23loPI   PO4  356   6.550  17.157  10.621 -0.4274  0.1097 -0.4716
   23loPI   GL1  357   6.591  17.217  10.243 -0.0108 -0.0027 -0.0694
   23loPI   GL2  358   6.324  17.046  10.213 -0.0623  0.1023 -0.0229
   23loPI   C1A  359   6.856  17.045   9.884  0.2988 -0.1449  0.0807
   23loPI   C2A  360   6.894  17.043   9.454 -0.1065  0.0778  0.0038
   23loPI   C3A  361   6.868  17.079   8.980 -0.0085  0.2615  0.1056
   23loPI   C4A  362   6.813  17.456   8.703  0.1097 -0.1137 -0.2522
   23loPI   C5A  363   6.735  17.860   8.403 -0.1846  0.2312  0.2332
   23loPI   C6A  364   6.455  18.175   8.132  0.1989  0.1489  0.1004
   23loPI   C1B  365   6.206  17.037   9.774  0.0357 -0.1094 -0.2478
   23loPI   C2B  366   5.840  17.038   9.627  0.2621  0.1344 -0.1242
   23loPI   C3B  367   5.388  16.843   9.618 -0.3200 -0.0858 -0.0709
   23loPI   C4B  368   4.883  16.702   9.514 -0.5022  0.0352  0.2627
   24loPI    C1  369  18.082  11.233  10.337 -0.0467 -0.2591  0.2054
   24loPI    C2  370  18.082  11.009  10.669 -0.0578 -0.2257  0.2280
   24loPI    C3  371  17.822  11.311  10.630  0.0350 -0.1427  0.2477
   24loPI   PO4  372  18.096  11.050  10.183  0.0920 -0.1897  0.1572
   24loPI   GL1  373  18.273  10.955   9.835  0.0709  0.1250  0.2800
   24loPI   GL2  374  18.046  10.798   9.700 -0.3197  0.1646 -0.0437
   24loPI   C1A  375  18.537  11.182   9.530 -0.1893  0.1430 -0.2489
   24loPI   C2A  376  18.623  11.402   9.223  0.2451  0.1332  0.1110
   24loPI   C3A  377  18.520  11.528   8.794 -0.0429  0.0187 -0.0254
   24loPI   C4A  378  18.528  11.507   8.380 -0.1835  0.0218 -0.0472
   24loPI   C5A  379  18.328  11.392   8.098 -0.1404 -0.1170  0.0621
   24loPI   C6A  380  18.002  11.440   7.712 -0.2657  0.1040  0.2269
   24loPI   C1B  381  18.031  10.952   9.292 -0.1138 -0.1628  0.0729
   24loPI   C2B  382  18.020  11.002   8.851  0.1647 -0.2942  0.0344
   24loPI   C3B  383  18.353  11.059   8.529  0.0536  0.1205  0.1126
   24loPI   C4B  384  18.473  10.750   8.210 -0.0862 -0.2580 -0.1437
   25loPI    C1  385   6.637   7.384  10.320 -0.1818  0.0593  0.0810
   25loPI    C2  386   6.761   7.673  10.567 -0.1861  0.0731  0.0672
   25loPI    C3  387   6.419   7.479  10.641 -0.1242 -0.0087  0.1408
   25loPI   PO4  388   6.755   7.193  10.185 -0.0739  0.2337  0.2307
   25loPI   GL1  389   6.910   7.275   9.737  0.0969 -0.2813  0.2155
   25loPI   GL2  390   7.104   7.472   9.558 -0.1228  0.0238 -0.0910
   25loPI   C1A  391   6.632   7.048   9.371 -0.0363  0.2756  0.0148
   25loPI   C2A  392   6.563   7.002   8.977  0.1346 -0.0712  0.1085
   25loPI   C3A  393   6.587   6.972   8.468  0.0796 -0.1345  0.3881
   25loPI   C4A  394   6.475   6.934   8.046  0.2029 -0.0087 -0.3519
   25loPI   C5A  395   6.461   6.800   7.631  0.0174  0.0438  0.0226
   25loPI   C6A  396   6.170   6.704   7.294 -0.2326  0.0407 -0.1198
   25loPI   C1B  397   6.858   7.439   9.174 -0.4289  0.2749 -0.1302
   25loPI   C2B  398   6.767   7.427   8.646  0.1869  0.2336 -0.2614
   25loPI   C3B  399   6.598   7.802   8.295 -0.0743  0.1724  0.1789
   25loPI   C4B  400   6.209   7.863   8.013  0.1578  0.1578 -0.1603
   26loPI    C1  401   2.500   0.452  10.473 -0.1186  0.0333 -0.1099
   26loPI    C2  402   2.425   0.826  10.594 -0.1753  0.0513 -0.2000
   26loPI    C3  403   2.343   0.518  10.836  0.1893  0.1143  0.0117
   26loPI   PO4  404   2.373   0.468  10.174 -0.1880  0.3214  0.1599
   26loPI   GL1  405   2.567   0.416   9.926 -0.1332  0.1475 -0.2968
   26loPI   GL2  406   2.863   0.513   9.923 -0.1618 -0.1148  0.4143
   26loPI   C1A  407   2.496   0.470   9.544  0.3367 -0.2611 -0.0589
   26loPI   C2A  408   2.552   0.358   9.157 -0.0480  0.0245  0.0959
   26loPI   C3A  409   2.517   0.366   8.728  0.0240 -0.0614 -0.1191
   26loPI   C4A  410   2.362   0.444   8.326 -0.0436  0.1431  0.3342
   26loPI   C5A  411   2.105   0.567   8.067 -0.0906 -0.0415  0.0420
   26loPI   C6A  412   1.634   0.752   8.073 -0.2034 -0.0946  0.0906
   26loPI   C1B  413   3.046   0.409   9.647 -0.1112 -0.2119  0.7076
   26loPI   C2B  414   3.076   0.222   9.246  0.0179  0.0793 -0.0645
   26loPI   C3B  415   2.959  -0.011   9.014  0.0646 -0.1864  0.0141
   26loPI   C4B  416   2.956  -0.131   8.604 -0.1504  0.0408  0.2105
   27loPI    C1  417  15.228   3.167  10.504  0.1285  0.0185 -0.1328
   27loPI    C2  418  15.112   3.527  10.375 -0.0554 -0.0507 -0.1635
   27loPI    C3  419  15.026   3.411  10.748  0.2815  0.0611 -0.0472
   27loPI   PO4  420  15.110   2.997  10.408  0.1709 -0.2743  0.1968
   27loPI   GL1  421  15.311   2.728  10.188  0.0888 -0.2587  0.0755
   27loPI   GL2  422  15.166   2.450  10.123 -0.2631  0.0143 -0.0698
   27loPI   C1A  423  15.271   2.803   9.677  0.2297  0.1052 -0.3810
   27loPI   C2A  424  15.351   2.913   9.268 -0.2649 -0.2126  0.0075
   27loPI   C3A  425  15.266   2.992   8.851 -0.1506 -0.0809  0.3151
   27loPI   C4A  426  15.378   2.864   8.397 -0.1380  0.0356  0.1426
   27loPI   C5A  427  15.303   2.637   8.059  0.2479 -0.2574 -0.0745
   27loPI   C6A  428  15.389   2.398   7.722 -0.0537 -0.2218 -0.0367
   27loPI   C1B  429  15.017   2.396   9.695  0.1876  0.3603 -0.0806
   27loPI   C2B  430  15.210   2.277   9.376  0.3503 -0.2692 -0.0614
   27loPI   C3B  431  15.329   2.431   8.960 -0.0334 -0.0737  0.1838
   27loPI   C4B  432  15.394   2.419   8.514 -0.0817 -0.0595 -0.2129
   28loPI    C1  433   1.183  18.124  10.679 -0.0543  0.1205 -0.0746
   28loPI    C2  434   0.931  18.149  10.989 -0.1362 -0.0510 -0.1262
   28loPI    C3  435   1.321  18.087  11.052 -0.1194  0.1284 -0.0495
   28loPI   PO4  436   1.044  18.017  10.478 -0.3819 -0.1635  0.2646
   28loPI   GL1  437   0.994  18.018  10.091 -0.1661 -0.1655  0.2763
   28loPI   GL2  438   0.901  18.255   9.924 -0.0920  0.0934  0.0591
   28loPI   C1A  439   0.754  17.833   9.657 -0.2329  0.3450 -0.1494
   28loPI   C2A  440   0.781  17.899   9.268 -0.0864 -0.2044 -0.1560
   28loPI   C3A  441   0.804  17.823   8.771  0.1132  0.0782  0.2489
   28loPI   C4A  442   0.605  17.875   8.386 -0.0376  0.2007  0.0285
   28loPI   C5A  443   0.774  18.142   8.068  0.0327 -0.5129 -0.1304
   28loPI   C6A  444   0.975  18.370   7.776  0.1338  0.0367 -0.0836
   28loPI   C1B  445   1.019  18.311   9.573  0.3761 -0.3763 -0.0734
   28loPI   C2B  446   1.060  18.297   9.233 -0.0867 -0.0273 -0.0352
   28loPI   C3B  447   1.218  18.084   8.879  0.0626 -0.0433 -0.1067
   28loPI   C4B  448   1.056  18.130   8.511 -0.0340  0.0160 -0.3625
   29loPI    C1  449   5.795   7.904  10.075  0.0895 -0.1888  0.0884
   29loPI    C2  450   5.929   7.696  10.390  0.2753  0.0370  0.1611
   29loPI    C3  451   5.761   8.055  10.444  0.2130  0.0310  0.0116
   29loPI   PO4  452   5.650   7.650   9.952 -0.1165  0.3293  0.1118
   29loPI   GL1  453   5.772   7.345   9.686  0.2824 -0.0213 -0.1387
   29loPI   GL2  454   5.721   7.592   9.400  0.1468 -0.3903 -0.0595
   29loPI   C1A  455   5.649   7.085   9.285 -0.1212  0.0534  0.1710
   29loPI   C2A  456   5.486   7.127   8.999 -0.3009  0.1430 -0.0082
   29loPI   C3A  457   5.440   7.388   8.632 -0.1166  0.2061  0.1273
   29loPI   C4A  458   5.308   7.728   8.422  0.0620 -0.0820  0.1245
   29loPI   C5A  459   4.820   7.769   8.257  0.0089 -0.1024  0.0470
   29loPI   C6A  460   4.507   7.918   8.018  0.2545 -0.1581 -0.1720
   29loPI   C1B  461   5.368   7.756   9.172 -0.2211  0.2453 -0.0555
   29loPI   C2B  462   5.190   7.912   8.891 -0.1151  0.0017 -0.1278
   29loPI   C3B  463   5.095   8.154   8.628  0.0554  0.0942  0.0180
   29loPI   C4B  464   5.236   8.333   8.265 -0.0785 -0.0584  0.1951
   30loPI    C1  465   3.568  11.359  10.171 -0.0818  0.1020  0.0841
   30loPI    C2  466   3.926  11.358  10.351 -0.0545  0.0180  0.0300
   30loPI    C3  467   3.686  11.677  10.384  0.0854  0.1328 -0.0528
   30loPI   PO4  468   3.674  11.201   9.880 -0.1482 -0.1570 -0.2688
   30loPI   GL1  469   3.595  10.850   9.826  0.0968 -0.3140  0.0077
   30loPI   GL2  470   3.238  10.800   9.745 -0.2340 -0.0118  0.0202
   30loPI   C1A  471   3.583  10.632   9.435 -0.3141 -0.0983  0.1435
   30loPI   C2A  472   3.744  10.761   9.057 -0.0726  0.1595  0.1602
   30loPI   C3A  473   3.726  10.746   8.612 -0.2301 -0.4562  0.4023
   30loPI   C4A  474   3.645  10.758   8.215 -0.2762  0.2230 -0.1352
   30loPI   C5A  475   3.784  10.581   7.859  0.0985  0.1599  0.1061
   30loPI   C6A  476   3.853  10.873   7.501 -0.2079  0.0017 -0.0350
   30loPI   C1B  477   3.149  10.816   9.300 -0.1293  0.1483  0.1046
   30loPI   C2B  478   3.324  10.908   8.846 -0.0808  0.1828  0.1687
   30loPI   C3B  479   3.226  10.919   8.489 -0.1242 -0.0697  0.2356
   30loPI   C4B  480   3.044  10.582   8.150  0.0854 -0.2963  0.2317
   31loPI    C1  481  17.851   1.643  10.874 -0.1717  0.2312  0.0918
   31loPI    C2  482  18.238   1.584  10.956 -0.1321  0.1200 -0.1640
   31loPI    C3  483  17.980   1.657  11.252  0.0421 -0.0482  0.0330
   31loPI   PO4  484  17.818   1.450  10.702  0.1574 -0.1068  0.1153
   31loPI   GL1  485  17.752   1.504  10.242 -0.2423  0.0717 -0.0160
   31loPI   GL2  486  17.548   1.206  10.129 -0.1256 -0.0673 -0.0126
   31loPI   C1A  487  17.554   1.617   9.842  0.1689 -0.1476  0.0622
   31loPI   C2A  488  17.457   1.661   9.383 -0.2855 -0.0935  0.1419
   31loPI   C3A  489  17.485   1.888   8.970 -0.1941  0.0374  0.0631
   31loPI   C4A  490  17.455   2.117   8.665 -0.1424  0.6059  0.0881
   31loPI   C5A  491  17.535   1.912   8.264 -0.2128  0.2765 -0.0862
   31loPI   C6A  492  17.361   1.749   7.934  0.0757 -0.2717 -0.0776
   31loPI   C1B  493  17.236   1.214   9.807 -0.5277 -0.0149 -0.4471
   31loPI   C2B  494  17.157   1.220   9.377 -0.2670 -0.0110  0.1057
   31loPI   C3B  495  17.207   1.371   8.926  0.0905  0.2781 -0.1700
   31loPI   C4B  496  17.357   1.584   8.587  0.0914 -0.2785 -0.1745
   32loPI    C1  497   1.242   7.724  10.385  0.0867 -0.0740 -0.2796
   32loPI    C2  498   1.131   7.738  10.769  0.1634  0.0420 -0.2612
   32loPI    C3  499   1.512   7.662  10.673  0.1426  0.0045 -0.3150
   32loPI   PO4  500   1.058   7.867  10.243  0.2566 -0.2821 -0.0866
   32loPI   GL1  501   1.256   7.825   9.866 -0.2289 -0.0749 -0.1442
   32loPI   GL2  502   1.421   8.115   9.738 -0.0331  0.3257 -0.2689
   32loPI   C1A  503   1.202   7.728   9.484 -0.0397 -0.2179 -0.0842
   32loPI   C2A  504   1.153   7.729   9.049  0.2724  0.0389  0.1696
   32loPI   C3A  505   1.207   7.832   8.613 -0.0434  0.2920  0.0332
   32loPI   C4A  506   1.344   7.797   8.122  0.2968  0.0341  0.0632
   32loPI   C5A  507   1.407   7.972   7.827 -0.0380 -0.0202 -0.1826
   32loPI   C6A  508   1.573   7.898   7.303 -0.0770 -0.1153  0.0960
   32loPI   C1B  509   1.376   8.134   9.259 -0.0605 -0.2923 -0.3396
   32loPI   C2B  510   1.472   8.292   8.919 -0.0394  0.1064 -0.0820
   32loPI   C3B  511   1.526   8.202   8.480  0.1229  0.1074 -0.2766
   32loPI   C4B  512   1.412   8.433   8.118 -0.0027  0.2030  0.0856
   33loPI    C1  513   9.197   2.488  10.726  0.2063 -0.2246  0.0154
   33loPI    C2  514   8.934   2.221  10.865  0.0420 -0.1141 -0.0788
   33loPI    C3  515   9.279   2.282  11.058 -0.0163 -0.2352  0.0654
   33loPI   PO4  516   9.182   2.514  10.482  0.0940  0.2952 -0.3199
   33loPI   GL1  517   8.864   2.476  10.173 -0.2437 -0.1906  0.0347
   33loPI   GL2  518   8.876   2.141  10.347  0.2328 -0.1255 -0.1359
   33loPI   C1A  519   8.682   2.582   9.824 -0.2510 -0.0682  0.0661
   33loPI   C2A  520   8.698   2.407   9.438 -0.0855 -0.1340 -0.1263
   33loPI   C3A  521   8.645   2.331   9.011  0.0580  0.0033 -0.1118
   33loPI   C4A  522   8.582   2.231   8.658  0.1409  0.0951  0.2048
   33loPI   C5A  523   8.487   2.577   8.383  0.1330 -0.0060 -0.0732
   33loPI   C6A  524   8.764   2.851   8.109 -0.0636 -0.2474  0.0037
   33loPI   C1B  525   9.139   2.145   9.990  0.1471  0.1409  0.0536
   33loPI   C2B  526   9.210   2.224   9.546  0.7822  0.1914  0.1262
   33loPI   C3B  527   9.158   2.137   9.181 -0.0399  0.0970 -0.0980
   33loPI   C4B  528   9.188   2.169   8.820 -0.0656  0.0596 -0.0358
   34loPI    C1  529   7.524   6.018  10.242  0.0424 -0.1554  0.1167
   34loPI    C2  530   7.817   5.795  10.400  0.2580  0.1697  0.1854
   34loPI    C3  531   7.634   6.074  10.622  0.0965  0.1682  0.0566
   34loPI   PO4  532   7.655   6.164   9.988 -0.2650 -0.2379  0.1753
   34loPI   GL1  533   7.967   6.282   9.699 -0.0352  0.0559 -0.0369
   34loPI   GL2  534   7.918   6.487   9.559  0.1891 -0.0966  0.1024
   34loPI   C1A  535   8.166   6.067   9.341 -0.0738 -0.2595 -0.0035
   34loPI   C2A  536   8.262   6.220   8.890  0.2403 -0.0070  0.2818
   34loPI   C3A  537   8.300   6.208   8.514 -0.0322  0.1857 -0.0906
   34loPI   C4A  538   8.289   6.227   8.118 -0.0136  0.1775 -0.0332
   34loPI   C5A  539   8.442   6.505   7.884 -0.0919  0.0105  0.0383
   34loPI   C6A  540   8.580   6.797   7.566 -0.0034  0.0411  0.1524
   34loPI   C1B  541   8.021   6.594   9.152  0.0184 -0.1817 -0.1487
   34loPI   C2B  542   8.173   6.694   8.817  0.0575  0.1765  0.0824
   34loPI   C3B  543   8.184   6.633   8.363 -0.1335  0.0196  0.1654
   34loPI   C4B  544   8.221   6.950   8.026 -0.1391 -0.2292  0.3236
   35loPI    C1  545  15.329   6.962  10.528  0.1849  0.0940 -0.0089
   35loPI    C2  546  15.051   6.914  10.244  0.2695 -0.0383 -0.0700
   35loPI    C3  547  15.000   7.189  10.530 -0.1314 -0.3515  0.1708
   35loPI   PO4  548  15.526   6.892  10.380 -0.0575 -0.0217  0.2080
   35loPI   GL1  549  15.745   7.169  10.002 -0.0113  0.2273  0.0128
   35loPI   GL2  550  15.410   7.040   9.911  0.2933  0.1916  0.0028
   35loPI   C1A  551  15.818   6.935   9.647  0.0794 -0.1168 -0.2496
   35loPI   C2A  552  16.110   6.930   9.300 -0.2295  0.0569 -0.0736
   35loPI   C3A  553  16.079   6.875   8.820 -0.1330  0.1368 -0.0736
   35loPI   C4A  554  16.213   6.866   8.313  0.2471 -0.0815 -0.1103
   35loPI   C5A  555  16.157   6.650   7.938 -0.0116  0.0572 -0.2888
   35loPI   C6A  556  16.362   6.356   7.755  0.0509  0.2454 -0.1187
   35loPI   C1B  557  15.148   6.899   9.662 -0.3467  0.1217  0.2474
   35loPI   C2B  558  15.139   6.904   9.155 -0.2824  0.3594 -0.1658
   35loPI   C3B  559  15.183   6.965   8.699 -0.1065  0.0436  0.0995
   35loPI   C4B  560  15.236   6.930   8.304 -0.1184  0.2951  0.2049
   36loPI    C1  561  10.445   3.747  10.575 -0.1226 -0.0958  0.1305
   36loPI    C2  562  10.624   3.394  10.517  0.1021  0.0225  0.0949
   36loPI    C3  563  10.542   3.518  10.888 -0.0961 -0.1248  0.1012
   36loPI   PO4  564  10.720   3.977  10.473 -0.1011  0.1678 -0.1558
   36loPI   GL1  565  10.614   4.150  10.094  0.1102 -0.2661 -0.0305
   36loPI   GL2  566  10.449   3.840  10.062 -0.0203  0.0853 -0.0290
   36loPI   C1A  567  10.654   4.125   9.718 -0.2218  0.0575 -0.2573
   36loPI   C2A  568  10.646   4.080   9.248  0.0099 -0.1692 -0.3716
   36loPI   C3A  569  10.651   3.961   8.947  0.4408 -0.0509 -0.2259
   36loPI   C4A  570  10.689   3.993   8.528  0.2432 -0.0405 -0.0726
   36loPI   C5A  571  10.872   3.669   8.191 -0.0107  0.0408 -0.0527
   36loPI   C6A  572  10.732   3.336   7.938 -0.3261  0.4243  0.2973
   36loPI   C1B  573  10.266   3.774   9.658 -0.3437 -0.0421  0.0014
   36loPI   C2B  574  10.238   3.671   9.211 -0.2683 -0.3378 -0.0375
   36loPI   C3B  575  10.354   3.625   8.750 -0.1477 -0.1499 -0.1112
   36loPI   C4B  576  10.411   3.409   8.357  0.0043 -0.5387  0.0175
   37loPI    C1  577   8.801  16.479  10.310  0.0663 -0.0428 -0.1131
   37loPI    C2  578   8.478  16.669  10.450  0.1240 -0.0827  0.0775
   37loPI    C3  579   8.632  16.361  10.653  0.2017 -0.1509 -0.0829
   37loPI   PO4  580   8.771  16.364  10.018  0.0014 -0.0322 -0.4440
   37loPI   GL1  581   8.605  16.549   9.684  0.2411 -0.3084 -0.0114
   37loPI   GL2  582   8.729  16.731   9.669 -0.2490  0.0480  0.0906
   37loPI   C1A  583   8.589  16.291   9.278 -0.0726 -0.0255  0.2083
   37loPI   C2A  584   8.532  16.215   8.922 -0.0375  0.1957 -0.0685
   37loPI   C3A  585   8.461  15.800   8.747 -0.2189 -0.1118 -0.0384
   37loPI   C4A  586   8.640  15.618   8.323  0.1473 -0.0712 -0.1520
   37loPI   C5A  587   8.888  15.253   8.065  0.0404  0.2252 -0.1708
   37loPI   C6A  588   8.960  14.995   7.807  0.0017 -0.4478 -0.2479
   37loPI   C1B  589   8.813  16.716   9.235  0.0894  0.1892  0.1521
   37loPI   C2B  590   8.871  16.663   8.812  0.0969 -0.1700 -0.1347
   37loPI   C3B  591   8.919  16.643   8.328 -0.2427 -0.0505  0.1134
   37loPI   C4B  592   8.734  16.843   8.015  0.0935 -0.1023 -0.0903
   38loPI    C1  593  10.901  16.946  10.590 -0.1551 -0.1986 -0.1609
   38loPI    C2  594  10.650  16.644  10.667 -0.0970 -0.1855  0.0902
   38loPI    C3  595  10.961  16.712  10.909  0.0318 -0.0748 -0.1036
   38loPI   PO4  596  11.017  16.999  10.292  0.0241 -0.0623 -0.0513
   38loPI   GL1  597  10.986  16.804   9.871  0.0341  0.3904  0.2247
   38loPI   GL2  598  10.641  16.869  10.001  0.2720  0.2609 -0.1609
   38loPI   C1A  599  10.852  16.916   9.498 -0.0812  0.2074 -0.1244
   38loPI   C2A  600  10.914  17.011   9.103  0.0797 -0.0024 -0.0490
   38loPI   C3A  601  11.112  16.986   8.732 -0.1173  0.0641  0.0585
   38loPI   C4A  602  11.334  16.983   8.435 -0.0149  0.2474  0.4941
   38loPI   C5A  603  11.663  16.664   8.267  0.1389 -0.0214 -0.2842
   38loPI   C6A  604  11.726  16.296   8.107 -0.0831  0.0671 -0.2913
   38loPI   C1B  605  10.453  17.163   9.643 -0.1523 -0.0057 -0.1906
   38loPI   C2B  606  10.496  17.265   9.246 -0.0197  0.0405  0.2894
   38loPI   C3B  607  10.555  17.370   8.825  0.0861 -0.0385  0.0481
   38loPI   C4B  608  10.661  17.672   8.609  0.1638  0.0357  0.0001
   39loPI    C1  609  11.275   2.518  10.514  0.0212  0.1356 -0.1654
   39loPI    C2  610  11.340   2.167  10.694 -0.0893  0.0719 -0.2485
   39loPI    C3  611  11.536   2.493  10.816 -0.1922  0.0378  0.0138
   39loPI   PO4  612  11.078   2.534  10.507  0.0951 -0.1729 -0.1328
   39loPI   GL1  613  10.864   2.657  10.222  0.2885 -0.1137  0.3181
   39loPI   GL2  614  10.822   2.966  10.205  0.0544  0.1591 -0.0746
   39loPI   C1A  615  11.000   2.491   9.825  0.0878  0.0166 -0.1886
   39loPI   C2A  616  10.949   2.480   9.413  0.3253 -0.1456 -0.1375
   39loPI   C3A  617  10.863   2.429   9.019  0.0560  0.1333  0.1162
   39loPI   C4A  618  10.939   2.447   8.617 -0.1038 -0.0247  0.0120
   39loPI   C5A  619  11.138   2.733   8.264 -0.0396  0.2217  0.0144
   39loPI   C6A  620  11.209   3.255   8.283  0.1505 -0.3176  0.3056
   39loPI   C1B  621  10.818   3.002   9.771  0.1461  0.1342 -0.1134
   39loPI   C2B  622  10.870   3.001   9.344 -0.5365 -0.2833  0.0731
   39loPI   C3B  623  10.800   2.874   8.888  0.2286  0.0858  0.2292
   39loPI   C4B  624  10.807   3.035   8.469  0.3545 -0.2988 -0.1731
   40loPI    C1  625  16.519   2.455  10.647 -0.2070  0.3197 -0.0249
   40loPI    C2  626  16.788   2.735  10.553  0.2155 -0.1326 -0.2096
   40loPI    C3  627  16.841   2.508  10.878 -0.0976 -0.0384 -0.0888
   40loPI   PO4  628  16.418   2.303  10.473  0.1885  0.1061  0.1455
   40loPI   GL1  629  16.480   1.939  10.254 -0.0977  0.1566  0.2049
   40loPI   GL2  630  16.354   2.180   9.966  0.1268  0.1544  0.1071
   40loPI   C1A  631  16.508   1.686   9.921  0.1142 -0.0140 -0.2577
   40loPI   C2A  632  16.676   1.949   9.543 -0.0745  0.0816 -0.0065
   40loPI   C3A  633  16.599   2.044   9.135 -0.2224  0.0877  0.0141
   40loPI   C4A  634  16.566   2.192   8.730 -0.0415  0.1441 -0.0232
   40loPI   C5A  635  16.618   2.394   8.254  0.0538 -0.1058  0.2319
   40loPI   C6A  636  16.446   2.266   7.839  0.0786 -0.0531 -0.0390
   40loPI   C1B  637  16.238   2.273   9.506 -0.1182  0.0291 -0.0244
   40loPI   C2B  638  16.078   2.282   9.044  0.1052 -0.5810 -0.0518
   40loPI   C3B  639  16.011   2.112   8.785  0.0583  0.1011  0.1583
   40loPI   C4B  640  16.153   2.245   8.395  0.0023 -0.0711  0.1515
   41loPI    C1  641  13.043   3.270  10.618 -0.3461  0.1226  0.0756
   41loPI    C2  642  12.979   2.935  10.827 -0.0423  0.0557  0.0649
   41loPI    C3  643  13.105   3.266  11.013  0.0315  0.0539  0.0188
   41loPI   PO4  644  13.193   3.237  10.470  0.3235 -0.1264 -0.0976
   41loPI   GL1  645  13.281   3.252  10.083  0.0613  0.0774  0.2946
   41loPI   GL2  646  13.521   3.188  10.010 -0.1580  0.0085 -0.2855
   41loPI   C1A  647  13.170   3.740   9.816 -0.3026  0.0656  0.3338
   41loPI   C2A  648  13.244   3.843   9.454  0.0563 -0.0529 -0.0881
   41loPI   C3A  649  13.432   4.077   9.065  0.1437  0.3732 -0.1484
   41loPI   C4A  650  13.399   4.040   8.776 -0.2039  0.0595 -0.0349
   41loPI   C5A  651  13.554   4.098   8.384 -0.0234 -0.2739  0.2557
   41loPI   C6A  652  13.555   4.331   8.004 -0.0817  0.2835 -0.0234
   41loPI   C1B  653  13.269   3.337   9.519  0.2292  0.2978 -0.0910
   41loPI   C2B  654  13.489   3.375   9.275  0.2029  0.0057 -0.1618
   41loPI   C3B  655  13.481   3.474   8.821 -0.1340 -0.1168  0.3586
   41loPI   C4B  656  13.521   3.571   8.519  0.1102  0.0358 -0.3363
   42loPI    C1  657   5.325   8.350   9.719 -0.0083 -0.2163  0.0340
   42loPI    C2  658   5.517   8.018   9.605  0.1562 -0.1488  0.1119
   42loPI    C3  659   5.270   8.009   9.920  0.0803 -0.2210  0.0506
   42loPI   PO4  660   5.255   8.429   9.463 -0.3836 -0.3739  0.0097
   42loPI   GL1  661   5.470   8.378   9.100 -0.1110  0.0538  0.0088
   42loPI   GL2  662   5.682   8.162   9.074 -0.1223 -0.0429  0.2825
   42loPI   C1A  663   5.290   8.606   8.720 -0.4133 -0.0831 -0.1886
   42loPI   C2A  664   5.410   8.790   8.368 -0.2838 -0.2571  0.0093
   42loPI   C3A  665   5.622   8.765   8.021 -0.0020  0.0349 -0.0937
   42loPI   C4A  666   5.621   8.792   7.568  0.1562 -0.1941 -0.2757
   42loPI   C5A  667   5.804   8.540   7.220 -0.0490 -0.0828 -0.0738
   42loPI   C6A  668   5.751   8.650   6.855 -0.1100  0.2361 -0.1393
   42loPI   C1B  669   5.572   8.108   8.629 -0.1746  0.1735 -0.0138
   42loPI   C2B  670   5.651   8.027   8.164 -0.0715 -0.1601 -0.3052
   42loPI   C3B  671   5.571   7.803   7.853 -0.2373 -0.1295  0.2126
   42loPI   C4B  672   5.584   7.486   7.675 -0.0786  0.0663  0.0886
   43loPI    C1  673   3.664   9.863  10.079  0.0490 -0.2212  0.3168
   43loPI    C2  674   4.044   9.837   9.956 -0.0762 -0.0479 -0.1270
   43loPI    C3  675   3.932  10.136  10.196  0.0330 -0.0063 -0.1273
   43loPI   PO4  676   3.534   9.686   9.928 -0.0159 -0.0974 -0.1519
   43loPI   GL1  677   3.449   9.736   9.530 -0.0576  0.0705 -0.1036
   43loPI   GL2  678   3.753   9.832   9.520  0.1754 -0.0040 -0.1137
   43loPI   C1A  679   3.201   9.665   9.190  0.1214  0.1576  0.0155
   43loPI   C2A  680   3.300   9.647   8.767 -0.0218 -0.0028  0.1736
   43loPI   C3A  681   3.370   9.731   8.357 -0.0496  0.1368 -0.0936
   43loPI   C4A  682   3.450   9.787   7.900  0.0670  0.1104 -0.2294
   43loPI   C5A  683   3.540   9.639   7.555 -0.1605  0.0504  0.1406
   43loPI   C6A  684   3.322   9.505   7.172 -0.0169  0.1672 -0.0356
   43loPI   C1B  685   3.708   9.757   9.067  0.1715 -0.0528  0.1279
   43loPI   C2B  686   3.694   9.970   8.643 -0.2771  0.0818  0.1357
   43loPI   C3B  687   3.846   9.878   8.261 -0.1523 -0.1177 -0.1280
   43loPI   C4B  688   4.025   9.756   7.950  0.4203 -0.0160  0.1795
   44loPI    C1  689  16.146  17.769  10.782 -0.0731  0.1774 -0.0804
   44loPI    C2  690  16.155  18.106  10.566 -0.0019  0.2305  0.0049
   44loPI    C3  691  15.981  18.103  10.927  0.2195  0.2412  0.1137
   44loPI   PO4  692  16.082  17.580  10.638  0.1391 -0.1845  0.1010
   44loPI   GL1  693  16.279  17.711  10.240  0.1750  0.2273  0.0489
   44loPI   GL2  694  16.079  17.501  10.164  0.0564  0.2038 -0.0666
   44loPI   C1A  695  16.373  18.030  10.102 -0.0540  0.1721  0.0730
   44loPI   C2A  696  16.400  18.251   9.798  0.0047 -0.0361 -0.1790
   44loPI   C3A  697  16.448  18.339   9.374 -0.1727 -0.0989 -0.0766
   44loPI   C4A  698  16.459  18.447   8.953  0.1732 -0.1746  0.0828
   44loPI   C5A  699  16.319  18.511   8.572 -0.1902  0.1161 -0.0249
   44loPI   C6A  700  15.959  18.417   8.402 -0.2436 -0.0617  0.1208
   44loPI   C1B  701  16.089  17.405   9.749  0.1316 -0.0271  0.1673
   44loPI   C2B  702  16.175  17.278   9.410 -0.0603 -0.0701  0.0215
   44loPI   C3B  703  16.246  17.377   9.056  0.0373 -0.0203  0.3177
   44loPI   C4B  704  16.255  17.586   8.665  0.0569  0.3119 -0.0176
   45loPI    C1  705  11.176  12.424  10.801 -0.0934 -0.1850  0.1860
   45loPI    C2  706  11.085  12.536  11.174 -0.0261 -0.0511  0.1632
   45loPI    C3  707  11.337  12.231  11.112 -0.2084 -0.2165  0.2262
   45loPI   PO4  708  11.268  12.626  10.630 -0.1898  0.1320 -0.1511
   45loPI   GL1  709  11.382  12.728  10.075 -0.1662 -0.0936  0.0957
   45loPI   GL2  710  11.165  12.737   9.920 -0.0707 -0.1248 -0.0805
   45loPI   C1A  711  11.559  12.618   9.607  0.0441  0.2457 -0.0080
   45loPI   C2A  712  11.878  12.383   9.494 -0.0193 -0.0957  0.1900
   45loPI   C3A  713  12.214  12.116   9.289  0.3479  0.0482  0.2325
   45loPI   C4A  714  12.122  12.033   8.867 -0.1797  0.0029 -0.0747
   45loPI   C5A  715  11.876  11.924   8.516 -0.0179  0.1650 -0.0166
   45loPI   C6A  716  11.503  12.092   8.325  0.0771 -0.0188 -0.0931
   45loPI   C1B  717  11.097  12.612   9.454 -0.2267  0.1108 -0.2649
   45loPI   C2B  718  11.308  12.653   9.100 -0.0987 -0.1913 -0.0088
   45loPI   C3B  719  11.211  12.656   8.722  0.2345 -0.0399 -0.1058
   45loPI   C4B  720  10.793  12.655   8.513 -0.1717  0.1379  0.2393
   46loPI    C1  721   6.030  15.437  10.621 -0.1393 -0.0395  0.0767
   46loPI    C2  722   6.216  15.145  10.820 -0.1391 -0.0919 -0.0001
   46loPI    C3  723   6.198  15.512  10.976 -0.0307 -0.1025  0.0390
   46loPI   PO4  724   6.163  15.465  10.375  0.2425 -0.0523  0.0378
   46loPI   GL1  725   6.528  15.349  10.001 -0.1144 -0.1000 -0.1599
   46loPI   GL2  726   6.317  15.652   9.944  0.0485 -0.2575 -0.0660
   46loPI   C1A  727   6.323  15.161   9.647 -0.3973  0.0218 -0.0794
   46loPI   C2A  728   6.370  15.213   9.241 -0.0071 -0.2717 -0.0125
   46loPI   C3A  729   6.271  15.189   8.830 -0.0476  0.1529 -0.1418
   46loPI   C4A  730   6.279  14.869   8.504 -0.2120 -0.2439 -0.0427
   46loPI   C5A  731   6.178  14.619   8.169  0.0513 -0.1128  0.6050
   46loPI   C6A  732   5.912  14.360   7.935  0.0656  0.1380  0.1127
   46loPI   C1B  733   6.349  15.722   9.507 -0.3031  0.2076  0.1287
   46loPI   C2B  734   6.329  15.738   9.047 -0.1066  0.0011 -0.2092
   46loPI   C3B  735   6.280  15.854   8.565 -0.0196 -0.0555 -0.2324
   46loPI   C4B  736   6.217  15.808   8.127  0.0238  0.0431 -0.1116
   47loPI    C1  737  15.835  10.098  10.083 -0.1581  0.0617  0.1548
   47loPI    C2  738  15.925   9.762  10.280  0.0177 -0.0111 -0.0454
   47loPI    C3  739  15.826  10.092  10.483 -0.0706 -0.1583  0.1548
   47loPI   PO4  740  15.753   9.911   9.860  0.0251  0.0020  0.3430
   47loPI   GL1  741  15.821   9.491   9.825  0.1465  0.1520 -0.0564
   47loPI   GL2  742  15.528   9.367   9.628 -0.3839  0.2604 -0.2298
   47loPI   C1A  743  16.077   9.483   9.413 -0.1665  0.0168 -0.1878
   47loPI   C2A  744  16.348   9.566   9.013  0.0406  0.1655  0.1731
   47loPI   C3A  745  16.660   9.661   8.670  0.3736 -0.1300  0.0582
   47loPI   C4A  746  16.875   9.960   8.430  0.0482  0.1803  0.0473
   47loPI   C5A  747  16.872   9.885   7.987 -0.2338  0.2900  0.2210
   47loPI   C6A  748  16.731   9.959   7.694 -0.3741  0.2878 -0.0758
   47loPI   C1B  749  15.627   9.583   9.245  0.0579 -0.1558 -0.2871
   47loPI   C2B  750  15.736   9.850   8.927  0.1328  0.0735 -0.1195
   47loPI   C3B  751  15.802  10.060   8.596 -0.0265  0.2708  0.0711
   47loPI   C4B  752  15.973   9.909   8.169 -0.1810  0.0124 -0.2732
   48loPI    C1  753   1.877   9.993  10.740 -0.1835 -0.0123  0.0659
   48loPI    C2  754   1.794   9.707  11.008 -0.1813 -0.0205  0.0578
   48loPI    C3  755   2.160   9.732  10.849 -0.2537 -0.1763 -0.1375
   48loPI   PO4  756   1.635   9.994  10.601 -0.1077 -0.1281 -0.0281
   48loPI   GL1  757   1.585   9.953  10.120  0.1951  0.1185  0.0373
   48loPI   GL2  758   1.366   9.582  10.082 -0.0696  0.1734  0.0938
   48loPI   C1A  759   1.357   9.989   9.742 -0.0218  0.1391  0.2319
   48loPI   C2A  760   1.309  10.071   9.356  0.1956 -0.0585  0.0470
   48loPI   C3A  761   1.042  10.476   9.174 -0.1228  0.4395  0.1567
   48loPI   C4A  762   1.255  10.770   8.952 -0.1174  0.0352  0.0517
   48loPI   C5A  763   1.130  10.916   8.564  0.2649 -0.0531 -0.0117
   48loPI   C6A  764   1.067  10.796   8.148  0.1487 -0.2737 -0.1175
   48loPI   C1B  765   1.270   9.509   9.651 -0.2031  0.2680 -0.3560
   48loPI   C2B  766   1.298   9.598   9.220 -0.0437  0.0572 -0.2157
   48loPI   C3B  767   1.343   9.847   8.856 -0.1589 -0.3964 -0.0179
   48loPI   C4B  768   1.566  10.010   8.515 -0.1042  0.0088  0.1326
   49loPI    C1  769   6.595   4.159  10.562  0.0236  0.0856 -0.1922
   49loPI    C2  770   6.754   4.033  10.906  0.1303  0.0442 -0.2561
   49loPI    C3  771   6.400   4.220  10.906  0.0252 -0.1515 -0.1476
   49loPI   PO4  772   6.785   4.083  10.325  0.0033 -0.1664  0.1844
   49loPI   GL1  773   6.771   4.120   9.841 -0.0115 -0.1613  0.3516
   49loPI   GL2  774   6.840   3.854   9.700  0.1208 -0.2285 -0.0822
   49loPI   C1A  775   6.516   4.161   9.416  0.2163  0.0592  0.0280
   49loPI   C2A  776   6.494   3.964   9.043 -0.2025 -0.1883  0.1429
   49loPI   C3A  777   6.474   3.877   8.675 -0.1327 -0.1622 -0.2228
   49loPI   C4A  778   6.507   3.734   8.197 -0.2162 -0.0232  0.1767
   49loPI   C5A  779   6.701   3.869   7.905 -0.0478 -0.0557  0.0606
   49loPI   C6A  780   6.865   4.058   7.559 -0.3096 -0.4898 -0.2436
   49loPI   C1B  781   6.965   3.944   9.237  0.0733 -0.1399  0.0619
   49loPI   C2B  782   6.990   3.716   8.813  0.1356 -0.1340  0.2578
   49loPI   C3B  783   6.852   3.449   8.429  0.0745  0.1082 -0.2053
   49loPI   C4B  784   6.928   3.424   8.020  0.3930 -0.1313 -0.1133
   50loPI    C1  785   5.253   2.281  10.476 -0.0829 -0.0226  0.0145
   50loPI    C2  786   5.007   2.596  10.495  0.0322  0.0678  0.0193
   50loPI    C3  787   5.268   2.528  10.791  0.0394 -0.0060 -0.0038
   50loPI   PO4  788   5.335   2.320  10.186  0.1325 -0.1702 -0.1966
   50loPI   GL1  789   5.438   2.538   9.823  0.1240  0.2764  0.2731
   50loPI   GL2  790   5.218   2.751   9.710  0.2081  0.0656 -0.2290
   50loPI   C1A  791   5.586   2.471   9.316 -0.3075 -0.1658  0.1342
   50loPI   C2A  792   5.552   2.384   8.845  0.2753 -0.2113 -0.0408
   50loPI   C3A  793   5.559   2.013   8.512 -0.0334 -0.2418  0.1157
   50loPI   C4A  794   5.595   1.781   8.076 -0.0141 -0.0828  0.0363
   50loPI   C5A  795   5.836   1.388   8.090  0.2060 -0.0001 -0.2282
   50loPI   C6A  796   5.675   0.945   8.123  0.2629 -0.2183 -0.1807
   50loPI   C1B  797   5.114   2.653   9.259 -0.2125 -0.0844 -0.2061
   50loPI   C2B  798   5.121   2.656   8.751 -0.1946 -0.1493 -0.2038
   50loPI   C3B  799   5.043   2.807   8.362 -0.1348  0.0367 -0.0983
   50loPI   C4B  800   5.038   2.952   7.915  0.1020  0.0379  0.0791
   51loPI    C1  801   4.226   5.612  10.223  0.1475  0.0156 -0.0005
   51loPI    C2  802   4.102   5.376  10.521  0.0748 -0.0073 -0.0486
   51loPI    C3  803   4.390   5.645  10.586 -0.0274  0.0738  0.0746
   51loPI   PO4  804   4.341   5.485  10.071 -0.0656 -0.0585 -0.0581
   51loPI   GL1  805   4.239   5.217   9.643 -0.2279 -0.1312  0.1502
   51loPI   GL2  806   4.196   4.932   9.743  0.0639  0.1175  0.0496
   51loPI   C1A  807   4.391   5.400   9.284  0.2065 -0.1308 -0.0105
   51loPI   C2A  808   4.541   5.432   8.874 -0.1534  0.0969 -0.1154
   51loPI   C3A  809   4.293   5.463   8.453 -0.2185  0.0413 -0.0973
   51loPI   C4A  810   4.178   5.372   8.027 -0.0815 -0.4346  0.1376
   51loPI   C5A  811   3.693   5.422   7.869  0.0855 -0.3383 -0.1140
   51loPI   C6A  812   3.325   5.498   8.028  0.1290 -0.0906  0.3740
   51loPI   C1B  813   4.566   4.818   9.487 -0.0344  0.1052 -0.0770
   51loPI   C2B  814   4.644   4.917   9.168  0.0111  0.1068  0.0785
   51loPI   C3B  815   4.579   4.879   8.718 -0.1054  0.0696  0.0536
   51loPI   C4B  816   4.644   5.117   8.295 -0.0150  0.0448 -0.0862
   52loPI    C1  817   0.469   8.549  10.399  0.0359 -0.0711  0.1901
   52loPI    C2  818   0.439   8.309  10.718 -0.0149  0.0170  0.2519
   52loPI    C3  819   0.342   8.696  10.749 -0.0369  0.0218  0.1250
   52loPI   PO4  820   0.671   8.561  10.342  0.0198 -0.1112 -0.1410
   52loPI   GL1  821   0.915   8.382  10.017 -0.0669  0.0246 -0.0431
   52loPI   GL2  822   0.866   8.147   9.821  0.2202 -0.0160 -0.0728
   52loPI   C1A  823   1.033   8.529   9.581 -0.3188  0.1170  0.3487
   52loPI   C2A  824   0.801   8.663   9.299 -0.1279 -0.2428  0.0389
   52loPI   C3A  825   0.806   8.678   8.958 -0.1571 -0.1369  0.0489
   52loPI   C4A  826   0.534   8.713   8.643 -0.1033  0.0931  0.0920
   52loPI   C5A  827   0.592   8.682   8.221 -0.0475  0.2596  0.4428
   52loPI   C6A  828   0.475   8.517   7.818  0.1638  0.2098  0.2765
   52loPI   C1B  829   0.818   8.096   9.402  0.0442 -0.2937 -0.1477
   52loPI   C2B  830   0.835   8.120   8.986 -0.0036  0.1260 -0.1536
   52loPI   C3B  831   0.919   8.306   8.672 -0.2903  0.3898  0.1752
   52loPI   C4B  832   1.029   8.133   8.294  0.2012  0.0720  0.1582
   53loPI    C1  833   2.105   5.838  10.248  0.1411 -0.1268 -0.1276
   53loPI    C2  834   2.455   5.980  10.379  0.1463 -0.1209 -0.1480
   53loPI    C3  835   2.204   5.803  10.634  0.0227  0.1651 -0.0677
   53loPI   PO4  836   2.129   5.720  10.061  0.0609 -0.0494 -0.1569
   53loPI   GL1  837   1.905   5.484   9.856 -0.1610  0.0994 -0.2578
   53loPI   GL2  838   1.664   5.291   9.899 -0.2701  0.3417  0.2155
   53loPI   C1A  839   2.066   5.415   9.440  0.0806 -0.2371 -0.0275
   53loPI   C2A  840   2.139   5.376   9.105  0.2170  0.0902 -0.2357
   53loPI   C3A  841   2.441   5.319   8.774 -0.1461  0.3254 -0.1909
   53loPI   C4A  842   2.549   5.180   8.416 -0.2737  0.0455 -0.0806
   53loPI   C5A  843   2.793   5.008   8.103  0.1047 -0.0644 -0.0495
   53loPI   C6A  844   3.077   5.039   7.806  0.1229  0.2106 -0.0487
   53loPI   C1B  845   1.492   5.082   9.464 -0.0642  0.1115 -0.0103
   53loPI   C2B  846   1.248   5.012   9.042 -0.2067  0.4543 -0.1297
   53loPI   C3B  847   1.162   5.010   8.574 -0.2950  0.0791  0.0585
   53loPI   C4B  848   0.759   4.846   8.309 -0.2251 -0.0688  0.0180
   54loPI    C1  849  14.163   7.312  10.694 -0.0139  0.0268  0.1050
   54loPI    C2  850  14.535   7.175  10.749 -0.0026 -0.0047 -0.0440
   54loPI    C3  851  14.266   7.148  11.044  0.0420 -0.2124 -0.0209
   54loPI   PO4  852  14.010   7.137  10.565 -0.1495  0.3865 -0.2034
   54loPI   GL1  853  13.984   6.881  10.274 -0.1671  0.3560  0.0469
   54loPI   GL2  854  14.183   6.629  10.177 -0.0685 -0.0343 -0.0734
   54loPI   C1A  855  14.202   7.043   9.883 -0.1500  0.1393 -0.3091
   54loPI   C2A  856  14.278   6.962   9.530 -0.2110  0.0440 -0.0963
   54loPI   C3A  857  14.345   7.035   9.108  0.0090  0.0713 -0.0222
   54loPI   C4A  858  14.347   6.960   8.643  0.1887  0.2406 -0.3358
   54loPI   C5A  859  14.364   6.932   8.214 -0.0538 -0.0328  0.0331
   54loPI   C6A  860  14.340   6.565   7.895 -0.0571 -0.0280 -0.0740
   54loPI   C1B  861  14.312   6.494   9.745  0.1645 -0.3834  0.1636
   54loPI   C2B  862  14.311   6.488   9.314 -0.0395  0.1226  0.0798
   54loPI   C3B  863  14.241   6.348   8.924  0.0727  0.1580  0.1036
   54loPI   C4B  864  14.280   6.502   8.401  0.0560  0.0965 -0.1823
   55loPI    C1  865  13.114   8.779  10.960  0.0194 -0.1561 -0.0142
   55loPI    C2  866  12.765   8.602  10.879  0.0043 -0.0650 -0.1513
   55loPI    C3  867  13.103   8.389  10.872 -0.0287 -0.1165 -0.1884
   55loPI   PO4  868  13.047   9.049  10.833 -0.0651  0.0957 -0.0773
   55loPI   GL1  869  13.097   8.933  10.361  0.1544  0.3032  0.0261
   55loPI   GL2  870  12.954   9.019  10.113  0.0879 -0.0380 -0.0303
   55loPI   C1A  871  13.164   8.586  10.052 -0.1275  0.2223 -0.0140
   55loPI   C2A  872  13.088   8.508   9.582 -0.1316 -0.0515 -0.0808
   55loPI   C3A  873  13.037   8.390   9.133  0.0425 -0.0321  0.1334
   55loPI   C4A  874  12.949   8.381   8.636 -0.1485  0.0810  0.2563
   55loPI   C5A  875  13.011   8.275   8.242 -0.2535 -0.2157  0.2894
   55loPI   C6A  876  12.849   8.453   7.907 -0.0901  0.0337  0.3554
   55loPI   C1B  877  13.030   9.007   9.676 -0.5294 -0.1799 -0.1469
   55loPI   C2B  878  12.960   8.900   9.227  0.1702 -0.0212 -0.2330
   55loPI   C3B  879  13.012   8.851   8.813 -0.1448  0.0270  0.0271
   55loPI   C4B  880  13.021   8.990   8.362 -0.1564  0.1194 -0.0235
   56loPI    C1  881  17.312  15.188  10.654  0.0023 -0.1667  0.0372
   56loPI    C2  882  17.395  15.538  10.829  0.0312 -0.1389 -0.0318
   56loPI    C3  883  17.683  15.264  10.783  0.1200  0.0087 -0.3892
   56loPI   PO4  884  17.157  15.242  10.453  0.2879  0.1905 -0.3220
   56loPI   GL1  885  17.132  15.287  10.039  0.1952 -0.1790  0.0655
   56loPI   GL2  886  17.191  14.988  10.070 -0.2535 -0.0374  0.0377
   56loPI   C1A  887  16.995  15.451   9.568  0.1151  0.0136 -0.0904
   56loPI   C2A  888  17.136  15.392   9.175 -0.0138 -0.1012 -0.0795
   56loPI   C3A  889  17.213  15.441   8.781  0.0357  0.3305 -0.0423
   56loPI   C4A  890  17.376  15.486   8.421  0.3322  0.2107  0.1853
   56loPI   C5A  891  17.613  15.512   8.047  0.0417 -0.0481  0.3099
   56loPI   C6A  892  18.044  15.605   7.864  0.2867 -0.1373  0.0883
   56loPI   C1B  893  17.205  14.932   9.565 -0.0478  0.0091 -0.1489
   56loPI   C2B  894  17.150  14.936   9.081 -0.0280 -0.3196 -0.1845
   56loPI   C3B  895  17.222  14.966   8.603 -0.0937  0.1031 -0.2020
   56loPI   C4B  896  17.368  15.009   8.145  0.2087 -0.1235 -0.1246
   57loPI    C1  897  14.068   3.533  10.826 -0.4398  0.0349  0.0826
   57loPI    C2  898  13.913   3.212  11.006  0.0106 -0.1427  0.1668
   57loPI    C3  899  14.176   3.442  11.200  0.0289  0.0216 -0.0493
   57loPI   PO4  900  14.177   3.427  10.562  0.1928 -0.0237  0.1650
   57loPI   GL1  901  14.086   3.470  10.247  0.1707  0.0843 -0.5916
   57loPI   GL2  902  14.330   3.519  10.097  0.0581  0.0495  0.1063
   57loPI   C1A  903  13.995   3.269   9.788 -0.0746  0.0616  0.0130
   57loPI   C2A  904  13.876   3.079   9.410 -0.1187  0.2501 -0.0285
   57loPI   C3A  905  13.743   2.971   9.125 -0.0537  0.4472  0.1490
   57loPI   C4A  906  13.748   3.082   8.632  0.0162 -0.1321 -0.0760
   57loPI   C5A  907  13.613   3.141   8.288 -0.1520 -0.0577  0.0776
   57loPI   C6A  908  13.610   3.148   7.746  0.1502 -0.0909 -0.1911
   57loPI   C1B  909  14.520   3.274   9.706  0.0246 -0.2347 -0.2922
   57loPI   C2B  910  14.428   3.136   9.251 -0.1988 -0.1036 -0.2740
   57loPI   C3B  911  14.168   3.073   8.856 -0.1485 -0.0532  0.4177
   57loPI   C4B  912  13.947   3.386   8.926 -0.2143 -0.1936 -0.2012
   58loPI    C1  913  14.704   5.276  10.465 -0.3714  0.0827  0.3761
   58loPI    C2  914  14.679   5.189  10.855 -0.2099  0.1131  0.3939
   58loPI    C3  915  14.912   5.490  10.732  0.2339 -0.2877  0.2208
   58loPI   PO4  916  14.431   5.162  10.344  0.2076  0.1634 -0.0390
   58loPI   GL1  917  14.279   5.344  10.013  0.1760  0.2403  0.2383
   58loPI   GL2  918  14.168   5.093   9.818  0.0690  0.1043  0.0527
   58loPI   C1A  919  14.647   5.180   9.776 -0.1823 -0.2572  0.0476
   58loPI   C2A  920  14.624   5.085   9.369 -0.0197 -0.2604  0.4258
   58loPI   C3A  921  14.630   5.114   8.923 -0.2760 -0.2170  0.2214
   58loPI   C4A  922  14.551   5.085   8.492 -0.1164 -0.0807 -0.1897
   58loPI   C5A  923  14.587   5.243   8.141  0.1261  0.1126 -0.0154
   58loPI   C6A  924  14.518   5.690   8.047  0.2039  0.2200  0.3979
   58loPI   C1B  925  14.176   5.334   9.510  0.0073  0.3099  0.2403
   58loPI   C2B  926  14.171   5.377   9.173 -0.2068  0.0871 -0.0850
   58loPI   C3B  927  14.219   5.297   8.760  0.1795  0.0764  0.2387
   58loPI   C4B  928  14.130   5.259   8.327  0.0277  0.0770 -0.0756
   59loPI    C1  929   1.003   5.009  10.583  0.0735  0.1174 -0.1237
   59loPI    C2  930   1.044   4.702  10.835 -0.0101  0.2221  0.0188
   59loPI    C3  931   1.327   4.984  10.816  0.2703 -0.0765 -0.4118
   59loPI   PO4  932   0.738   5.071  10.451 -0.0245 -0.0839  0.1490
   59loPI   GL1  933   0.443   5.287  10.148 -0.4252 -0.3497 -0.3560
   59loPI   GL2  934   0.130   5.389  10.207  0.1098  0.3904  0.0765
   59loPI   C1A  935   0.721   5.411   9.823  0.2205 -0.0863  0.1593
   59loPI   C2A  936   0.726   5.339   9.390 -0.0857 -0.0959  0.2077
   59loPI   C3A  937   0.720   5.318   8.988 -0.0065 -0.3056  0.3119
   59loPI   C4A  938   0.705   5.309   8.512  0.3569  0.0232  0.3906
   59loPI   C5A  939   0.698   5.362   7.977 -0.2726 -0.2104  0.0269
   59loPI   C6A  940   1.120   5.260   7.846  0.1209  0.2112  0.1551
   59loPI   C1B  941  -0.049   5.413   9.800 -0.1006 -0.1585 -0.1228
   59loPI   C2B  942  -0.113   5.448   9.365  0.1758 -0.0097 -0.0352
   59loPI   C3B  943  -0.087   5.480   8.878  0.2277  0.0088  0.2040
   59loPI   C4B  944  -0.135   5.438   8.502  0.0611 -0.2060  0.2544
   60loPI    C1  945   5.797  11.718  10.545 -0.0106  0.0805  0.1217
   60loPI    C2  946   5.929  12.068  10.685 -0.1212  0.1825 -0.0257
   60loPI    C3  947   5.572  11.928  10.800 -0.1101  0.1545 -0.0254
   60loPI   PO4  948   5.893  11.716  10.304 -0.0474  0.0330  0.0349
   60loPI   GL1  949   5.977  11.534   9.978  0.2793  0.2271  0.0413
   60loPI   GL2  950   5.634  11.565   9.852  0.0843  0.1200  0.0972
   60loPI   C1A  951   6.102  11.325   9.491 -0.1765 -0.2910 -0.2078
   60loPI   C2A  952   6.124  11.277   9.067 -0.2859 -0.1013 -0.2694
   60loPI   C3A  953   6.094  11.288   8.604  0.1350 -0.1644  0.0083
   60loPI   C4A  954   6.092  11.245   8.230  0.0365 -0.0287 -0.0972
   60loPI   C5A  955   6.264  11.520   7.919  0.0696 -0.1768 -0.2978
   60loPI   C6A  956   6.339  11.860   7.704  0.0448  0.1037 -0.2023
   60loPI   C1B  957   5.590  11.289   9.562  0.2371 -0.0905 -0.3383
   60loPI   C2B  958   5.644  11.338   9.226  0.2179  0.2883 -0.1636
   60loPI   C3B  959   5.564  11.359   8.799  0.1022 -0.2310 -0.0960
   60loPI   C4B  960   5.596  11.348   8.366  0.0672  0.0468  0.0749
   61loPI    C1  961  14.914  17.899  10.970 -0.0590 -0.0375 -0.0123
   61loPI    C2  962  14.915  17.573  11.201 -0.0679 -0.2052 -0.2453
   61loPI    C3  963  14.579  17.686  11.016 -0.0357 -0.1316 -0.2588
   61loPI   PO4  964  15.010  17.922  10.708 -0.1466  0.0073 -0.1271
   61loPI   GL1  965  15.200  18.024  10.347  0.0801  0.0968  0.1527
   61loPI   GL2  966  14.820  18.065  10.235 -0.2999  0.0182  0.4144
   61loPI   C1A  967  15.262  18.232   9.875  0.0906  0.2559 -0.0461
   61loPI   C2A  968  15.349  18.351   9.477 -0.1947 -0.0271  0.1238
   61loPI   C3A  969  15.447  18.304   9.092  0.0945 -0.2118 -0.2918
   61loPI   C4A  970  15.573  18.305   8.636 -0.0529  0.1321 -0.0437
   61loPI   C5A  971  15.523  18.242   8.263 -0.0284 -0.2645  0.0680
   61loPI   C6A  972  15.719  18.020   8.034  0.1320 -0.0702 -0.0578
   61loPI   C1B  973  14.790  18.021   9.850  0.0457  0.0818 -0.0630
   61loPI   C2B  974  14.846  18.336   9.493  0.0472  0.0063 -0.0912
   61loPI   C3B  975  14.927  18.283   9.102 -0.0281  0.0753 -0.1396
   61loPI   C4B  976  14.741  18.500   8.780  0.0160 -0.1388 -0.0090
   62loPI    C1  977  16.966  13.350  10.363  0.0729 -0.1444  0.1568
   62loPI    C2  978  16.845  13.466  10.726 -0.2174 -0.3250  0.1210
   62loPI    C3  979  16.931  13.082  10.658  0.0971 -0.2475  0.0664
   62loPI   PO4  980  17.142  13.572  10.251  0.0673 -0.1106 -0.1196
   62loPI   GL1  981  17.269  13.639   9.799 -0.3492 -0.0102 -0.2661
   62loPI   GL2  982  17.503  13.685   9.883 -0.0935 -0.0280 -0.1071
   62loPI   C1A  983  17.286  13.517   9.462  0.1228 -0.0803  0.0507
   62loPI   C2A  984  17.337  13.455   9.060  0.2289  0.1833 -0.1061
   62loPI   C3A  985  17.166  13.484   8.683 -0.3730  0.1216 -0.0681
   62loPI   C4A  986  17.155  13.450   8.269  0.0230 -0.0947  0.1269
   62loPI   C5A  987  17.056  13.471   7.821 -0.2237 -0.0271  0.1064
   62loPI   C6A  988  16.802  13.729   7.572 -0.0229 -0.0208  0.0245
   62loPI   C1B  989  17.571  13.981   9.495 -0.2386 -0.0212  0.1310
   62loPI   C2B  990  17.574  13.918   9.080  0.0741 -0.0495 -0.2388
   62loPI   C3B  991  17.602  14.093   8.697 -0.2442 -0.2101  0.0045
   62loPI   C4B  992  17.553  14.020   8.274 -0.4823 -0.0808  0.0152
   63loPI    C1  993  12.477   8.202  10.602 -0.0774  0.2166 -0.0581
   63loPI    C2  994  12.350   8.276  10.229  0.0023  0.0496 -0.1195
   63loPI    C3  995  12.086   8.191  10.517 -0.0437 -0.0403 -0.1881
   63loPI   PO4  996  12.709   8.094  10.614  0.0096  0.0798  0.2493
   63loPI   GL1  997  12.812   7.938  10.217 -0.0448 -0.1029  0.3086
   63loPI   GL2  998  13.133   8.115  10.292  0.2176  0.0770  0.4077
   63loPI   C1A  999  12.532   7.900   9.888  0.2330  0.1762  0.1095
   63loPI   C2A 1000  12.282   7.877   9.484 -0.0646  0.2811 -0.2506
   63loPI   C3A 1001  12.184   7.705   9.030  0.0378  0.0283  0.1064
   63loPI   C4A 1002  12.173   7.734   8.592 -0.0290  0.1084 -0.1526
   63loPI   C5A 1003  12.081   7.508   8.143 -0.0950 -0.1401 -0.1273
   63loPI   C6A 1004  11.812   7.266   7.848 -0.3288 -0.1683 -0.2590
   63loPI   C1B 1005  12.977   8.033   9.746  0.0262 -0.0966 -0.1764
   63loPI   C2B 1006  13.078   7.900   9.313 -0.0677  0.1501  0.1070
   63loPI   C3B 1007  13.074   7.949   8.852 -0.3515 -0.2031  0.1150
   63loPI   C4B 1008  13.072   7.847   8.445  0.1330  0.2048 -0.2886
   64loPI    C1 1009   4.922   6.274  10.430 -0.1645 -0.0133  0.0621
   64loPI    C2 1010   4.888   6.362  10.819  0.3441 -0.0405  0.1197
   64loPI    C3 1011   5.171   6.538  10.598 -0.0563  0.1125 -0.2871
   64loPI   PO4 1012   4.683   6.303  10.356 -0.0411 -0.0754 -0.1125
   64loPI   GL1 1013   4.564   6.392   9.967  0.0876  0.0487 -0.1176
   64loPI   GL2 1014   4.401   6.062   9.900  0.2709  0.0405  0.0086
   64loPI   C1A 1015   4.328   6.541   9.571 -0.2842  0.1183  0.1431
   64loPI   C2A 1016   4.320   6.750   9.181  0.0181 -0.2389 -0.1176
   64loPI   C3A 1017   4.247   6.936   8.827  0.0097 -0.1928  0.0871
   64loPI   C4A 1018   4.345   7.016   8.376 -0.0261 -0.1384 -0.1067
   64loPI   C5A 1019   4.528   6.839   7.941  0.0478  0.1932  0.0935
   64loPI   C6A 1020   4.547   6.571   7.575 -0.3723  0.0112 -0.0309
   64loPI   C1B 1021   4.425   6.005   9.331  0.1327 -0.1287 -0.0101
   64loPI   C2B 1022   4.684   5.910   8.957 -0.1279 -0.2243  0.1039
   64loPI   C3B 1023   4.750   6.140   8.630 -0.3634  0.1886  0.2097
   64loPI   C4B 1024   5.172   6.077   8.408 -0.0850  0.1637 -0.1880
   65loPI    C1 1025  15.793   1.956  10.955 -0.0283  0.0443  0.1696
   65loPI    C2 1026  16.037   2.264  10.879  0.0155 -0.0180  0.0544
   65loPI    C3 1027  15.859   2.233  11.236 -0.0148  0.1578  0.0555
   65loPI   PO4 1028  15.559   1.921  10.697  0.1126 -0.1397  0.3712
   65loPI   GL1 1029  15.498   1.777  10.238  0.0144 -0.0084  0.1048
   65loPI   GL2 1030  15.568   2.072  10.154  0.1002  0.1581  0.0549
   65loPI   C1A 1031  15.121   1.916   9.958 -0.0295  0.3501 -0.0872
   65loPI   C2A 1032  14.750   1.911   9.656  0.0833  0.1869 -0.0388
   65loPI   C3A 1033  14.441   1.886   9.378  0.0577 -0.3049 -0.2013
   65loPI   C4A 1034  14.186   2.157   9.134  0.4119  0.0988  0.1308
   65loPI   C5A 1035  14.057   2.191   8.768  0.1328 -0.0883  0.2337
   65loPI   C6A 1036  14.065   2.222   8.342  0.2488  0.1506 -0.0459
   65loPI   C1B 1037  15.632   2.024   9.581  0.1970  0.2725 -0.3284
   65loPI   C2B 1038  15.588   2.020   9.148 -0.0202 -0.0932 -0.0311
   65loPI   C3B 1039  15.567   1.975   8.642  0.2162  0.1344  0.1957
   65loPI   C4B 1040  15.283   1.807   8.376 -0.2033  0.0006 -0.0409
   66loPI    C1 1041  16.382  16.848  10.541  0.1698  0.1226  0.3864
   66loPI    C2 1042  16.585  16.736  10.215 -0.0126  0.1781  0.2523
   66loPI    C3 1043  16.781  16.821  10.553  0.1853  0.2131  0.1304
   66loPI   PO4 1044  16.120  17.021  10.410  0.0846  0.1294  0.3249
   66loPI   GL1 1045  15.927  17.016  10.037 -0.3150 -0.2598 -0.1663
   66loPI   GL2 1046  16.207  16.776   9.908  0.2529  0.1621  0.0907
   66loPI   C1A 1047  15.829  16.923   9.600  0.0724 -0.1188 -0.1351
   66loPI   C2A 1048  15.798  16.983   9.219  0.1955 -0.1219  0.1668
   66loPI   C3A 1049  15.975  17.113   8.817 -0.0582  0.1796  0.2828
   66loPI   C4A 1050  16.133  17.171   8.361  0.1287 -0.2298 -0.0285
   66loPI   C5A 1051  16.498  17.262   8.263  0.1873  0.2209  0.5559
   66loPI   C6A 1052  16.885  17.313   7.970  0.2671  0.0393 -0.1846
   66loPI   C1B 1053  16.350  16.892   9.559 -0.0300  0.1219  0.0572
   66loPI   C2B 1054  16.382  16.909   9.163  0.0194 -0.5655 -0.1654
   66loPI   C3B 1055  16.465  16.944   8.739 -0.0322  0.1167  0.1685
   66loPI   C4B 1056  16.442  16.760   8.370  0.4146 -0.1456 -0.1381
   67loPI    C1 1057  16.348   8.298  10.575  0.1856  0.0778  0.0317
   67loPI    C2 1058  16.581   7.980  10.503 -0.2155 -0.2881  0.2972
   67loPI    C3 1059  16.189   7.963  10.425 -0.2150  0.2104  0.1485
   67loPI   PO4 1060  16.537   8.502  10.471 -0.1686  0.2518  0.0049
   67loPI   GL1 1061  16.581   8.682  10.033 -0.0238 -0.3439  0.0505
   67loPI   GL2 1062  16.954   8.601   9.942 -0.1127 -0.2874 -0.0478
   67loPI   C1A 1063  16.297   8.576   9.755 -0.1449  0.0402 -0.1083
   67loPI   C2A 1064  16.246   8.568   9.302 -0.1098 -0.1390 -0.2800
   67loPI   C3A 1065  16.255   8.440   8.913 -0.3168 -0.1513 -0.3829
   67loPI   C4A 1066  16.171   8.516   8.503 -0.1035  0.0859 -0.1122
   67loPI   C5A 1067  16.069   8.488   8.062  0.2585  0.2009 -0.0211
   67loPI   C6A 1068  16.114   8.242   7.674 -0.0002 -0.0108 -0.1032
   67loPI   C1B 1069  16.808   8.739   9.557 -0.0546  0.0871 -0.0569
   67loPI   C2B 1070  16.743   8.724   9.087 -0.2841 -0.2042  0.0560
   67loPI   C3B 1071  16.685   8.640   8.731 -0.0446 -0.0027 -0.0476
   67loPI   C4B 1072  16.640   8.663   8.238  0.0270  0.3085  0.1245
   68loPI    C1 1073  17.407   2.444  10.693 -0.1952 -0.2198  0.1697
   68loPI    C2 1074  17.307   2.601  11.047 -0.2879 -0.1246  0.1016
   68loPI    C3 1075  17.281   2.823  10.715  0.3633 -0.0224  0.1073
   68loPI   PO4 1076  17.633   2.304  10.740 -0.1249 -0.2185  0.0540
   68loPI   GL1 1077  17.965   2.285  10.381  0.2007 -0.1984 -0.1569
   68loPI   GL2 1078  17.800   2.017  10.354  0.1743 -0.0145 -0.1903
   68loPI   C1A 1079  17.968   2.540   9.933 -0.0732  0.0861 -0.3565
   68loPI   C2A 1080  18.177   2.868   9.659 -0.0623 -0.2681  0.2487
   68loPI   C3A 1081  18.488   3.092   9.376 -0.0103 -0.3269  0.1738
   68loPI   C4A 1082  18.450   3.071   8.983 -0.0308  0.3092  0.0584
   68loPI   C5A 1083  18.375   3.040   8.618  0.2458 -0.2615 -0.3502
   68loPI   C6A 1084  18.390   3.028   8.120 -0.2074 -0.0948  0.2520
   68loPI   C1B 1085  17.899   1.999   9.890 -0.1914  0.2249  0.0422
   68loPI   C2B 1086  17.899   2.188   9.451 -0.0835  0.1964  0.2130
   68loPI   C3B 1087  17.907   2.356   9.015 -0.0157 -0.0629  0.0937
   68loPI   C4B 1088  17.936   2.328   8.537 -0.0843  0.0027 -0.1738
   69loPI    C1 1089   2.031   6.964  10.316  0.1082  0.0216 -0.0323
   69loPI    C2 1090   1.650   6.852  10.271  0.0725  0.1354 -0.0173
   69loPI    C3 1091   1.879   6.675  10.548  0.0296  0.0699 -0.0233
   69loPI   PO4 1092   2.108   7.023  10.087 -0.0201  0.1090 -0.1404
   69loPI   GL1 1093   2.094   6.839   9.678 -0.1099 -0.0841  0.1678
   69loPI   GL2 1094   1.946   7.152   9.639 -0.0805  0.0437 -0.0294
   69loPI   C1A 1095   1.999   6.474   9.497 -0.0873  0.1104  0.4300
   69loPI   C2A 1096   1.962   6.269   9.135  0.2571 -0.0032  0.2019
   69loPI   C3A 1097   2.107   6.326   8.776 -0.0997 -0.0225 -0.0457
   69loPI   C4A 1098   2.382   6.363   8.472  0.2468 -0.2548 -0.2450
   69loPI   C5A 1099   2.504   6.446   8.066 -0.0131  0.0021 -0.1437
   69loPI   C6A 1100   2.837   6.203   7.812 -0.2425 -0.0230  0.1530
   69loPI   C1B 1101   1.990   7.309   9.235  0.1455  0.3598  0.3262
   69loPI   C2B 1102   1.904   7.345   8.738 -0.1318  0.0978  0.1720
   69loPI   C3B 1103   1.857   7.202   8.306 -0.0664 -0.1854  0.4296
   69loPI   C4B 1104   1.627   6.976   8.132 -0.0526  0.1701  0.1806
   70loPI    C1 1105  10.691   7.871  10.675  0.0169 -0.0184 -0.0228
   70loPI    C2 1106  10.495   8.183  10.829  0.4038  0.2029  0.0337
   70loPI    C3 1107  10.462   7.823  11.000 -0.0329  0.2112 -0.0226
   70loPI   PO4 1108  10.681   7.916  10.350 -0.1084  0.3965  0.4366
   70loPI   GL1 1109  10.429   7.714   9.890  0.0968  0.2206 -0.3559
   70loPI   GL2 1110  10.339   8.064   9.992  0.0951  0.2467 -0.0929
   70loPI   C1A 1111  10.218   7.759   9.545 -0.2746 -0.0033  0.1151
   70loPI   C2A 1112  10.208   7.580   9.048 -0.0461 -0.0071 -0.1967
   70loPI   C3A 1113  10.050   7.585   8.632  0.2898  0.0544 -0.1222
   70loPI   C4A 1114  10.308   7.478   8.228  0.1197 -0.1758 -0.1004
   70loPI   C5A 1115  10.411   7.656   7.884  0.1095  0.0797  0.0778
   70loPI   C6A 1116  10.743   7.648   7.625  0.1567  0.1374  0.2280
   70loPI   C1B 1117  10.662   8.096   9.625  0.0495 -0.1285 -0.0834
   70loPI   C2B 1118  10.756   8.252   9.209 -0.1166  0.0593 -0.4075
   70loPI   C3B 1119  10.799   8.186   8.812 -0.2801  0.0251 -0.0445
   70loPI   C4B 1120  10.594   8.347   8.379  0.1220 -0.1385  0.0075
   71loPI    C1 1121   5.220   1.509  10.699  0.0356 -0.0001  0.0973
   71loPI    C2 1122   4.945   1.542  10.987 -0.0916 -0.1638 -0.0037
   71loPI    C3 1123   5.333   1.525  11.082 -0.1033  0.2245  0.1307
   71loPI   PO4 1124   5.085   1.351  10.551  0.2866  0.1518 -0.0463
   71loPI   GL1 1125   5.150   1.226  10.029  0.0867 -0.1461 -0.3167
   71loPI   GL2 1126   4.953   1.011  10.036 -0.0140  0.2154 -0.2704
   71loPI   C1A 1127   5.229   1.586   9.710  0.1691  0.1224 -0.0319
   71loPI   C2A 1128   5.340   1.633   9.295 -0.1574 -0.4050 -0.1762
   71loPI   C3A 1129   5.272   1.658   8.763 -0.0814 -0.1273 -0.0206
   71loPI   C4A 1130   5.057   1.655   8.386 -0.6144 -0.2173  0.2164
   71loPI   C5A 1131   4.691   1.454   8.119  0.1582 -0.4411  0.0690
   71loPI   C6A 1132   4.448   1.099   8.170 -0.3944 -0.1276 -0.1597
   71loPI   C1B 1133   5.135   1.009   9.598  0.0000 -0.0426 -0.2079
   71loPI   C2B 1134   5.135   0.926   9.193  0.0831  0.1942  0.2524
   71loPI   C3B 1135   5.215   0.830   8.799 -0.0620  0.0510 -0.0472
   71loPI   C4B 1136   5.235   0.778   8.333  0.3267 -0.2582  0.0657
   72loPI    C1 1137   2.271   4.362  10.535  0.1416  0.1198  0.2270
   72loPI    C2 1138   2.598   4.130  10.532 -0.0135 -0.1015  0.1781
   72loPI    C3 1139   2.234   3.965  10.504 -0.1272  0.1491  0.1438
   72loPI   PO4 1140   2.314   4.529  10.303  0.1704 -0.0962  0.1982
   72loPI   GL1 1141   2.404   4.317   9.973  0.2190  0.2178  0.1972
   72loPI   GL2 1142   2.653   4.161   9.968 -0.1288 -0.0485 -0.0350
   72loPI   C1A 1143   2.282   4.205   9.545 -0.0575 -0.1570  0.1796
   72loPI   C2A 1144   2.148   4.336   9.140 -0.1180  0.1634  0.3154
   72loPI   C3A 1145   2.306   4.271   8.689  0.1562 -0.0214 -0.3120
   72loPI   C4A 1146   2.224   4.216   8.274  0.1600  0.0027  0.2386
   72loPI   C5A 1147   2.425   4.352   7.882 -0.1406  0.2794  0.1978
   72loPI   C6A 1148   2.550   4.269   7.456  0.0923  0.0690  0.2106
   72loPI   C1B 1149   2.775   4.392   9.611 -0.3408  0.1945  0.0357
   72loPI   C2B 1150   2.749   4.438   9.184 -0.2613  0.1157 -0.1163
   72loPI   C3B 1151   2.652   4.675   8.869  0.1135 -0.1339 -0.2273
   72loPI   C4B 1152   2.604   4.635   8.401  0.0702  0.1884 -0.1432
   73loPI    C1 1153   0.578  10.022  10.551 -0.0236 -0.0735 -0.3521
   73loPI    C2 1154   0.633   9.757  10.845  0.0566 -0.0745 -0.3679
   73loPI    C3 1155   0.390  10.069  10.901  0.1687 -0.0060 -0.2562
   73loPI   PO4 1156   0.606   9.799  10.352 -0.1101  0.0451  0.1570
   73loPI   GL1 1157   0.868   9.530  10.114  0.0573 -0.2241 -0.1458
   73loPI   GL2 1158   0.950   9.807   9.996  0.2427 -0.2045  0.0836
   73loPI   C1A 1159   0.709   9.339   9.744  0.0604 -0.0519  0.0593
   73loPI   C2A 1160   0.846   9.390   9.375  0.3454 -0.2219  0.0531
   73loPI   C3A 1161   0.878   9.460   8.973  0.0298 -0.0050 -0.2480
   73loPI   C4A 1162   0.677   9.473   8.534  0.2510  0.0492  0.0880
   73loPI   C5A 1163   0.525   9.174   8.215 -0.1242 -0.0810  0.0632
   73loPI   C6A 1164   0.548   8.993   7.795 -0.1959  0.2405  0.2324
   73loPI   C1B 1165   0.899   9.857   9.584 -0.1244  0.4030  0.3088
   73loPI   C2B 1166   0.899   9.869   9.163  0.3052  0.1340 -0.1442
   73loPI   C3B 1167   0.781  10.020   8.803 -0.0196 -0.0008  0.0412
   73loPI   C4B 1168   0.865   9.845   8.321 -0.1229 -0.1051 -0.0969
   74loPI    C1 1169   9.741  14.528  10.239 -0.1383  0.2164 -0.1770
   74loPI    C2 1170   9.941  14.605  10.577 -0.1174 -0.0025 -0.1384
   74loPI    C3 1171   9.555  14.504  10.593 -0.1323  0.0475 -0.1845
   74loPI   PO4 1172   9.759  14.735  10.057 -0.0207 -0.0714 -0.3906
   74loPI   GL1 1173   9.862  14.842   9.698  0.2525 -0.0546 -0.0160
   74loPI   GL2 1174  10.183  14.887   9.818 -0.1001  0.0999 -0.0634
   74loPI   C1A 1175   9.796  14.839   9.209 -0.1151 -0.4424  0.0047
   74loPI   C2A 1176   9.833  14.807   8.768 -0.2640 -0.1258  0.0350
   74loPI   C3A 1177   9.561  14.818   8.411  0.0162  0.2918  0.0441
   74loPI   C4A 1178   9.342  14.854   8.054 -0.3115  0.1646 -0.0973
   74loPI   C5A 1179   9.281  14.558   7.650 -0.3618 -0.2105 -0.1536
   74loPI   C6A 1180   9.222  14.562   7.272 -0.0493  0.1105  0.1525
   74loPI   C1B 1181  10.200  14.680   9.369 -0.4410 -0.0562  0.0268
   74loPI   C2B 1182  10.336  14.610   8.935 -0.0991  0.0340 -0.3113
   74loPI   C3B 1183  10.403  14.803   8.471  0.1374 -0.0486  0.1894
   74loPI   C4B 1184  10.480  14.705   7.964 -0.2656 -0.1856  0.0484
   75loPI    C1 1185   4.925  10.731  10.828  0.0869  0.0404  0.0354
   75loPI    C2 1186   4.664  11.034  10.809 -0.2154 -0.2137  0.0478
   75loPI    C3 1187   5.016  11.085  10.992 -0.2067  0.1661 -0.0646
   75loPI   PO4 1188   4.748  10.547  10.482  0.1602  0.0148 -0.2078
   75loPI   GL1 1189   4.867  10.625  10.029  0.1771  0.1219 -0.0289
   75loPI   GL2 1190   4.898  10.447   9.760 -0.0408 -0.3339  0.1863
   75loPI   C1A 1191   4.720  10.915   9.710  0.0299  0.0184  0.0035
   75loPI   C2A 1192   4.622  10.995   9.303 -0.0647 -0.1618  0.0509
   75loPI   C3A 1193   4.634  10.916   8.904 -0.0401  0.1199  0.1786
   75loPI   C4A 1194   4.644  11.089   8.431  0.1317 -0.0050 -0.2313
   75loPI   C5A 1195   4.645  11.103   7.939  0.0080 -0.1727 -0.0628
   75loPI   C6A 1196   4.395  10.988   7.560  0.0704  0.2049 -0.1054
   75loPI   C1B 1197   4.954  10.565   9.276 -0.0298  0.0720 -0.0589
   75loPI   C2B 1198   4.942  10.559   8.767 -0.0387  0.0099  0.0734
   75loPI   C3B 1199   5.048  10.800   8.400 -0.2870  0.1540  0.2695
   75loPI   C4B 1200   5.282  10.957   8.156  0.2382 -0.0267  0.0074
   76loPI    C1 1201   5.468  14.735  10.605  0.0548  0.0737 -0.0343
   76loPI    C2 1202   5.811  14.939  10.596  0.1443 -0.0818 -0.2157
   76loPI    C3 1203   5.740  14.681  10.893  0.0901  0.1085 -0.0610
   76loPI   PO4 1204   5.439  14.799  10.312  0.0071  0.0497 -0.0083
   76loPI   GL1 1205   5.560  14.598   9.969 -0.2953 -0.0591 -0.1935
   76loPI   GL2 1206   5.271  14.443  10.009 -0.2868 -0.0965  0.3484
   76loPI   C1A 1207   5.593  14.708   9.544 -0.0022  0.0020 -0.2595
   76loPI   C2A 1208   5.506  14.493   9.137  0.0091 -0.0081  0.2153
   76loPI   C3A 1209   5.662  14.388   8.771 -0.1440  0.1737 -0.1663
   76loPI   C4A 1210   5.578  14.296   8.384  0.0840  0.0492 -0.0099
   76loPI   C5A 1211   5.495  14.036   8.078 -0.0678 -0.1471  0.2077
   76loPI   C6A 1212   5.502  13.959   7.715 -0.0332  0.0998  0.1367
   76loPI   C1B 1213   5.285  14.308   9.685  0.1200  0.1369  0.2194
   76loPI   C2B 1214   5.285  14.074   9.246 -0.0976  0.2713 -0.0977
   76loPI   C3B 1215   5.428  13.931   8.932 -0.0089 -0.2775 -0.1058
   76loPI   C4B 1216   5.503  13.703   8.508  0.0107  0.0182 -0.2499
   77loPI    C1 1217   1.568  10.990   9.967 -0.1346  0.0733 -0.0341
   77loPI    C2 1218   1.343  10.844  10.264  0.0722 -0.1127  0.0339
   77loPI    C3 1219   1.610  11.133  10.338 -0.0926  0.0582 -0.0330
   77loPI   PO4 1220   1.700  10.783   9.917 -0.1630 -0.0039 -0.0771
   77loPI   GL1 1221   1.738  10.837   9.550  0.1014 -0.0396  0.0848
   77loPI   GL2 1222   1.593  11.143   9.470 -0.4992 -0.1898 -0.1654
   77loPI   C1A 1223   1.753  10.647   9.183 -0.0674 -0.0204 -0.0791
   77loPI   C2A 1224   1.505  10.378   8.962 -0.1176  0.0530 -0.0022
   77loPI   C3A 1225   1.227  10.311   8.700 -0.1404  0.0085  0.1573
   77loPI   C4A 1226   0.750  10.494   8.586 -0.0052 -0.0464  0.3303
   77loPI   C5A 1227   0.609  10.531   8.091  0.2531  0.0146 -0.2435
   77loPI   C6A 1228   0.277  10.434   7.779 -0.2214 -0.1502 -0.0923
   77loPI   C1B 1229   1.695  11.124   8.995  0.2065 -0.3378  0.1942
   77loPI   C2B 1230   1.808  10.783   8.631  0.0530 -0.0979 -0.2564
   77loPI   C3B 1231   1.545  10.600   8.395 -0.0295 -0.1232 -0.1826
   77loPI   C4B 1232   1.301  10.367   8.071 -0.1299  0.1400  0.0409
   78loPI    C1 1233   1.330   0.603  10.616 -0.1636 -0.2269 -0.2001
   78loPI    C2 1234   1.156   0.939  10.746 -0.0315 -0.1771 -0.1505
   78loPI    C3 1235   1.447   0.768  10.961  0.0106 -0.2361 -0.2538
   78loPI   PO4 1236   1.354   0.712  10.322  0.0660  0.1552  0.1034
   78loPI   GL1 1237   1.304   0.427   9.916 -0.3566  0.1493 -0.4456
   78loPI   GL2 1238   1.091   0.466   9.831  0.3160 -0.1274  0.0644
   78loPI   C1A 1239   1.553   0.615   9.634 -0.1366 -0.1010  0.2385
   78loPI   C2A 1240   1.607   0.617   9.239  0.3413 -0.3255  0.1041
   78loPI   C3A 1241   1.704   0.727   8.927 -0.0152 -0.2245 -0.1827
   78loPI   C4A 1242   1.585   0.539   8.530 -0.0333  0.1026 -0.0527
   78loPI   C5A 1243   1.804   0.262   8.245  0.2185  0.0548 -0.3840
   78loPI   C6A 1244   1.911  -0.089   8.100 -0.0259 -0.1124  0.0041
   78loPI   C1B 1245   1.119   0.513   9.397  0.2986 -0.0519 -0.1246
   78loPI   C2B 1246   1.174   0.453   8.959  0.1527  0.2052  0.0219
   78loPI   C3B 1247   1.076   0.384   8.622 -0.4723  0.0594  0.2129
   78loPI   C4B 1248   1.228   0.297   8.143  0.0209 -0.2881 -0.1016
   79loPI    C1 1249   7.420   2.417  10.412  0.0135 -0.1701  0.0892
   79loPI    C2 1250   7.461   2.060  10.588  0.0329 -0.1215  0.1838
   79loPI    C3 1251   7.590   2.390  10.773 -0.1611 -0.0434  0.1823
   79loPI   PO4 1252   7.149   2.432  10.290  0.1991 -0.1719 -0.1216
   79loPI   GL1 1253   6.951   2.261   9.846  0.0521  0.2070  0.1216
   79loPI   GL2 1254   6.756   2.383   9.963  0.1646  0.2884  0.1836
   79loPI   C1A 1255   6.940   2.430   9.486  0.1390  0.1205 -0.1555
   79loPI   C2A 1256   6.945   2.443   8.996  0.3008  0.2473 -0.0187
   79loPI   C3A 1257   6.846   2.506   8.646 -0.1356  0.0337  0.1232
   79loPI   C4A 1258   6.866   2.373   8.237  0.1574 -0.3044 -0.1453
   79loPI   C5A 1259   6.563   2.171   7.976 -0.0193  0.0730  0.1107
   79loPI   C6A 1260   6.381   2.104   7.556  0.0242 -0.1204 -0.0487
   79loPI   C1B 1261   6.472   2.300   9.651  0.0700  0.1993  0.2502
   79loPI   C2B 1262   6.499   2.323   9.262 -0.0383 -0.0018 -0.1316
   79loPI   C3B 1263   6.452   2.275   8.857  0.1550 -0.1419 -0.0412
   79loPI   C4B 1264   6.545   2.038   8.491 -0.1307 -0.0032  0.3460
   80loPI    C1 1265   9.012   1.672  10.804 -0.1117  0.0335 -0.0623
   80loPI    C2 1266   9.282   1.494  10.567  0.0374  0.1810 -0.0047
   80loPI    C3 1267   9.226   1.363  10.941 -0.0766  0.0568 -0.0646
   80loPI   PO4 1268   8.821   1.686  10.623 -0.2406 -0.0025  0.0956
   80loPI   GL1 1269   8.608   1.716  10.270 -0.1661 -0.1592  0.0596
   80loPI   GL2 1270   8.954   1.527  10.143 -0.1680 -0.1574 -0.0989
   80loPI   C1A 1271   8.705   1.931   9.936  0.1705  0.1588  0.2525
   80loPI   C2A 1272   8.773   1.892   9.454  0.0615 -0.2326 -0.0192
   80loPI   C3A 1273   8.782   1.845   9.061 -0.1999 -0.1636 -0.0932
   80loPI   C4A 1274   8.721   1.681   8.761  0.1987 -0.0670  0.0555
   80loPI   C5A 1275   8.681   1.650   8.418 -0.0688 -0.2289  0.2059
   80loPI   C6A 1276   8.682   1.276   8.232 -0.2642 -0.1037  0.0208
   80loPI   C1B 1277   8.897   1.382   9.778  0.1562 -0.0660  0.1480
   80loPI   C2B 1278   8.774   1.305   9.290  0.0769 -0.2471 -0.1031
   80loPI   C3B 1279   9.014   1.264   8.914  0.0622 -0.0677  0.1906
   80loPI   C4B 1280   9.202   1.332   8.482  0.2269 -0.3515  0.0905
   81loPI    C1 1281  12.416  17.166  10.403 -0.0375  0.0903  0.1021
   81loPI    C2 1282  12.636  17.085  10.727  0.1202  0.1800  0.0184
   81loPI    C3 1283  12.521  17.461  10.652  0.1094  0.1638 -0.0454
   81loPI   PO4 1284  12.623  17.072  10.173  0.0625 -0.2053  0.1277
   81loPI   GL1 1285  12.892  17.140   9.919 -0.0184  0.2319 -0.0453
   81loPI   GL2 1286  12.999  17.415   9.847  0.0796  0.2494  0.1881
   81loPI   C1A 1287  12.902  16.994   9.529  0.0812  0.1697 -0.2432
   81loPI   C2A 1288  12.938  17.026   9.096  0.1451 -0.1972  0.0199
   81loPI   C3A 1289  12.912  17.059   8.687  0.1545  0.1679 -0.1618
   81loPI   C4A 1290  13.072  16.897   8.232 -0.0721  0.1363 -0.2712
   81loPI   C5A 1291  12.867  16.763   7.839 -0.2655  0.2580 -0.0210
   81loPI   C6A 1292  12.822  16.697   7.442 -0.1372 -0.2564 -0.3228
   81loPI   C1B 1293  13.079  17.507   9.404  0.0478 -0.0054 -0.0589
   81loPI   C2B 1294  13.035  17.534   8.976  0.2490 -0.1837  0.0021
   81loPI   C3B 1295  12.780  17.610   8.630  0.0608  0.0181  0.1287
   81loPI   C4B 1296  12.702  17.876   8.222 -0.2751  0.2285 -0.1303
   82loPI    C1 1297  17.039  14.761  10.657  0.1376 -0.0469 -0.1586
   82loPI    C2 1298  17.064  14.515  10.343  0.1157 -0.0591 -0.1508
   82loPI    C3 1299  17.393  14.693  10.484  0.1078  0.0405 -0.2557
   82loPI   PO4 1300  16.702  14.870  10.498 -0.0080 -0.1143  0.2508
   82loPI   GL1 1301  16.683  15.088  10.138  0.4526  0.2000  0.1444
   82loPI   GL2 1302  16.347  15.113  10.009  0.2041  0.4107  0.0597
   82loPI   C1A 1303  16.752  15.087   9.769  0.1265 -0.1841  0.1413
   82loPI   C2A 1304  16.660  15.085   9.405  0.0640 -0.1205 -0.0313
   82loPI   C3A 1305  16.591  15.036   9.016  0.0278  0.3760 -0.0745
   82loPI   C4A 1306  16.721  14.891   8.660  0.0373  0.2516 -0.0773
   82loPI   C5A 1307  16.832  15.134   8.298 -0.0627  0.2236 -0.1008
   82loPI   C6A 1308  17.000  15.279   7.897 -0.3757  0.0820  0.0886
   82loPI   C1B 1309  16.177  15.154   9.606  0.2040 -0.0744 -0.0348
   82loPI   C2B 1310  16.166  15.101   9.214 -0.1759  0.2489  0.1059
   82loPI   C3B 1311  16.166  15.024   8.741 -0.0960 -0.0010  0.3008
   82loPI   C4B 1312  16.361  15.026   8.344  0.0051 -0.4135 -0.2730
   83loPI    C1 1313  14.182   8.932  10.541 -0.3157 -0.1848 -0.0968
   83loPI    C2 1314  14.379   8.683  10.785  0.1613  0.0409 -0.2400
   83loPI    C3 1315  14.017   8.818  10.888  0.1521 -0.2386  0.1164
   83loPI   PO4 1316  14.241   8.916  10.306 -0.1099 -0.1029  0.1367
   83loPI   GL1 1317  14.092   8.856   9.851 -0.0394  0.0865  0.2275
   83loPI   GL2 1318  14.336   8.621   9.841 -0.0765  0.0167 -0.0420
   83loPI   C1A 1319  13.967   8.847   9.388 -0.0332 -0.1798  0.0746
   83loPI   C2A 1320  13.986   8.843   8.980 -0.2999  0.1069  0.1343
   83loPI   C3A 1321  13.888   8.926   8.584  0.2184  0.2068  0.2758
   83loPI   C4A 1322  14.019   9.095   8.283  0.1734 -0.0040 -0.3453
   83loPI   C5A 1323  14.207   8.744   7.908  0.2728  0.0225 -0.4608
   83loPI   C6A 1324  14.242   8.579   7.567 -0.1831 -0.0755  0.1867
   83loPI   C1B 1325  14.441   8.520   9.448 -0.0543  0.0319 -0.1614
   83loPI   C2B 1326  14.465   8.552   8.994  0.4144  0.3404 -0.3084
   83loPI   C3B 1327  14.411   8.948   8.684 -0.0477 -0.0599 -0.0468
   83loPI   C4B 1328  14.535   9.066   8.302 -0.1769 -0.1171  0.2939
   84loPI    C1 1329  12.162   9.175  10.547 -0.0134  0.0297  0.0810
   84loPI    C2 1330  11.977   9.379  10.837 -0.3992 -0.1723 -0.0159
   84loPI    C3 1331  12.221   9.076  10.930  0.1568  0.3006  0.1275
   84loPI   PO4 1332  12.217   9.330  10.392 -0.1763 -0.3761 -0.3252
   84loPI   GL1 1333  12.287   9.280   9.990  0.1326  0.0045  0.2947
   84loPI   GL2 1334  12.029   9.231   9.760  0.1870 -0.1995  0.0675
   84loPI   C1A 1335  12.537   8.986   9.721  0.1978  0.0888  0.1624
   84loPI   C2A 1336  12.518   8.707   9.379  0.1729  0.1114 -0.0750
   84loPI   C3A 1337  12.592   8.669   9.017  0.0568 -0.2335  0.0394
   84loPI   C4A 1338  12.485   8.649   8.557 -0.2422 -0.2615  0.1258
   84loPI   C5A 1339  12.404   8.506   8.196  0.2683  0.2063  0.0020
   84loPI   C6A 1340  11.970   8.485   8.053  0.1742 -0.1602 -0.0817
   84loPI   C1B 1341  12.153   9.044   9.326 -0.0929  0.4747  0.0162
   84loPI   C2B 1342  12.193   8.991   8.900 -0.0011  0.1538 -0.0069
   84loPI   C3B 1343  12.091   9.120   8.513 -0.0439 -0.0982 -0.1590
   84loPI   C4B 1344  12.240   8.998   8.159 -0.0152  0.1136 -0.0922
   85loPI    C1 1345  13.515   9.187  10.834  0.3754  0.3200 -0.0280
   85loPI    C2 1346  13.486   8.988  11.180 -0.1733  0.0032 -0.2437
   85loPI    C3 1347  13.353   9.365  11.153 -0.0698  0.0511 -0.0959
   85loPI   PO4 1348  13.557   8.972  10.647  0.2188  0.4486  0.0504
   85loPI   GL1 1349  13.724   8.825  10.245  0.0765  0.2303 -0.2291
   85loPI   GL2 1350  13.554   8.946  10.049  0.0280 -0.2049  0.0416
   85loPI   C1A 1351  13.879   8.451  10.017  0.2556  0.1473 -0.0437
   85loPI   C2A 1352  13.942   8.291   9.648 -0.0215  0.1764 -0.0362
   85loPI   C3A 1353  13.934   8.347   9.167  0.3147  0.1437  0.0596
   85loPI   C4A 1354  14.005   8.370   8.737 -0.0653 -0.1118  0.0866
   85loPI   C5A 1355  13.894   8.431   8.405  0.1440 -0.1842  0.1433
   85loPI   C6A 1356  13.754   8.728   8.062 -0.3400 -0.1108 -0.3306
   85loPI   C1B 1357  13.576   8.672   9.697 -0.0946 -0.0191  0.1148
   85loPI   C2B 1358  13.478   8.662   9.249 -0.3306 -0.2043 -0.0138
   85loPI   C3B 1359  13.575   8.627   8.786  0.1338 -0.0518 -0.2965
   85loPI   C4B 1360  13.394   8.654   8.433 -0.2465  0.2057 -0.1026
   86loPI    C1 1361  10.303   7.032  10.576  0.1111  0.0714 -0.1701
   86loPI    C2 1362  10.097   7.093  10.238 -0.0969  0.0402 -0.0509
   86loPI    C3 1363   9.946   7.213  10.589  0.1466  0.1295  0.0254
   86loPI   PO4 1364  10.476   6.763  10.439  0.1299 -0.0844  0.1519
   86loPI   GL1 1365  10.474   6.896  10.033 -0.2379 -0.1106 -0.0925
   86loPI   GL2 1366  10.869   6.962   9.971  0.1975  0.1597 -0.0159
   86loPI   C1A 1367  10.334   6.510   9.859  0.1443 -0.1660  0.1476
   86loPI   C2A 1368  10.501   6.401   9.385 -0.1584 -0.1253  0.1527
   86loPI   C3A 1369  10.437   6.465   8.945  0.1121  0.0303 -0.2467
   86loPI   C4A 1370  10.523   6.829   8.681 -0.0603 -0.0974  0.1578
   86loPI   C5A 1371  10.345   6.984   8.344  0.5145 -0.0298  0.1252
   86loPI   C6A 1372  10.159   7.119   7.907 -0.1914 -0.2307  0.1279
   86loPI   C1B 1373  10.781   6.748   9.653  0.0134  0.0892  0.0522
   86loPI   C2B 1374  10.856   6.740   9.203  0.1895 -0.1093  0.0064
   86loPI   C3B 1375  11.045   6.740   8.760 -0.1085 -0.0823  0.2187
   86loPI   C4B 1376  11.391   6.947   8.525  0.1354  0.2230  0.0476
   87loPI    C1 1377  11.661  14.800  10.752 -0.0149  0.2803  0.0497
   87loPI    C2 1378  11.447  15.122  10.855 -0.1178  0.1692  0.1845
   87loPI    C3 1379  11.286  14.756  10.882 -0.1317  0.1316 -0.3259
   87loPI   PO4 1380  11.788  14.902  10.577  0.1232 -0.1130 -0.0282
   87loPI   GL1 1381  11.853  15.087  10.172 -0.1493  0.0393  0.1592
   87loPI   GL2 1382  11.790  14.818  10.084 -0.0450  0.0322  0.1255
   87loPI   C1A 1383  12.147  15.203   9.916  0.0727 -0.0075  0.3253
   87loPI   C2A 1384  12.185  15.325   9.513 -0.2931 -0.1364 -0.0466
   87loPI   C3A 1385  12.231  15.209   9.087 -0.3683  0.2719  0.0378
   87loPI   C4A 1386  12.170  15.169   8.649  0.1587  0.0980 -0.1158
   87loPI   C5A 1387  12.196  15.044   8.152  0.1225  0.0195  0.0889
   87loPI   C6A 1388  11.939  15.209   7.950  0.1712  0.1641  0.1477
   87loPI   C1B 1389  11.844  14.790   9.633 -0.0107 -0.1296 -0.0172
   87loPI   C2B 1390  11.861  14.931   9.239  0.1183  0.0103  0.2747
   87loPI   C3B 1391  11.788  14.960   8.878  0.1944  0.1050  0.0461
   87loPI   C4B 1392  11.793  14.932   8.431  0.1322  0.2369  0.2182
   88loPI    C1 1393  14.937  10.770  10.631 -0.2460  0.1136 -0.0249
   88loPI    C2 1394  15.269  10.989  10.673 -0.1648 -0.0236  0.0581
   88loPI    C3 1395  15.202  10.678  10.916 -0.4486  0.1189  0.1679
   88loPI   PO4 1396  14.908  10.803  10.367 -0.0497 -0.0789  0.0395
   88loPI   GL1 1397  14.705  10.796   9.938 -0.0698  0.0978 -0.3788
   88loPI   GL2 1398  14.467  11.121   9.749 -0.0991  0.0628 -0.2248
   88loPI   C1A 1399  14.675  10.561   9.591 -0.0660 -0.1007 -0.3261
   88loPI   C2A 1400  14.659  10.542   9.048 -0.0250  0.0063 -0.0016
   88loPI   C3A 1401  14.659  10.466   8.586 -0.2050 -0.0317 -0.0390
   88loPI   C4A 1402  14.766  10.091   8.399 -0.0851 -0.1578 -0.2082
   88loPI   C5A 1403  14.556   9.972   8.138  0.1141  0.0485 -0.0916
   88loPI   C6A 1404  14.277   9.986   7.782  0.1421 -0.0419 -0.2876
   88loPI   C1B 1405  14.372  11.023   9.279 -0.2064 -0.1317  0.1094
   88loPI   C2B 1406  14.367  10.950   8.790 -0.0499  0.3241 -0.0128
   88loPI   C3B 1407  14.276  10.760   8.386  0.1085  0.1376  0.0285
   88loPI   C4B 1408  14.525  10.436   8.038  0.0532  0.1344  0.1676
   89loPI    C1 1409  12.691   4.543  10.658  0.1960 -0.1127 -0.0532
   89loPI    C2 1410  13.004   4.479  10.899  0.0631  0.1230  0.1872
   89loPI    C3 1411  12.724   4.746  11.001 -0.1642 -0.0095 -0.0757
   89loPI   PO4 1412  12.647   4.311  10.516 -0.1996 -0.0923 -0.1077
   89loPI   GL1 1413  12.442   4.312  10.209  0.1529  0.0788  0.4309
   89loPI   GL2 1414  12.037   4.300  10.155  0.0502  0.0461 -0.1812
   89loPI   C1A 1415  12.464   4.241   9.740  0.0695 -0.2058 -0.0593
   89loPI   C2A 1416  12.522   4.523   9.400  0.0704  0.2667  0.0346
   89loPI   C3A 1417  12.406   4.378   8.990 -0.0581  0.0864  0.1656
   89loPI   C4A 1418  12.453   4.333   8.655 -0.3489 -0.0770  0.1027
   89loPI   C5A 1419  12.780   4.473   8.438  0.0914 -0.3216  0.0443
   89loPI   C6A 1420  13.142   4.326   8.309 -0.4132 -0.0596 -0.1389
   89loPI   C1B 1421  12.044   4.465   9.731  0.0063  0.1125  0.2159
   89loPI   C2B 1422  12.011   4.551   9.281 -0.1074  0.1090  0.2031
   89loPI   C3B 1423  11.929   4.471   8.879  0.0314  0.2079  0.0667
   89loPI   C4B 1424  11.881   4.403   8.467 -0.0422  0.1197  0.0739
   90loPI    C1 1425   1.509  15.239  10.653 -0.1110  0.0235 -0.0275
   90loPI    C2 1426   1.890  15.333  10.731 -0.0402 -0.0950 -0.2246
   90loPI    C3 1427   1.691  15.085  10.974 -0.0031 -0.0049 -0.1018
   90loPI   PO4 1428   1.553  15.142  10.408  0.0211 -0.2000 -0.0625
   90loPI   GL1 1429   1.702  15.058   9.960 -0.1254  0.0402  0.1477
   90loPI   GL2 1430   1.711  15.265   9.764 -0.0033 -0.0850  0.1892
   90loPI   C1A 1431   1.726  14.875   9.462  0.0219  0.0635 -0.1507
   90loPI   C2A 1432   1.631  15.059   9.083 -0.0790 -0.0145 -0.3868
   90loPI   C3A 1433   1.424  15.122   8.669 -0.1586 -0.3770  0.2711
   90loPI   C4A 1434   1.361  15.283   8.200 -0.2299  0.0235  0.0196
   90loPI   C5A 1435   1.161  15.665   8.025 -0.0542 -0.1176 -0.0340
   90loPI   C6A 1436   1.096  16.029   7.814  0.0582  0.2305 -0.0975
   90loPI   C1B 1437   1.485  15.388   9.426  0.0153  0.0959  0.0386
   90loPI   C2B 1438   1.405  15.593   9.068  0.0371 -0.1926 -0.3408
   90loPI   C3B 1439   1.395  15.925   8.778 -0.0991 -0.0480 -0.1712
   90loPI   C4B 1440   1.284  16.015   8.405  0.1656  0.0847  0.0830
   91loPI    C1 1441  12.993   1.526  10.374  0.1798  0.1445 -0.0483
   91loPI    C2 1442  13.310   1.631  10.154  0.2518  0.0826  0.0252
   91loPI    C3 1443  13.363   1.467  10.515  0.1367  0.0117  0.0101
   91loPI   PO4 1444  12.856   1.803  10.316  0.0723  0.1789  0.1776
   91loPI   GL1 1445  12.702   2.131  10.034 -0.0099 -0.3400  0.1561
   91loPI   GL2 1446  12.691   2.482   9.908 -0.1601 -0.2986 -0.1963
   91loPI   C1A 1447  12.941   2.098   9.695  0.1696  0.0863  0.0726
   91loPI   C2A 1448  12.815   2.118   9.306  0.5118 -0.0563 -0.0371
   91loPI   C3A 1449  12.839   2.221   8.825  0.0863 -0.0502  0.2201
   91loPI   C4A 1450  13.006   2.357   8.490 -0.3069  0.3100 -0.0369
   91loPI   C5A 1451  13.344   2.509   8.274  0.1422  0.2873  0.1603
   91loPI   C6A 1452  13.599   2.255   8.153 -0.1091 -0.3371 -0.0844
   91loPI   C1B 1453  12.884   2.560   9.544  0.0889  0.0431 -0.0441
   91loPI   C2B 1454  12.783   2.610   9.070 -0.1197 -0.1754  0.1241
   91loPI   C3B 1455  12.893   2.813   8.719  0.2240 -0.3664 -0.0995
   91loPI   C4B 1456  13.257   3.091   8.614  0.1152 -0.0141 -0.0366
   92loPI    C1 1457   7.364   8.302  10.193 -0.1523  0.1398  0.0506
   92loPI    C2 1458   7.129   8.003  10.318  0.0596  0.1575  0.5087
   92loPI    C3 1459   7.009   8.383  10.360 -0.0160  0.1531  0.3393
   92loPI   PO4 1460   7.507   8.235   9.940  0.0929 -0.3213 -0.1954
   92loPI   GL1 1461   7.368   8.083   9.553 -0.0819  0.1780  0.0900
   92loPI   GL2 1462   7.362   8.444   9.513  0.0650 -0.1059  0.2987
   92loPI   C1A 1463   7.643   7.943   9.257  0.1365 -0.0085 -0.1432
   92loPI   C2A 1464   7.662   7.950   8.889  0.0805  0.0185  0.3337
   92loPI   C3A 1465   7.474   8.098   8.523  0.2637  0.1679 -0.0164
   92loPI   C4A 1466   7.320   8.169   8.211  0.0650 -0.0489 -0.0197
   92loPI   C5A 1467   7.048   7.883   7.918  0.0269 -0.1279  0.0986
   92loPI   C6A 1468   6.681   7.633   7.792 -0.1137  0.1518  0.1078
   92loPI   C1B 1469   7.250   8.195   9.099  0.2148 -0.1213 -0.1395
   92loPI   C2B 1470   6.907   7.901   9.014  0.2107 -0.0890 -0.0142
   92loPI   C3B 1471   6.552   7.928   8.753  0.1721 -0.3338 -0.1246
   92loPI   C4B 1472   6.405   8.287   8.360  0.0782 -0.0138  0.2171
   93loPI    C1 1473  15.575  12.932  10.648 -0.0880  0.0792  0.0691
   93loPI    C2 1474  15.229  12.734  10.607  0.0717 -0.2325  0.1968
   93loPI    C3 1475  15.440  12.701  10.945  0.1844  0.0268  0.1542
   93loPI   PO4 1476  15.716  12.880  10.431 -0.3091  0.0712  0.1238
   93loPI   GL1 1477  15.881  12.992  10.108 -0.1314 -0.3189  0.0953
   93loPI   GL2 1478  15.962  12.718   9.926  0.2956  0.0296  0.0544
   93loPI   C1A 1479  15.803  13.255   9.756  0.2834  0.0280 -0.0523
   93loPI   C2A 1480  15.882  13.403   9.335  0.2002 -0.0320  0.3499
   93loPI   C3A 1481  15.827  13.341   8.895 -0.0316 -0.3605 -0.1393
   93loPI   C4A 1482  15.908  13.212   8.510  0.1318 -0.1749 -0.0231
   93loPI   C5A 1483  15.827  13.351   8.131  0.1551  0.0033  0.0003
   93loPI   C6A 1484  16.070  13.318   7.794  0.0870 -0.0047 -0.2115
   93loPI   C1B 1485  16.044  12.758   9.490 -0.0824  0.1072 -0.1779
   93loPI   C2B 1486  16.065  12.825   9.036 -0.1319 -0.0876 -0.0144
   93loPI   C3B 1487  16.011  12.778   8.708 -0.0182  0.2071 -0.0463
   93loPI   C4B 1488  15.977  12.684   8.249 -0.2411  0.1561  0.0051
   94loPI    C1 1489   9.640  12.236  10.597 -0.1787 -0.0784  0.0626
   94loPI    C2 1490   9.356  12.030  10.406 -0.1900 -0.0867  0.0886
   94loPI    C3 1491   9.254  12.304  10.679 -0.1813  0.0900 -0.0840
   94loPI   PO4 1492   9.844  12.315  10.442 -0.1080 -0.1435 -0.0980
   94loPI   GL1 1493   9.809  12.163  10.046  0.0891 -0.1825  0.1492
   94loPI   GL2 1494  10.091  12.020   9.993  0.2068 -0.0902  0.0393
   94loPI   C1A 1495   9.834  12.272   9.649  0.1008 -0.2431 -0.1482
   94loPI   C2A 1496   9.613  12.280   9.216 -0.1843  0.1696 -0.2068
   94loPI   C3A 1497   9.476  12.396   8.818  0.0540 -0.2052 -0.3033
   94loPI   C4A 1498   9.429  12.464   8.395 -0.0400  0.1378  0.4020
   94loPI   C5A 1499   9.101  12.411   8.042 -0.1164 -0.2749  0.3105
   94loPI   C6A 1500   8.775  12.399   7.695  0.0632  0.1172 -0.1234
   94loPI   C1B 1501  10.018  11.821   9.563  0.1982 -0.2022 -0.1914
   94loPI   C2B 1502  10.081  11.880   9.104  0.1639 -0.2086  0.1546
   94loPI   C3B 1503  10.247  11.954   8.670  0.0134  0.0347  0.0279
   94loPI   C4B 1504  10.111  11.867   8.323 -0.1145 -0.0285  0.2183
   95loPI    C1 1505  16.952  10.943  10.188 -0.0850 -0.0996  0.2216
   95loPI    C2 1506  17.321  10.788  10.195 -0.0411  0.0002  0.1543
   95loPI    C3 1507  17.005  10.557  10.279  0.0198 -0.1346  0.0191
   95loPI   PO4 1508  16.880  11.126  10.059  0.0853 -0.0077  0.1937
   95loPI   GL1 1509  16.802  11.396   9.770  0.1106 -0.1649  0.1088
   95loPI   GL2 1510  17.031  11.563   9.626 -0.0218 -0.0609  0.1721
   95loPI   C1A 1511  16.821  11.177   9.357 -0.2581 -0.0847  0.0052
   95loPI   C2A 1512  16.918  11.283   8.884  0.0618 -0.0212  0.0700
   95loPI   C3A 1513  17.137  11.299   8.481  0.0173 -0.1279 -0.0647
   95loPI   C4A 1514  17.223  11.160   8.114 -0.0148 -0.1629  0.0624
   95loPI   C5A 1515  17.209  11.047   7.763  0.2757  0.1514 -0.3561
   95loPI   C6A 1516  17.112  10.923   7.410 -0.0575 -0.0526 -0.2624
   95loPI   C1B 1517  17.014  11.706   9.183  0.2313  0.2724 -0.1397
   95loPI   C2B 1518  17.162  11.726   8.876  0.0179  0.1186 -0.1611
   95loPI   C3B 1519  16.860  11.698   8.611 -0.0434 -0.2489  0.0659
   95loPI   C4B 1520  16.568  11.364   8.549  0.0377  0.1550  0.0041
   96loPI    C1 1521   6.917   1.216  10.481  0.1738 -0.3136  0.0698
   96loPI    C2 1522   7.052   1.167  10.855 -0.1059  0.0529  0.2251
   96loPI    C3 1523   6.659   1.204  10.787 -0.0356  0.3053 -0.0680
   96loPI   PO4 1524   7.076   1.531  10.445 -0.0884  0.0626 -0.1894
   96loPI   GL1 1525   7.223   1.647  10.013  0.1334  0.1414  0.0956
   96loPI   GL2 1526   6.942   1.345   9.870  0.0379  0.2979  0.4384
   96loPI   C1A 1527   7.271   1.700   9.574  0.2580 -0.0496  0.1978
   96loPI   C2A 1528   7.094   1.559   9.167  0.1334  0.0724  0.0612
   96loPI   C3A 1529   7.197   1.482   8.697  0.3051 -0.1763 -0.1498
   96loPI   C4A 1530   7.289   1.466   8.214 -0.2862  0.0500  0.0295
   96loPI   C5A 1531   7.416   1.879   7.932  0.2474  0.0784 -0.0378
   96loPI   C6A 1532   7.203   2.273   7.824 -0.1726  0.0066 -0.1756
   96loPI   C1B 1533   6.694   1.432   9.474  0.0631 -0.2823  0.3783
   96loPI   C2B 1534   6.643   1.352   9.083  0.0831 -0.2164 -0.1485
   96loPI   C3B 1535   6.667   1.170   8.660 -0.1883 -0.0477  0.0452
   96loPI   C4B 1536   6.794   1.298   8.317 -0.3432 -0.0296  0.4434
   97loPI    C1 1537   5.641   3.431  10.561 -0.2564  0.2068  0.1954
   97loPI    C2 1538   5.750   3.153  10.827 -0.1273 -0.0458 -0.1147
   97loPI    C3 1539   5.465   3.418  10.920 -0.1183 -0.1597  0.2544
   97loPI   PO4 1540   5.589   3.287  10.355  0.0850  0.1218 -0.4282
   97loPI   GL1 1541   5.475   3.226   9.871 -0.0562 -0.0709 -0.1662
   97loPI   GL2 1542   5.666   2.987   9.918 -0.1687 -0.1258  0.0041
   97loPI   C1A 1543   5.650   3.403   9.517  0.0751 -0.3639 -0.0703
   97loPI   C2A 1544   5.592   3.494   9.053  0.1775 -0.2119  0.1188
   97loPI   C3A 1545   5.567   3.559   8.630  0.1046  0.0878  0.1417
   97loPI   C4A 1546   5.523   3.368   8.191 -0.3201 -0.1380 -0.2449
   97loPI   C5A 1547   5.197   3.532   7.994  0.4868  0.1621 -0.0061
   97loPI   C6A 1548   4.816   3.492   7.699 -0.1864  0.1430 -0.1347
   97loPI   C1B 1549   5.609   2.937   9.491 -0.0681 -0.0352  0.0884
   97loPI   C2B 1550   5.530   2.889   8.994  0.0472  0.1618 -0.0546
   97loPI   C3B 1551   5.490   2.910   8.552 -0.2328  0.0011 -0.3051
   97loPI   C4B 1552   5.503   2.501   8.317  0.0955 -0.0910 -0.0001
   98loPI    C1 1553  10.860   8.709  10.323 -0.0582  0.1656  0.1990
   98loPI    C2 1554  10.599   8.406  10.333 -0.1210  0.2120  0.0168
   98loPI    C3 1555  10.694   8.600  10.670 -0.0542 -0.0310  0.1403
   98loPI   PO4 1556  10.863   8.885  10.086  0.1412 -0.0105  0.2427
   98loPI   GL1 1557  11.052   8.805   9.814  0.1335  0.3112 -0.0963
   98loPI   GL2 1558  10.852   8.680   9.582 -0.0781 -0.2618  0.0966
   98loPI   C1A 1559  11.302   9.083   9.518 -0.2982 -0.0440  0.2990
   98loPI   C2A 1560  11.653   9.252   9.378  0.4178  0.1145  0.3433
   98loPI   C3A 1561  11.746   9.195   9.025 -0.0465  0.0379  0.4546
   98loPI   C4A 1562  11.683   9.311   8.644  0.2945  0.1674 -0.3358
   98loPI   C5A 1563  11.612   9.305   8.237 -0.0188  0.0144 -0.0810
   98loPI   C6A 1564  11.327   9.028   7.907 -0.0706  0.0799  0.1041
   98loPI   C1B 1565  10.890   8.752   9.262  0.4485 -0.0566 -0.1470
   98loPI   C2B 1566  10.799   8.687   8.918 -0.1858  0.0159 -0.1863
   98loPI   C3B 1567  10.994   8.673   8.511 -0.2473  0.1259 -0.0883
   98loPI   C4B 1568  11.204   8.636   8.161  0.2220  0.0013  0.0546
   99loPI    C1 1569  12.035   8.540  10.845 -0.1140  0.0314 -0.1731
   99loPI    C2 1570  12.355   8.400  11.038 -0.0589  0.0202 -0.2718
   99loPI    C3 1571  12.094   8.636  11.228 -0.0360 -0.0375 -0.1678
   99loPI   PO4 1572  12.268   8.675  10.587  0.0266 -0.0180  0.0930
   99loPI   GL1 1573  12.386   8.781  10.161 -0.0880  0.0057  0.1770
   99loPI   GL2 1574  12.190   8.735   9.908 -0.2454 -0.0986  0.2661
   99loPI   C1A 1575  12.649   8.482   9.832  0.0090 -0.2450 -0.0102
   99loPI   C2A 1576  12.692   8.207   9.431 -0.0777 -0.1618  0.0428
   99loPI   C3A 1577  12.585   8.131   9.036 -0.2455 -0.0469 -0.0000
   99loPI   C4A 1578  12.534   8.121   8.580 -0.0664  0.0462 -0.1323
   99loPI   C5A 1579  12.348   8.008   8.163  0.0443  0.1100  0.1866
   99loPI   C6A 1580  12.048   7.942   7.799 -0.0204 -0.0747 -0.1058
   99loPI   C1B 1581  12.085   8.378   9.667  0.0114  0.1846 -0.0304
   99loPI   C2B 1582  12.115   8.387   9.244 -0.0297 -0.3085 -0.1282
   99loPI   C3B 1583  12.166   8.415   8.856 -0.1936 -0.1197  0.3800
   99loPI   C4B 1584  12.070   8.266   8.492 -0.0591 -0.0175  0.2261
  100loPI    C1 1585  17.744   0.616  10.961 -0.0656 -0.2069  0.1269
  100loPI    C2 1586  17.603   0.414  11.276 -0.0168 -0.0511  0.2496
  100loPI    C3 1587  17.633   0.813  11.291  0.0075 -0.0449  0.0559
  100loPI   PO4 1588  17.543   0.548  10.738 -0.2553 -0.1346 -0.0845
  100loPI   GL1 1589  17.675   0.582  10.254  0.2162 -0.1672 -0.0659
  100loPI   GL2 1590  17.990   0.461  10.127 -0.0732 -0.0285  0.0829
  100loPI   C1A 1591  17.607   0.678   9.837  0.0548 -0.1137  0.3320
  100loPI   C2A 1592  17.538   0.724   9.322 -0.1159  0.1478  0.0322
  100loPI   C3A 1593  17.528   0.878   8.793  0.2376 -0.2895 -0.1351
  100loPI   C4A 1594  17.540   0.679   8.386 -0.1945 -0.1241 -0.1654
  100loPI   C5A 1595  17.700   0.833   8.059  0.0902 -0.0603 -0.0071
  100loPI   C6A 1596  17.927   0.724   7.684  0.2438 -0.2489  0.1556
  100loPI   C1B 1597  17.893   0.333   9.729  0.0706 -0.1145 -0.0419
  100loPI   C2B 1598  17.878   0.381   9.289  0.0380 -0.0517  0.0147
  100loPI   C3B 1599  17.744   0.429   8.837 -0.2108 -0.2532 -0.1318
  100loPI   C4B 1600  17.985   0.367   8.466  0.0809  0.1240 -0.0077
  101loPI    C1 1601   9.506   3.090  10.958 -0.1223  0.0073 -0.3445
  101loPI    C2 1602   9.194   3.319  11.060  0.1200  0.1677  0.0640
  101loPI    C3 1603   9.502   3.277  11.312  0.3733 -0.0922 -0.2784
  101loPI   PO4 1604   9.410   3.006  10.757  0.0598  0.0890  0.2904
  101loPI   GL1 1605   9.423   2.912  10.318 -0.0547 -0.1435 -0.2286
  101loPI   GL2 1606   9.368   3.166  10.263 -0.0963 -0.1574  0.0792
  101loPI   C1A 1607   9.119   2.890   9.956  0.0990 -0.1403  0.1135
  101loPI   C2A 1608   9.147   2.729   9.546  0.4098  0.0837 -0.1534
  101loPI   C3A 1609   9.007   2.710   9.137  0.1438 -0.0189 -0.0056
  101loPI   C4A 1610   8.947   2.608   8.723 -0.1242  0.1277 -0.2596
  101loPI   C5A 1611   9.194   2.524   8.292  0.0099 -0.0534 -0.2265
  101loPI   C6A 1612   9.460   2.526   7.898  0.0994  0.1458  0.1612
  101loPI   C1B 1613   9.545   3.167   9.819  0.1640 -0.1419  0.3221
  101loPI   C2B 1614   9.481   3.052   9.420 -0.2912 -0.1655  0.1857
  101loPI   C3B 1615   9.465   3.026   9.001 -0.3522  0.1046  0.0535
  101loPI   C4B 1616   9.499   2.858   8.637  0.1197 -0.0219  0.1366
  102loPI    C1 1617   5.380  15.310  10.559 -0.0945  0.3240  0.0038
  102loPI    C2 1618   5.101  15.323  10.273  0.0089 -0.1752 -0.1301
  102loPI    C3 1619   5.057  15.076  10.583  0.0216  0.1780  0.1601
  102loPI   PO4 1620   5.590  15.358  10.383  0.2975 -0.0549 -0.1898
  102loPI   GL1 1621   5.803  15.314  10.017  0.4012 -0.1554 -0.0473
  102loPI   GL2 1622   5.818  15.003  10.047  0.1843  0.1284 -0.2677
  102loPI   C1A 1623   5.881  15.578   9.714 -0.0755  0.1376 -0.1559
  102loPI   C2A 1624   5.947  15.556   9.259 -0.0822 -0.4257 -0.0500
  102loPI   C3A 1625   5.901  15.546   8.809 -0.1139 -0.1411 -0.3208
  102loPI   C4A 1626   5.782  15.741   8.372  0.1397 -0.1614  0.2215
  102loPI   C5A 1627   5.736  15.593   8.019  0.0094  0.1076 -0.0868
  102loPI   C6A 1628   5.391  15.676   7.798 -0.2565 -0.1537 -0.0046
  102loPI   C1B 1629   5.851  15.099   9.586 -0.0236  0.1758 -0.0487
  102loPI   C2B 1630   5.811  15.009   9.102 -0.0751  0.1798  0.0448
  102loPI   C3B 1631   5.826  14.944   8.717 -0.1074  0.0443 -0.1269
  102loPI   C4B 1632   5.797  14.735   8.393 -0.0104 -0.4714 -0.1094
  103loPI    C1 1633  15.350  10.639  10.251  0.2889 -0.1937  0.0297
  103loPI    C2 1634  15.378  10.263  10.119  0.1130 -0.1254 -0.2094
  103loPI    C3 1635  15.287  10.334  10.502  0.0111 -0.3259 -0.1948
  103loPI   PO4 1636  15.198  10.714   9.900  0.0072  0.3564 -0.2344
  103loPI   GL1 1637  15.222  10.301   9.618  0.1561  0.2613  0.1269
  103loPI   GL2 1638  15.433  10.120   9.442 -0.1169 -0.0661  0.1184
  103loPI   C1A 1639  15.175  10.570   9.258 -0.1895  0.3685 -0.0085
  103loPI   C2A 1640  15.109  10.492   8.837 -0.0442  0.0493  0.2572
  103loPI   C3A 1641  15.080  10.432   8.405  0.1098  0.1271 -0.0257
  103loPI   C4A 1642  15.102  10.282   8.015 -0.2971 -0.0698  0.0386
  103loPI   C5A 1643  15.390  10.490   7.740  0.0254  0.0045 -0.3380
  103loPI   C6A 1644  15.729  10.494   7.461  0.0504  0.0641  0.2771
  103loPI   C1B 1645  15.366  10.136   9.101 -0.5097  0.0614  0.0085
  103loPI   C2B 1646  15.262  10.007   8.610 -0.0950  0.0964 -0.0275
  103loPI   C3B 1647  15.483   9.922   8.223  0.0192  0.0124  0.1454
  103loPI   C4B 1648  15.530   9.986   7.850 -0.4252 -0.3022 -0.0224
  104loPI    C1 1649  10.037   0.494  10.464 -0.1783 -0.0321 -0.0920
  104loPI    C2 1650  10.151   0.474  10.847  0.0261 -0.0184 -0.1507
  104loPI    C3 1651   9.822   0.679  10.746  0.0056  0.0292  0.0098
  104loPI   PO4 1652  10.152   0.316  10.380  0.1101 -0.0692  0.3815
  104loPI   GL1 1653  10.077   0.056   9.998 -0.0428  0.2105 -0.1118
  104loPI   GL2 1654   9.975  -0.246   9.884  0.0500 -0.0064 -0.1232
  104loPI   C1A 1655  10.353   0.045   9.681  0.2074 -0.1835  0.0622
  104loPI   C2A 1656  10.455  -0.054   9.171  0.4990 -0.2119 -0.2139
  104loPI   C3A 1657  10.451   0.111   8.785 -0.3478  0.2613  0.1426
  104loPI   C4A 1658  10.169   0.237   8.470  0.0625 -0.2734 -0.0554
  104loPI   C5A 1659  10.288   0.505   8.073  0.0435 -0.1264 -0.0749
  104loPI   C6A 1660  10.575   0.491   7.733 -0.1928 -0.0400  0.2851
  104loPI   C1B 1661   9.984  -0.152   9.388 -0.0029  0.4980  0.2716
  104loPI   C2B 1662   9.938  -0.033   8.918 -0.3612  0.0579  0.1395
  104loPI   C3B 1663   9.845  -0.167   8.501 -0.1557  0.1157 -0.3672
  104loPI   C4B 1664   9.604  -0.253   8.187  0.3678  0.1949 -0.1567
  105loPI    C1 1665  10.165   4.014  10.853  0.0678 -0.0165  0.2018
  105loPI    C2 1666  10.092   4.079  11.240  0.1008 -0.1882  0.2378
  105loPI    C3 1667  10.121   3.705  11.103  0.1380 -0.1274  0.0784
  105loPI   PO4 1668  10.410   4.248  10.783  0.0358 -0.0094 -0.0709
  105loPI   GL1 1669  10.455   4.483  10.410 -0.1163  0.0749 -0.2532
  105loPI   GL2 1670  10.497   4.740  10.253  0.2955 -0.2483  0.1220
  105loPI   C1A 1671  10.210   4.370   9.988 -0.1999  0.0972  0.0280
  105loPI   C2A 1672  10.226   4.317   9.540  0.1748  0.0187 -0.0840
  105loPI   C3A 1673  10.146   4.203   9.071 -0.4175 -0.3666 -0.0178
  105loPI   C4A 1674  10.205   4.151   8.722 -0.0190  0.1775  0.2246
  105loPI   C5A 1675  10.215   4.062   8.298  0.0022 -0.2334  0.0501
  105loPI   C6A 1676  10.307   3.740   7.983  0.0411 -0.1326  0.0279
  105loPI   C1B 1677  10.605   4.699   9.903 -0.0075  0.0575 -0.1298
  105loPI   C2B 1678  10.676   4.561   9.466  0.1556  0.1247 -0.0152
  105loPI   C3B 1679  10.670   4.515   9.019  0.3261 -0.0233 -0.0589
  105loPI   C4B 1680  10.609   4.541   8.538 -0.1582  0.2147  0.0132
  106loPI    C1 1681   8.328  13.758  10.131  0.0060 -0.2132  0.2459
  106loPI    C2 1682   8.487  13.759  10.498  0.1788 -0.2852  0.1725
  106loPI    C3 1683   8.675  13.571  10.199  0.1267 -0.0807  0.0084
  106loPI   PO4 1684   8.260  14.024  10.044  0.2461  0.0360 -0.1142
  106loPI   GL1 1685   8.142  14.172   9.664  0.3209  0.1465 -0.0317
  106loPI   GL2 1686   7.801  14.192   9.678 -0.0975  0.0596  0.0891
  106loPI   C1A 1687   8.127  14.166   9.227  0.1609  0.1701 -0.1454
  106loPI   C2A 1688   8.027  14.123   8.820  0.0582  0.1198 -0.2065
  106loPI   C3A 1689   7.942  13.888   8.381 -0.2252  0.3335  0.0739
  106loPI   C4A 1690   7.612  13.864   8.152 -0.2676  0.0933  0.0545
  106loPI   C5A 1691   7.334  13.931   7.994 -0.6978 -0.0333 -0.1056
  106loPI   C6A 1692   6.947  14.100   7.850 -0.1816  0.2124 -0.1965
  106loPI   C1B 1693   7.638  14.390   9.214  0.1913 -0.0790  0.0747
  106loPI   C2B 1694   7.586  14.352   8.858 -0.1587 -0.0063 -0.3514
  106loPI   C3B 1695   7.549  14.290   8.440  0.1547 -0.0405 -0.1599
  106loPI   C4B 1696   7.272  14.428   8.174  0.3895  0.1615  0.0024
  107loPI    C1 1697  12.883   3.755  10.556 -0.2767 -0.0563 -0.2310
  107loPI    C2 1698  12.845   3.527  10.229 -0.1546 -0.1628 -0.1717
  107loPI    C3 1699  13.198   3.693  10.318 -0.1784 -0.1637 -0.0744
  107loPI   PO4 1700  12.632   3.830  10.558 -0.0261 -0.0738  0.0570
  107loPI   GL1 1701  12.411   3.828  10.174  0.1914  0.3402 -0.2993
  107loPI   GL2 1702  12.078   3.835  10.060 -0.0859  0.0318  0.4508
  107loPI   C1A 1703  12.678   3.776   9.753  0.0450  0.1513  0.3903
  107loPI   C2A 1704  12.819   3.547   9.444 -0.1351 -0.0648  0.0972
  107loPI   C3A 1705  12.572   3.332   8.966 -0.0107  0.1330 -0.1234
  107loPI   C4A 1706  12.751   3.345   8.606  0.1909  0.0165  0.1352
  107loPI   C5A 1707  12.761   3.153   8.348  0.4215  0.0679 -0.0034
  107loPI   C6A 1708  12.832   2.698   8.182  0.0981 -0.1847  0.1802
  107loPI   C1B 1709  12.136   3.916   9.585  0.1347 -0.3046 -0.2002
  107loPI   C2B 1710  12.101   4.015   9.159 -0.1053  0.0534 -0.0325
  107loPI   C3B 1711  12.020   3.958   8.771  0.0441  0.1910 -0.0949
  107loPI   C4B 1712  11.923   3.757   8.398 -0.1810 -0.2485  0.3915
  108loPI    C1 1713  10.713   6.233  10.792 -0.0933  0.0355  0.0928
  108loPI    C2 1714  11.097   6.120  10.786 -0.0865  0.0544  0.1602
  108loPI    C3 1715  10.828   5.905  10.989 -0.1657 -0.1257 -0.1299
  108loPI   PO4 1716  10.733   6.360  10.536  0.1566  0.3119 -0.0893
  108loPI   GL1 1717  10.785   6.420  10.074 -0.2114  0.0624  0.0377
  108loPI   GL2 1718  11.128   6.502  10.035  0.0256  0.1615  0.1448
  108loPI   C1A 1719  10.966   6.214   9.701  0.0316 -0.0022  0.1738
  108loPI   C2A 1720  10.951   6.256   9.193 -0.1227  0.3656  0.0435
  108loPI   C3A 1721  11.117   6.148   8.638 -0.1243  0.0939 -0.2486
  108loPI   C4A 1722  11.042   6.030   8.208  0.1050  0.2342 -0.0810
  108loPI   C5A 1723  11.249   6.023   7.877  0.1387 -0.1757  0.0068
  108loPI   C6A 1724  11.262   5.874   7.478  0.0162 -0.1394  0.3117
  108loPI   C1B 1725  11.250   6.607   9.566 -0.2177  0.2587 -0.1394
  108loPI   C2B 1726  11.428   6.607   9.154  0.1317 -0.2777  0.0022
  108loPI   C3B 1727  11.480   6.504   8.713 -0.1138 -0.0325  0.0220
  108loPI   C4B 1728  11.224   6.530   8.272 -0.1396 -0.0688  0.1394
  109loPI    C1 1729  11.541  11.862  10.417  0.0373 -0.0861  0.1104
  109loPI    C2 1730  11.586  12.098  10.737 -0.1132 -0.0612  0.1145
  109loPI    C3 1731  11.234  11.923  10.666 -0.0475 -0.1581  0.0244
  109loPI   PO4 1732  11.598  11.992  10.175  0.1243 -0.1897  0.1567
  109loPI   GL1 1733  11.303  12.243   9.842 -0.3357  0.4010 -0.2480
  109loPI   GL2 1734  10.969  12.320   9.864  0.1122 -0.0727  0.0345
  109loPI   C1A 1735  11.438  12.127   9.478  0.1328 -0.0767  0.0389
  109loPI   C2A 1736  11.616  12.137   9.002 -0.3137 -0.4343 -0.1323
  109loPI   C3A 1737  11.678  12.434   8.692 -0.3142  0.3615  0.1009
  109loPI   C4A 1738  11.732  12.586   8.343  0.2928  0.4264  0.1200
  109loPI   C5A 1739  11.741  12.973   8.157  0.0068  0.3039  0.1702
  109loPI   C6A 1740  12.111  13.174   8.281 -0.2200  0.0159  0.0904
  109loPI   C1B 1741  10.937  12.076   9.411  0.0909  0.0823 -0.1515
  109loPI   C2B 1742  11.073  12.192   8.972 -0.0546 -0.1606 -0.1152
  109loPI   C3B 1743  11.055  12.141   8.574 -0.0327 -0.3435  0.1519
  109loPI   C4B 1744  11.032  11.942   8.069  0.2473 -0.2198  0.0832
  110loPI    C1 1745  16.992   3.315  10.646 -0.0144 -0.1366 -0.0389
  110loPI    C2 1746  16.805   3.531  10.926  0.0296 -0.0502 -0.0754
  110loPI    C3 1747  16.788   3.131  10.937 -0.0308 -0.0458  0.0076
  110loPI   PO4 1748  16.869   3.520  10.418  0.1669  0.3021  0.0852
  110loPI   GL1 1749  16.636   3.369  10.118 -0.3199  0.3562  0.0335
  110loPI   GL2 1750  16.577   3.061  10.045  0.0452 -0.0092  0.0758
  110loPI   C1A 1751  16.700   3.511   9.676  0.0134  0.1898 -0.0962
  110loPI   C2A 1752  16.671   3.699   9.249  0.0738  0.1719 -0.1415
  110loPI   C3A 1753  16.729   3.745   8.751  0.1934  0.2802  0.0964
  110loPI   C4A 1754  16.747   3.746   8.342 -0.0114  0.0675 -0.2784
  110loPI   C5A 1755  16.781   3.814   7.853  0.3238  0.1842 -0.1153
  110loPI   C6A 1756  16.695   3.969   7.451 -0.0228  0.2390 -0.1311
  110loPI   C1B 1757  16.738   2.939   9.668  0.0003  0.1673  0.2724
  110loPI   C2B 1758  16.692   3.137   9.284  0.1910 -0.0364  0.2943
  110loPI   C3B 1759  16.682   3.269   8.885 -0.1155  0.4639  0.2055
  110loPI   C4B 1760  16.662   3.232   8.385  0.1137  0.0643 -0.2187
  111loPI    C1 1761   2.665   8.512   9.978 -0.0855 -0.2971 -0.2150
  111loPI    C2 1762   2.804   8.160  10.108  0.0425 -0.2540 -0.2338
  111loPI    C3 1763   3.048   8.414   9.918  0.0069 -0.0620 -0.0271
  111loPI   PO4 1764   2.395   8.514  10.114  0.0792 -0.2380  0.1881
  111loPI   GL1 1765   2.076   8.771   9.827  0.0774  0.0367 -0.0580
  111loPI   GL2 1766   2.378   8.664   9.579 -0.1493 -0.1477 -0.0561
  111loPI   C1A 1767   1.898   8.849   9.419 -0.1247  0.0082 -0.0184
  111loPI   C2A 1768   1.821   8.908   8.965 -0.1279  0.3676  0.1994
  111loPI   C3A 1769   1.968   8.997   8.556  0.3459 -0.0251 -0.0803
  111loPI   C4A 1770   1.988   8.939   8.131 -0.0739 -0.0958 -0.0321
  111loPI   C5A 1771   2.059   9.233   7.819  0.0945 -0.1466  0.0091
  111loPI   C6A 1772   1.867   9.075   7.410 -0.0278 -0.1102 -0.5576
  111loPI   C1B 1773   2.313   8.687   9.200  0.2189 -0.0691  0.3178
  111loPI   C2B 1774   2.260   8.648   8.750 -0.4786 -0.3145  0.1345
  111loPI   C3B 1775   2.411   8.558   8.274  0.0613 -0.0621 -0.3185
  111loPI   C4B 1776   2.695   8.556   7.999  0.0177 -0.2200  0.1010
  112loPI    C1 1777  17.260   8.981  10.557 -0.0694 -0.0461  0.2023
  112loPI    C2 1778  17.500   9.301  10.566 -0.0735 -0.0345 -0.0353
  112loPI    C3 1779  17.119   9.334  10.680 -0.0806  0.0521 -0.0834
  112loPI   PO4 1780  17.279   8.890  10.323  0.0525 -0.1610  0.3041
  112loPI   GL1 1781  17.299   8.957   9.908  0.0030 -0.1045 -0.0066
  112loPI   GL2 1782  17.582   9.218   9.813  0.2295 -0.3217  0.0954
  112loPI   C1A 1783  17.303   9.008   9.437 -0.0552  0.1789 -0.0425
  112loPI   C2A 1784  17.192   8.934   9.024 -0.0411 -0.0910 -0.0576
  112loPI   C3A 1785  17.121   8.997   8.468 -0.0822 -0.1990 -0.0665
  112loPI   C4A 1786  17.040   8.996   8.090  0.1626 -0.0152  0.2994
  112loPI   C5A 1787  17.253   8.702   7.742  0.2951 -0.0494 -0.0750
  112loPI   C6A 1788  17.270   8.324   7.494  0.1714 -0.1202 -0.1652
  112loPI   C1B 1789  17.747   9.298   9.396  0.0325 -0.1635 -0.2043
  112loPI   C2B 1790  17.659   9.156   9.120  0.1577 -0.0695  0.4066
  112loPI   C3B 1791  17.818   9.044   8.741  0.2650 -0.1191  0.1203
  112loPI   C4B 1792  17.830   8.817   8.391  0.2668  0.1231  0.1210
  113loPI    C1 1793  14.474   1.745  10.701 -0.0054  0.1660  0.0580
  113loPI    C2 1794  14.472   1.978  11.026  0.1450  0.0753  0.1252
  113loPI    C3 1795  14.485   1.580  11.065  0.1451  0.0635  0.0082
  113loPI   PO4 1796  14.692   1.886  10.512  0.0332 -0.3505 -0.3682
  113loPI   GL1 1797  14.703   2.154  10.111  0.1629 -0.0473 -0.1002
  113loPI   GL2 1798  14.537   2.451   9.948  0.0874 -0.2252  0.2959
  113loPI   C1A 1799  14.330   1.964   9.876 -0.0274 -0.3115  0.1890
  113loPI   C2A 1800  14.237   1.548   9.726 -0.1127 -0.0426  0.3719
  113loPI   C3A 1801  14.103   1.530   9.233  0.0947  0.0411  0.1288
  113loPI   C4A 1802  14.174   1.737   8.834 -0.0220 -0.1359 -0.0997
  113loPI   C5A 1803  14.336   1.760   8.464 -0.0761 -0.0236 -0.0334
  113loPI   C6A 1804  14.187   1.857   8.031  0.1286 -0.0656  0.2383
  113loPI   C1B 1805  14.538   2.343   9.622  0.1157  0.0185  0.1323
  113loPI   C2B 1806  14.753   2.202   9.157 -0.1150 -0.2300 -0.0605
  113loPI   C3B 1807  14.615   2.124   8.785  0.0375 -0.2414 -0.1677
  113loPI   C4B 1808  14.607   2.132   8.219  0.0031 -0.0789  0.0499
  114loPI    C1 1809  13.684   3.883  10.732  0.0508 -0.1825 -0.1403
  114loPI    C2 1810  13.329   3.709  10.788 -0.0595  0.0959  0.0519
  114loPI    C3 1811  13.644   3.598  11.008 -0.0927  0.0379  0.0703
  114loPI   PO4 1812  13.669   3.981  10.510  0.1595  0.1506  0.0297
  114loPI   GL1 1813  13.730   3.955  10.054  0.2266  0.1919  0.0308
  114loPI   GL2 1814  13.624   3.692  10.081  0.2877  0.1363  0.3063
  114loPI   C1A 1815  14.053   3.855   9.853 -0.0449  0.2180 -0.0004
  114loPI   C2A 1816  14.225   3.624   9.522  0.1401 -0.1939  0.0356
  114loPI   C3A 1817  14.392   3.614   9.141  0.0376 -0.2586  0.2262
  114loPI   C4A 1818  14.428   3.482   8.715  0.0339 -0.2207  0.0395
  114loPI   C5A 1819  14.613   3.472   8.351  0.0868 -0.0913 -0.1633
  114loPI   C6A 1820  14.640   3.592   7.838  0.0959 -0.1705  0.1818
  114loPI   C1B 1821  13.634   3.620   9.675 -0.0149 -0.2522 -0.2106
  114loPI   C2B 1822  13.817   3.723   9.247 -0.0154 -0.2088  0.3132
  114loPI   C3B 1823  13.932   3.915   8.821  0.1997 -0.1084 -0.1075
  114loPI   C4B 1824  14.203   3.858   8.470  0.0454  0.0177 -0.0121
  115loPI    C1 1825   8.245   3.843  10.554 -0.0320 -0.2167 -0.0394
  115loPI    C2 1826   7.996   3.840  10.868 -0.1845  0.0643 -0.1538
  115loPI    C3 1827   8.198   3.509  10.769 -0.0643 -0.0022  0.2942
  115loPI   PO4 1828   8.088   3.958  10.339 -0.2216  0.1390 -0.1507
  115loPI   GL1 1829   8.001   3.730   9.925 -0.2341  0.1745 -0.0013
  115loPI   GL2 1830   7.732   3.516   9.824  0.1586 -0.1037  0.2395
  115loPI   C1A 1831   8.012   3.645   9.446 -0.3443  0.2436 -0.1429
  115loPI   C2A 1832   8.008   3.607   9.081 -0.4473  0.0312 -0.0173
  115loPI   C3A 1833   7.917   3.784   8.656 -0.1623 -0.1239 -0.2997
  115loPI   C4A 1834   7.747   3.925   8.312  0.0751 -0.1260 -0.2416
  115loPI   C5A 1835   7.642   4.062   7.896  0.3641  0.1372  0.2921
  115loPI   C6A 1836   7.506   4.429   7.587  0.1273  0.2335  0.0196
  115loPI   C1B 1837   7.599   3.302   9.425  0.2082  0.0537  0.0187
  115loPI   C2B 1838   7.662   3.277   8.971 -0.2258  0.1979 -0.1808
  115loPI   C3B 1839   7.535   3.529   8.636 -0.1091  0.2898  0.3277
  115loPI   C4B 1840   7.778   3.415   8.212 -0.2467  0.2236 -0.1595
  116loPI    C1 1841   8.398  12.149  10.533  0.0447 -0.0033  0.1891
  116loPI    C2 1842   8.016  12.145  10.652 -0.0577  0.0857 -0.1279
  116loPI    C3 1843   8.231  12.481  10.683 -0.0727  0.0981 -0.1563
  116loPI   PO4 1844   8.423  11.938  10.443 -0.2624  0.0465 -0.0080
  116loPI   GL1 1845   8.610  11.901  10.033  0.1190 -0.0702 -0.3030
  116loPI   GL2 1846   8.501  12.089   9.822 -0.0754 -0.2394  0.0135
  116loPI   C1A 1847   8.688  11.673   9.653 -0.0968  0.2487 -0.1269
  116loPI   C2A 1848   8.736  11.781   9.177  0.0782 -0.0006 -0.1965
  116loPI   C3A 1849   8.698  11.717   8.698 -0.3060  0.0375  0.0388
  116loPI   C4A 1850   8.645  11.528   8.255 -0.0129  0.0753  0.0718
  116loPI   C5A 1851   8.556  11.194   8.040 -0.0616 -0.2022 -0.2975
  116loPI   C6A 1852   8.763  10.845   8.050  0.2144 -0.3104 -0.3311
  116loPI   C1B 1853   8.188  11.904   9.508  0.2475  0.0563  0.2862
  116loPI   C2B 1854   8.191  11.670   9.091  0.0757  0.0058  0.1781
  116loPI   C3B 1855   8.217  11.813   8.623 -0.1044  0.1341 -0.0132
  116loPI   C4B 1856   8.268  11.941   8.249  0.0838  0.2615 -0.0527
  117loPI    C1 1857  17.813   6.002  10.647  0.0557  0.4589  0.0672
  117loPI    C2 1858  17.683   5.920  11.016 -0.0020  0.0088 -0.0467
  117loPI    C3 1859  18.069   6.004  10.954  0.0075  0.0874  0.1143
  117loPI   PO4 1860  17.710   6.156  10.500  0.0653  0.0491 -0.0172
  117loPI   GL1 1861  17.508   6.235  10.083  0.0090  0.1797 -0.1233
  117loPI   GL2 1862  17.838   6.247  10.005 -0.1359  0.0559 -0.1129
  117loPI   C1A 1863  17.391   6.042   9.739  0.3966 -0.1307 -0.1142
  117loPI   C2A 1864  17.310   5.919   9.299  0.1279 -0.0384 -0.4242
  117loPI   C3A 1865  17.361   5.940   8.864 -0.4385 -0.1025  0.4822
  117loPI   C4A 1866  17.342   5.959   8.453  0.0543  0.0430 -0.1751
  117loPI   C5A 1867  17.351   6.081   8.155  0.0720  0.1510  0.0993
  117loPI   C6A 1868  17.433   6.533   7.878  0.0571 -0.0600  0.0000
  117loPI   C1B 1869  17.835   6.152   9.542 -0.2959 -0.1303 -0.2470
  117loPI   C2B 1870  17.803   6.162   9.116  0.0481  0.1726 -0.1202
  117loPI   C3B 1871  17.783   6.214   8.707  0.1496 -0.0215  0.2459
  117loPI   C4B 1872  17.857   6.187   8.286  0.1777  0.2407 -0.2656
  118loPI    C1 1873   5.453   0.590  10.720  0.0200 -0.0740 -0.0587
  118loPI    C2 1874   5.417   0.935  10.920 -0.0112 -0.0622 -0.0847
  118loPI    C3 1875   5.450   0.590  11.120 -0.1112 -0.0573 -0.0593
  118loPI   PO4 1876   5.641   0.652  10.487 -0.1293  0.1820  0.1399
  118loPI   GL1 1877   5.556   0.693  10.129  0.0018  0.0529 -0.3666
  118loPI   GL2 1878   5.281   0.657   9.944  0.0072  0.1282  0.1613
  118loPI   C1A 1879   5.605   1.042   9.847  0.0022 -0.3329  0.2228
  118loPI   C2A 1880   5.602   1.112   9.384  0.2125 -0.2514  0.0863
  118loPI   C3A 1881   5.529   1.242   8.951  0.3232  0.0670  0.0534
  118loPI   C4A 1882   5.435   1.253   8.551 -0.2252  0.1703  0.0250
  118loPI   C5A 1883   5.284   1.302   8.099 -0.2840  0.0209 -0.1979
  118loPI   C6A 1884   5.147   1.514   7.865  0.0548  0.0044 -0.0460
  118loPI   C1B 1885   5.534   0.632   9.538 -0.0406  0.1384 -0.2669
  118loPI   C2B 1886   5.555   0.640   9.151  0.3579  0.1563  0.0700
  118loPI   C3B 1887   5.435   0.374   8.801  0.3735 -0.0892 -0.0904
  118loPI   C4B 1888   5.513  -0.121   8.616 -0.0185  0.4310 -0.1353
  119loPI    C1 1889   0.372  16.908  10.285  0.0673  0.1652 -0.0008
  119loPI    C2 1890   0.646  16.849  10.570  0.0037  0.1311  0.0537
  119loPI    C3 1891   0.534  16.545  10.335 -0.0641  0.1195  0.1007
  119loPI   PO4 1892   0.474  17.152  10.178 -0.1009  0.3337 -0.0739
  119loPI   GL1 1893   0.399  17.425   9.860 -0.0156  0.0485  0.2315
  119loPI   GL2 1894   0.668  17.278   9.723 -0.1519 -0.0674  0.0818
  119loPI   C1A 1895   0.274  17.500   9.490  0.0161  0.0965  0.0556
  119loPI   C2A 1896   0.172  17.521   9.090 -0.1383 -0.1506  0.1626
  119loPI   C3A 1897   0.316  17.546   8.691  0.3231 -0.2394 -0.2314
  119loPI   C4A 1898   0.267  17.448   8.184 -0.3785  0.0717 -0.0865
  119loPI   C5A 1899   0.452  17.195   7.901 -0.2420 -0.1314 -0.2032
  119loPI   C6A 1900   0.227  16.888   7.722 -0.2484  0.1203 -0.1092
  119loPI   C1B 1901   0.640  17.010   9.446  0.2597  0.0158 -0.1120
  119loPI   C2B 1902   0.588  16.921   8.973 -0.0700 -0.1469  0.2829
  119loPI   C3B 1903   0.537  17.059   8.496 -0.2897  0.1213  0.2181
  119loPI   C4B 1904   0.606  16.811   8.139 -0.1480  0.0178 -0.0464
  120loPI    C1 1905   7.664  12.999  10.617  0.0893  0.0757  0.1348
  120loPI    C2 1906   8.040  12.986  10.754  0.1645 -0.3372 -0.0923
  120loPI    C3 1907   7.759  12.752  10.917 -0.1314  0.3475  0.4356
  120loPI   PO4 1908   7.637  12.986  10.403 -0.2350 -0.0009 -0.1522
  120loPI   GL1 1909   7.621  12.866  10.012 -0.0393  0.0757  0.1430
  120loPI   GL2 1910   7.882  12.821   9.851  0.1239 -0.0873  0.0108
  120loPI   C1A 1911   7.447  12.655   9.619  0.0094 -0.0181 -0.3814
  120loPI   C2A 1912   7.472  12.513   9.127 -0.0805  0.1433  0.1203
  120loPI   C3A 1913   7.422  12.439   8.778 -0.1608 -0.2779  0.0034
  120loPI   C4A 1914   7.583  12.227   8.434  0.2158 -0.1116  0.0033
  120loPI   C5A 1915   7.810  11.866   8.365  0.4109  0.0923  0.0611
  120loPI   C6A 1916   7.860  11.507   8.728 -0.0447  0.0682  0.4647
  120loPI   C1B 1917   8.010  13.146   9.658  0.2296  0.1608  0.1132
  120loPI   C2B 1918   7.965  13.285   9.202  0.1453 -0.0204  0.0934
  120loPI   C3B 1919   7.739  13.276   8.736  0.3118 -0.1587  0.0643
  120loPI   C4B 1920   7.743  13.186   8.231 -0.0278  0.1622  0.0585
  121loPI    C1 1921   4.427  16.876  10.412 -0.1424 -0.1769 -0.1189
  121loPI    C2 1922   4.046  16.997  10.381 -0.0835  0.0764  0.1010
  121loPI    C3 1923   4.199  16.908  10.740  0.0348 -0.1324  0.0013
  121loPI   PO4 1924   4.445  16.650  10.284 -0.0984 -0.3274  0.1042
  121loPI   GL1 1925   4.587  16.492   9.848 -0.2262 -0.0525 -0.0789
  121loPI   GL2 1926   4.538  16.145   9.977 -0.0816 -0.1181  0.0998
  121loPI   C1A 1927   4.330  16.302   9.538  0.0126  0.1429  0.0766
  121loPI   C2A 1928   4.324  16.413   9.074 -0.0410  0.2345 -0.2062
  121loPI   C3A 1929   4.032  16.516   8.776  0.2046 -0.1645 -0.1593
  121loPI   C4A 1930   3.798  16.892   8.680  0.1018 -0.2518  0.0188
  121loPI   C5A 1931   3.963  17.275   8.441 -0.2457  0.1987 -0.1911
  121loPI   C6A 1932   4.113  17.303   8.046 -0.0251 -0.1280  0.2133
  121loPI   C1B 1933   4.626  15.927   9.573  0.1175 -0.2800  0.1132
  121loPI   C2B 1934   4.509  15.949   9.133 -0.0658  0.2482 -0.1102
  121loPI   C3B 1935   4.365  16.027   8.741 -0.1882 -0.0164 -0.0825
  121loPI   C4B 1936   4.426  16.116   8.378  0.1342  0.0509  0.1385
  122loPI    C1 1937  10.852  17.691  10.814 -0.0069 -0.0240 -0.0771
  122loPI    C2 1938  10.855  17.299  10.896 -0.0058 -0.0755 -0.3174
  122loPI    C3 1939  10.936  17.564  11.184  0.0605 -0.2546 -0.1695
  122loPI   PO4 1940  10.694  17.643  10.596  0.0570 -0.2115  0.3568
  122loPI   GL1 1941  10.612  17.804  10.246  0.4488  0.2239  0.1060
  122loPI   GL2 1942  10.535  17.983   9.968  0.1661 -0.0506  0.2523
  122loPI   C1A 1943  10.689  17.526   9.935 -0.2241 -0.0030  0.0714
  122loPI   C2A 1944  10.891  17.436   9.430 -0.0687  0.0373 -0.1306
  122loPI   C3A 1945  10.993  17.540   8.956 -0.3577  0.0197  0.0683
  122loPI   C4A 1946  11.105  17.437   8.516  0.2593 -0.0549  0.1564
  122loPI   C5A 1947  11.186  17.648   8.221  0.3262 -0.0265  0.2863
  122loPI   C6A 1948  11.359  17.912   7.924 -0.1748 -0.0140 -0.1856
  122loPI   C1B 1949  10.852  18.210   9.648  0.0170  0.0675  0.0874
  122loPI   C2B 1950  10.934  18.496   9.386  0.0316  0.2174 -0.0845
  122loPI   C3B 1951  10.852  18.694   8.928 -0.1245 -0.2035 -0.0763
  122loPI   C4B 1952  10.789  18.668   8.578 -0.2656  0.2482  0.2100
  123loPI    C1 1953  15.312  15.153  10.263 -0.0899  0.1141 -0.3187
  123loPI    C2 1954  15.004  15.401  10.320 -0.2816 -0.2352  0.2489
  123loPI    C3 1955  15.300  15.386  10.588 -0.0090 -0.2511 -0.0472
  123loPI   PO4 1956  15.173  14.907  10.306  0.0036  0.0533  0.1730
  123loPI   GL1 1957  15.049  14.676   9.967 -0.3027 -0.1986 -0.0986
  123loPI   GL2 1958  15.339  14.562   9.956 -0.0412 -0.0280  0.0462
  123loPI   C1A 1959  15.008  14.377   9.544 -0.0998 -0.1545 -0.0550
  123loPI   C2A 1960  15.046  14.363   9.182 -0.1755  0.2908  0.1021
  123loPI   C3A 1961  15.040  14.412   8.853 -0.0760 -0.3899  0.0971
  123loPI   C4A 1962  15.017  14.442   8.403 -0.1844  0.1210  0.0949
  123loPI   C5A 1963  15.360  14.271   8.027 -0.0737 -0.5002 -0.0215
  123loPI   C6A 1964  15.581  14.107   7.715 -0.0551  0.0832  0.0240
  123loPI   C1B 1965  15.355  14.848   9.564  0.2490  0.0958 -0.2560
  123loPI   C2B 1966  15.341  14.854   9.141 -0.2001 -0.2456 -0.0319
  123loPI   C3B 1967  15.395  14.740   8.639 -0.0132  0.3135 -0.1422
  123loPI   C4B 1968  15.459  14.780   8.229  0.0950  0.0245 -0.0503
  124loPI    C1 1969   1.444   9.503  10.550 -0.0405 -0.0487 -0.1849
  124loPI    C2 1970   1.057   9.467  10.647 -0.0021  0.1051  0.0349
  124loPI    C3 1971   1.295   9.708  10.860  0.2540 -0.1176  0.0071
  124loPI   PO4 1972   1.471   9.217  10.473 -0.1191 -0.0633  0.1966
  124loPI   GL1 1973   1.310   9.054  10.006 -0.0037  0.0573  0.0042
  124loPI   GL2 1974   1.298   8.684   9.977 -0.4420 -0.1028  0.0646
  124loPI   C1A 1975   1.153   9.030   9.520 -0.1708  0.0762 -0.0525
  124loPI   C2A 1976   1.135   9.030   9.119  0.3025  0.1237 -0.0967
  124loPI   C3A 1977   1.012   9.093   8.732  0.3153  0.2590 -0.2340
  124loPI   C4A 1978   0.989   9.064   8.249 -0.1722 -0.1364 -0.0865
  124loPI   C5A 1979   1.019   8.734   7.975 -0.1985 -0.0325  0.3380
  124loPI   C6A 1980   0.946   8.305   7.827 -0.0546  0.0188  0.1398
  124loPI   C1B 1981   1.570   8.624   9.686 -0.1700 -0.0340  0.1338
  124loPI   C2B 1982   1.420   8.662   9.259 -0.1863  0.1221  0.0385
  124loPI   C3B 1983   1.333   8.718   8.783  0.1486  0.0267  0.3363
  124loPI   C4B 1984   1.148   8.669   8.442  0.2839  0.1521  0.3687
  125loPI    C1 1985  16.890   2.017  10.531 -0.2129  0.0448 -0.1088
  125loPI    C2 1986  16.661   2.046  10.857  0.3199  0.2309  0.2628
  125loPI    C3 1987  16.898   1.728  10.808  0.0409  0.0705 -0.0866
  125loPI   PO4 1988  17.008   2.259  10.453  0.1248  0.2420  0.2176
  125loPI   GL1 1989  17.162   2.540  10.174 -0.0586 -0.1419  0.2176
  125loPI   GL2 1990  17.409   2.289  10.153  0.1409 -0.2052 -0.0807
  125loPI   C1A 1991  17.215   2.768   9.796  0.0429 -0.1640 -0.2160
  125loPI   C2A 1992  17.166   2.842   9.335 -0.1350  0.0985 -0.2224
  125loPI   C3A 1993  17.063   2.922   8.854 -0.3185 -0.1103 -0.0806
  125loPI   C4A 1994  17.037   2.914   8.478  0.0417 -0.3732  0.1480
  125loPI   C5A 1995  16.920   2.857   8.058 -0.0427  0.0895 -0.1332
  125loPI   C6A 1996  16.451   2.911   8.069  0.0403  0.0477 -0.0317
  125loPI   C1B 1997  17.548   2.391   9.745  0.1617  0.1206 -0.3445
  125loPI   C2B 1998  17.725   2.675   9.407 -0.0878  0.1626 -0.0448
  125loPI   C3B 1999  17.961   2.833   9.101 -0.4498 -0.0853  0.0026
  125loPI   C4B 2000  17.945   2.869   8.728  0.0448  0.4757 -0.1651
  126loPI    C1 2001  14.517  14.652  10.277  0.0084  0.3102 -0.2564
  126loPI    C2 2002  14.232  14.435  10.453  0.3019 -0.0458 -0.2073
  126loPI    C3 2003  14.209  14.834  10.455 -0.0085 -0.0597  0.1081
  126loPI   PO4 2004  14.551  14.552  10.003  0.0598  0.0516  0.1917
  126loPI   GL1 2005  14.663  14.692   9.584 -0.0308 -0.1697 -0.1633
  126loPI   GL2 2006  14.382  14.491   9.575 -0.1290 -0.0471 -0.2691
  126loPI   C1A 2007  14.884  14.796   9.245  0.2282  0.1957  0.0507
  126loPI   C2A 2008  14.900  14.896   8.833 -0.0873  0.0920  0.0401
  126loPI   C3A 2009  14.889  14.907   8.437  0.2348 -0.0125 -0.0679
  126loPI   C4A 2010  15.014  14.738   8.017  0.1224  0.3665  0.1041
  126loPI   C5A 2011  14.811  14.497   7.699 -0.0591  0.0541  0.0576
  126loPI   C6A 2012  14.506  14.044   7.715 -0.2250  0.0681  0.1101
  126loPI   C1B 2013  14.602  14.216   9.392  0.0391 -0.0976 -0.1091
  126loPI   C2B 2014  14.692  13.996   9.036 -0.2166  0.0320  0.5441
  126loPI   C3B 2015  14.729  14.023   8.598 -0.1077 -0.1217  0.0948
  126loPI   C4B 2016  14.722  14.123   8.136  0.3348  0.0449 -0.0829
  127loPI    C1 2017  17.099   5.276  10.400 -0.0242 -0.5034 -0.0756
  127loPI    C2 2018  17.280   5.157  10.063  0.1032 -0.0071 -0.1902
  127loPI    C3 2019  17.498   5.249  10.385  0.0146  0.0079 -0.1340
  127loPI   PO4 2020  16.984   5.449  10.310  0.0542  0.0414 -0.2342
  127loPI   GL1 2021  17.134   5.609   9.955  0.0175 -0.2147 -0.2135
  127loPI   GL2 2022  16.988   5.836   9.877  0.1083 -0.1470  0.3333
  127loPI   C1A 2023  17.272   5.478   9.534 -0.0593 -0.0892  0.0329
  127loPI   C2A 2024  17.321   5.408   9.151  0.1355  0.2141  0.1646
  127loPI   C3A 2025  17.285   5.489   8.680 -0.0404 -0.0538 -0.3974
  127loPI   C4A 2026  17.292   5.538   8.217  0.3973  0.0539  0.1782
  127loPI   C5A 2027  17.311   5.744   7.815 -0.2101  0.1909 -0.1432
  127loPI   C6A 2028  17.229   5.765   7.388 -0.0642  0.1062  0.0645
  127loPI   C1B 2029  16.874   5.739   9.456  0.1096 -0.1424 -0.0555
  127loPI   C2B 2030  16.888   5.691   9.041 -0.2447 -0.1159  0.0246
  127loPI   C3B 2031  16.867   5.860   8.589 -0.1551 -0.2103  0.1053
  127loPI   C4B 2032  16.892   5.830   8.111 -0.0794 -0.5164  0.2918
  128loPI    C1 2033   9.013  17.240  10.523 -0.1701 -0.0056 -0.1064
  128loPI    C2 2034   8.932  16.857  10.606  0.1570 -0.0788 -0.1094
  128loPI    C3 2035   8.937  17.128  10.899  0.2351 -0.1357 -0.0576
  128loPI   PO4 2036   9.183  17.323  10.168 -0.0149 -0.1778 -0.2810
  128loPI   GL1 2037   9.593  17.137   9.934  0.1031 -0.1650 -0.0017
  128loPI   GL2 2038   9.428  17.210   9.721 -0.1485  0.1893  0.0312
  128loPI   C1A 2039   9.912  17.098   9.509  0.0024  0.0885 -0.2303
  128loPI   C2A 2040  10.036  17.113   9.076  0.0106  0.1153 -0.3900
  128loPI   C3A 2041  10.168  17.139   8.661  0.2660 -0.0719  0.1288
  128loPI   C4A 2042  10.286  17.376   8.372 -0.2014 -0.1764  0.0330
  128loPI   C5A 2043  10.138  17.684   8.263  0.0229 -0.2250  0.0846
  128loPI   C6A 2044  10.346  18.062   8.389 -0.1157  0.4152 -0.1835
  128loPI   C1B 2045   9.556  17.269   9.228 -0.3057 -0.0790 -0.0054
  128loPI   C2B 2046   9.568  17.029   8.833  0.0889 -0.0110  0.4314
  128loPI   C3B 2047   9.526  16.841   8.398 -0.2650 -0.2508 -0.0054
  128loPI   C4B 2048   9.381  16.653   8.017 -0.2787  0.2350  0.0749
  129loPI    C1 2049  16.088  14.061  10.629 -0.1171 -0.0481  0.0195
  129loPI    C2 2050  15.808  14.005  10.909 -0.0419  0.0460  0.1140
  129loPI    C3 2051  16.135  14.220  10.993  0.0339 -0.0195 -0.0121
  129loPI   PO4 2052  16.105  13.846  10.476 -0.2134  0.1442 -0.1560
  129loPI   GL1 2053  15.963  13.576  10.168  0.0468 -0.0041  0.0677
  129loPI   GL2 2054  15.716  13.754  10.022 -0.1103  0.1090  0.0036
  129loPI   C1A 2055  16.195  13.585   9.722 -0.0479 -0.0806 -0.2294
  129loPI   C2A 2056  16.198  13.791   9.368  0.2970 -0.0076 -0.2791
  129loPI   C3A 2057  16.162  13.681   8.971 -0.1985 -0.1369 -0.0752
  129loPI   C4A 2058  16.195  13.627   8.584  0.0630  0.0801 -0.1493
  129loPI   C5A 2059  16.217  13.748   8.207  0.2565  0.1453 -0.1023
  129loPI   C6A 2060  16.095  13.861   7.848  0.0451 -0.0837 -0.3030
  129loPI   C1B 2061  15.781  13.772   9.613 -0.1625  0.0820 -0.1443
  129loPI   C2B 2062  15.733  13.860   9.152  0.0752  0.4290  0.2375
  129loPI   C3B 2063  15.723  13.799   8.623  0.0057 -0.2953 -0.2441
  129loPI   C4B 2064  15.665  13.855   8.169 -0.1685  0.0011  0.1721
  130loPI    C1 2065   8.099   1.991  10.959 -0.0315 -0.0446  0.1643
  130loPI    C2 2066   7.834   2.158  11.208 -0.1407 -0.0256  0.0362
  130loPI    C3 2067   8.157   1.973  11.355  0.0059  0.3357  0.1799
  130loPI   PO4 2068   7.938   1.895  10.800 -0.2024  0.0373 -0.0167
  130loPI   GL1 2069   8.111   1.850  10.332 -0.0314 -0.1499 -0.1726
  130loPI   GL2 2070   7.908   2.009  10.233  0.4124 -0.0042 -0.0936
  130loPI   C1A 2071   8.190   1.605  10.024  0.0754  0.1175  0.1054
  130loPI   C2A 2072   8.385   1.594   9.596 -0.0510  0.2092 -0.0292
  130loPI   C3A 2073   8.314   1.470   9.212  0.2155  0.0860  0.2366
  130loPI   C4A 2074   8.235   1.613   8.783 -0.2676 -0.1386  0.2592
  130loPI   C5A 2075   8.062   1.524   8.435 -0.2618  0.0793 -0.2656
  130loPI   C6A 2076   7.825   1.469   8.152 -0.1200  0.2530 -0.1061
  130loPI   C1B 2077   7.881   2.321   9.864 -0.3074  0.0364 -0.1218
  130loPI   C2B 2078   7.891   2.282   9.365 -0.1180  0.0028  0.1886
  130loPI   C3B 2079   7.666   2.345   9.007  0.3805  0.1270  0.2236
  130loPI   C4B 2080   7.756   2.343   8.509 -0.0595 -0.2456  0.0033
  131loPI    C1 2081  17.412   3.778  10.590 -0.1527 -0.0850 -0.0758
  131loPI    C2 2082  17.239   4.041  10.838  0.1268 -0.0824  0.1216
  131loPI    C3 2083  17.256   3.654  10.937 -0.2609 -0.1768 -0.1570
  131loPI   PO4 2084  17.261   3.854  10.306  0.1996  0.2562 -0.1438
  131loPI   GL1 2085  17.393   4.203   9.955 -0.4028 -0.1341  0.0524
  131loPI   GL2 2086  17.189   4.387   9.685  0.1281 -0.1152  0.2496
  131loPI   C1A 2087  17.777   4.194   9.703  0.1263  0.0886 -0.0157
  131loPI   C2A 2088  17.728   4.184   9.260 -0.2287  0.1956 -0.0689
  131loPI   C3A 2089  17.669   4.238   8.776 -0.1072  0.2084  0.2249
  131loPI   C4A 2090  17.739   4.143   8.306 -0.0169  0.0071 -0.1310
  131loPI   C5A 2091  17.621   3.968   7.899  0.2386  0.1030  0.2395
  131loPI   C6A 2092  17.250   4.002   7.656  0.2971 -0.0001 -0.1195
  131loPI   C1B 2093  17.265   4.415   9.284  0.3203  0.0436  0.0036
  131loPI   C2B 2094  17.239   4.446   8.837 -0.0260  0.0683 -0.0779
  131loPI   C3B 2095  17.228   4.472   8.399 -0.0091  0.2763 -0.0228
  131loPI   C4B 2096  17.313   4.526   7.977  0.0517 -0.1026 -0.3556
  132loPI    C1 2097   8.141  15.820  10.423  0.1801 -0.0833 -0.0412
  132loPI    C2 2098   8.395  16.087  10.270  0.1163  0.1142  0.1912
  132loPI    C3 2099   8.446  15.698  10.196  0.1628  0.1937 -0.2178
  132loPI   PO4 2100   7.906  15.896  10.368  0.0408  0.0784  0.1847
  132loPI   GL1 2101   7.669  15.877   9.953  0.3017 -0.0742  0.2289
  132loPI   GL2 2102   7.401  15.979   9.857  0.3801 -0.2925  0.0866
  132loPI   C1A 2103   7.742  15.622   9.648  0.0774 -0.0327 -0.0075
  132loPI   C2A 2104   7.781  15.531   9.191  0.2964  0.0264 -0.0968
  132loPI   C3A 2105   7.645  15.540   8.748 -0.1343  0.0227 -0.2060
  132loPI   C4A 2106   7.807  15.275   8.415  0.3389 -0.1435  0.0392
  132loPI   C5A 2107   7.928  15.299   8.034  0.0335  0.1498 -0.1283
  132loPI   C6A 2108   8.254  15.492   7.851  0.1550 -0.0808 -0.1889
  132loPI   C1B 2109   7.415  15.992   9.400  0.1460  0.0723  0.1255
  132loPI   C2B 2110   7.339  16.012   9.057  0.1041 -0.2197  0.0139
  132loPI   C3B 2111   7.577  16.021   8.664  0.0958  0.3568 -0.0480
  132loPI   C4B 2112   7.746  16.296   8.364 -0.0812  0.0005  0.2689
  133loPI    C1 2113  15.490  17.830  10.755  0.0278  0.0286 -0.1944
  133loPI    C2 2114  15.735  17.688  11.038  0.0875  0.2723 -0.1223
  133loPI    C3 2115  15.361  17.793  11.131  0.0066  0.0571 -0.1990
  133loPI   PO4 2116  15.702  17.916  10.546  0.1967  0.5362 -0.2816
  133loPI   GL1 2117  15.828  18.026  10.181 -0.3537 -0.0647  0.3752
  133loPI   GL2 2118  15.637  17.787  10.055 -0.1378  0.0279  0.3080
  133loPI   C1A 2119  16.016  17.921   9.720 -0.0479  0.1896 -0.0583
  133loPI   C2A 2120  15.932  17.765   9.323 -0.1192  0.0065  0.2860
  133loPI   C3A 2121  15.719  17.706   8.895 -0.0859  0.1454 -0.0543
  133loPI   C4A 2122  15.804  17.874   8.487 -0.0739 -0.0454 -0.2750
  133loPI   C5A 2123  16.095  17.679   8.149  0.2723  0.2471 -0.1491
  133loPI   C6A 2124  16.350  18.043   8.274 -0.3609 -0.0018 -0.0481
  133loPI   C1B 2125  15.535  17.881   9.658 -0.1048  0.0225 -0.0825
  133loPI   C2B 2126  15.125  17.935   9.388 -0.0038 -0.0602 -0.0054
  133loPI   C3B 2127  14.984  17.813   9.013  0.2039  0.0257  0.1706
  133loPI   C4B 2128  14.824  17.529   8.663 -0.3419  0.0925 -0.2286
  134loPI    C1 2129   3.555   2.846  10.399  0.0478  0.0560  0.1475
  134loPI    C2 2130   3.414   3.018  10.731  0.0522  0.0769  0.1387
  134loPI    C3 2131   3.789   3.090  10.612  0.0055  0.1806  0.0527
  134loPI   PO4 2132   3.330   2.915  10.233  0.2483 -0.1465  0.0851
  134loPI   GL1 2133   3.045   2.893   9.824  0.0573 -0.1448  0.2327
  134loPI   GL2 2134   3.306   3.224   9.789  0.0214 -0.0465  0.0459
  134loPI   C1A 2135   3.112   2.928   9.479  0.0140  0.2778  0.0601
  134loPI   C2A 2136   2.932   3.101   9.057  0.0437 -0.1752 -0.0004
  134loPI   C3A 2137   2.954   3.205   8.630  0.0437  0.0220  0.2124
  134loPI   C4A 2138   2.823   3.348   8.308  0.2478  0.2157  0.1798
  134loPI   C5A 2139   2.910   3.657   8.121 -0.1784  0.0736 -0.0666
  134loPI   C6A 2140   2.746   4.108   8.203  0.2062 -0.3228  0.0765
  134loPI   C1B 2141   3.114   3.426   9.452  0.2269  0.0679  0.1020
  134loPI   C2B 2142   2.998   3.588   9.039 -0.0500 -0.2094 -0.0219
  134loPI   C3B 2143   2.936   3.725   8.596  0.0243  0.0625  0.2824
  134loPI   C4B 2144   3.251   4.044   8.277  0.0816  0.2588  0.3675
  135loPI    C1 2145  16.245  15.620  10.632  0.2835  0.1180 -0.1882
  135loPI    C2 2146  16.074  15.341  10.862  0.0555  0.2474 -0.1977
  135loPI    C3 2147  16.414  15.516  10.979  0.0817  0.1240 -0.0867
  135loPI   PO4 2148  16.295  15.532  10.328  0.0553  0.1728  0.2711
  135loPI   GL1 2149  16.050  15.498  10.036  0.1155  0.2584 -0.1038
  135loPI   GL2 2150  16.004  15.685   9.865  0.1532  0.1799  0.1272
  135loPI   C1A 2151  16.510  15.564   9.675 -0.1442  0.1479 -0.1387
  135loPI   C2A 2152  16.611  15.522   9.214 -0.1753  0.1626  0.2892
  135loPI   C3A 2153  16.654  15.484   8.749 -0.0499 -0.1981 -0.0330
  135loPI   C4A 2154  16.531  15.654   8.357  0.3447 -0.1415 -0.2120
  135loPI   C5A 2155  16.165  15.811   8.094  0.3312 -0.0825 -0.0035
  135loPI   C6A 2156  15.794  15.913   7.969 -0.5604  0.1130 -0.0510
  135loPI   C1B 2157  16.086  15.609   9.384  0.1138 -0.2152 -0.0177
  135loPI   C2B 2158  16.111  15.524   8.913 -0.0439  0.2879 -0.2197
  135loPI   C3B 2159  16.085  15.453   8.430  0.2117  0.1698 -0.1483
  135loPI   C4B 2160  16.154  15.344   7.999  0.0233 -0.0181  0.3880
  136loPI    C1 2161   9.306  14.795  10.292  0.2643  0.0604  0.0644
  136loPI    C2 2162   9.133  14.479  10.118  0.0080  0.2603 -0.0509
  136loPI    C3 2163   9.050  14.567  10.500 -0.0459  0.2811 -0.0674
  136loPI   PO4 2164   9.269  14.987  10.112 -0.2849  0.0594  0.0158
  136loPI   GL1 2165   9.330  14.946   9.648  0.1679  0.4078  0.0066
  136loPI   GL2 2166   9.417  14.582   9.763  0.1155  0.1896 -0.2936
  136loPI   C1A 2167   9.283  14.914   9.229  0.1996 -0.0503  0.1875
  136loPI   C2A 2168   9.323  15.058   8.818  0.2490  0.2834  0.3382
  136loPI   C3A 2169   9.345  15.212   8.502 -0.1500  0.2008 -0.1775
  136loPI   C4A 2170   9.359  15.407   8.118  0.1061  0.1179 -0.1822
  136loPI   C5A 2171   9.756  15.515   7.860  0.0783  0.0911  0.0695
  136loPI   C6A 2172  10.194  15.458   7.998  0.1270 -0.3254 -0.1201
  136loPI   C1B 2173   9.441  14.473   9.329 -0.0757 -0.0979  0.0107
  136loPI   C2B 2174   9.466  14.522   8.939  0.3252  0.0010  0.3075
  136loPI   C3B 2175   9.432  14.340   8.545 -0.1226  0.0831 -0.2933
  136loPI   C4B 2176   9.580  14.170   8.155  0.1254 -0.1821  0.0917
  137loPI    C1 2177  13.784   2.633  10.758  0.0921 -0.0596  0.1158
  137loPI    C2 2178  13.767   2.361  11.051 -0.0437  0.0028  0.1665
  137loPI    C3 2179  13.871   2.739  11.134 -0.0159  0.0048  0.1232
  137loPI   PO4 2180  13.897   2.538  10.566  0.2425  0.0519  0.0551
  137loPI   GL1 2181  13.664   2.379  10.138  0.1493  0.0058  0.1390
  137loPI   GL2 2182  13.542   2.145   9.891 -0.5533  0.1865 -0.1407
  137loPI   C1A 2183  13.769   2.759   9.884  0.0727 -0.0764  0.2509
  137loPI   C2A 2184  13.796   2.564   9.474 -0.0211 -0.2870 -0.2269
  137loPI   C3A 2185  13.717   2.442   9.084 -0.1243  0.2794  0.1419
  137loPI   C4A 2186  13.880   2.627   8.720  0.0663  0.0543  0.1231
  137loPI   C5A 2187  13.801   2.642   8.370  0.3207  0.0208 -0.0274
  137loPI   C6A 2188  13.705   2.681   7.928  0.0765 -0.2087 -0.3994
  137loPI   C1B 2189  13.422   2.199   9.444 -0.2404 -0.0745  0.0936
  137loPI   C2B 2190  13.283   2.243   9.010  0.3032 -0.0943 -0.1323
  137loPI   C3B 2191  13.534   2.164   8.637  0.1638 -0.0859  0.1751
  137loPI   C4B 2192  13.822   1.824   8.477  0.0307 -0.2542  0.0409
  138loPI    C1 2193   5.557  14.193  10.522 -0.3103 -0.2872  0.0905
  138loPI    C2 2194   5.668  13.848  10.692  0.0142 -0.2576 -0.0526
  138loPI    C3 2195   5.844  14.190  10.801 -0.0214 -0.1918 -0.1988
  138loPI   PO4 2196   5.491  14.143  10.346  0.0325 -0.1633 -0.0242
  138loPI   GL1 2197   5.656  13.985   9.999  0.0726 -0.0857  0.3531
  138loPI   GL2 2198   5.726  14.124   9.808 -0.1343 -0.2175  0.0314
  138loPI   C1A 2199   5.356  13.809   9.757  0.1718 -0.1134  0.0274
  138loPI   C2A 2200   5.314  13.547   9.437 -0.0028 -0.2592 -0.0672
  138loPI   C3A 2201   5.124  13.476   9.024  0.3198 -0.1558  0.1173
  138loPI   C4A 2202   4.962  13.352   8.613 -0.2251 -0.0685 -0.0670
  138loPI   C5A 2203   5.070  13.138   8.133  0.1196 -0.1834 -0.2063
  138loPI   C6A 2204   5.128  12.962   7.854 -0.1073 -0.0653  0.1948
  138loPI   C1B 2205   5.808  14.259   9.481 -0.0770  0.1637  0.1683
  138loPI   C2B 2206   5.883  14.079   9.111  0.0649 -0.0473 -0.0140
  138loPI   C3B 2207   5.908  13.852   8.803  0.0291  0.4071  0.1540
  138loPI   C4B 2208   6.002  13.733   8.430 -0.1620 -0.2296  0.2870
  139loPI    C1 2209  17.890   4.625  11.023 -0.0076  0.0873  0.1438
  139loPI    C2 2210  17.594   4.383  10.906  0.0534 -0.0485  0.2666
  139loPI    C3 2211  17.626   4.487  11.291  0.1211  0.0276  0.2407
  139loPI   PO4 2212  18.017   4.674  10.750  0.0436 -0.1093 -0.2926
  139loPI   GL1 2213  17.982   4.547  10.258 -0.2013  0.2364  0.2695
  139loPI   GL2 2214  17.699   4.643  10.034  0.0351  0.1166 -0.0676
  139loPI   C1A 2215  18.205   4.444   9.801 -0.1250  0.2368 -0.0985
  139loPI   C2A 2216  18.091   4.439   9.372  0.1391 -0.1507  0.1086
  139loPI   C3A 2217  18.106   4.420   8.949  0.1846  0.0957  0.0431
  139loPI   C4A 2218  18.098   4.367   8.586 -0.2619 -0.1239  0.0732
  139loPI   C5A 2219  18.142   4.396   8.165 -0.1042 -0.2491  0.3393
  139loPI   C6A 2220  17.993   4.686   7.831  0.0318 -0.1030  0.1768
  139loPI   C1B 2221  17.669   4.657   9.556  0.0534  0.2420 -0.1360
  139loPI   C2B 2222  17.654   4.692   9.064  0.1652  0.1910 -0.0436
  139loPI   C3B 2223  17.702   4.743   8.605 -0.4221 -0.0390 -0.1215
  139loPI   C4B 2224  17.651   4.752   8.218  0.3624 -0.0201  0.0923
  140loPI    C1 2225  11.547  13.591  10.266 -0.0709  0.2302  0.0566
  140loPI    C2 2226  11.841  13.395  10.453 -0.0426  0.1456 -0.0754
  140loPI    C3 2227  11.650  13.693  10.639  0.1324  0.2073  0.0080
  140loPI   PO4 2228  11.430  13.413  10.116  0.0778 -0.1480  0.0782
  140loPI   GL1 2229  11.463  13.129   9.735  0.0536 -0.0835 -0.0923
  140loPI   GL2 2230  11.263  13.385   9.680 -0.0099  0.3876 -0.1080
  140loPI   C1A 2231  11.431  13.026   9.352 -0.0434 -0.2643  0.1292
  140loPI   C2A 2232  11.393  13.124   8.965  0.1479  0.0562 -0.0061
  140loPI   C3A 2233  11.214  13.174   8.485  0.1335  0.2930  0.1514
  140loPI   C4A 2234  11.273  13.078   7.992  0.2265  0.0737 -0.2068
  140loPI   C5A 2235  11.555  12.990   7.711  0.0526  0.1710  0.1199
  140loPI   C6A 2236  11.638  13.042   7.224  0.2821 -0.2062  0.0429
  140loPI   C1B 2237  11.177  13.481   9.237 -0.1389  0.0433  0.1234
  140loPI   C2B 2238  11.416  13.590   8.864  0.4715  0.1973  0.3336
  140loPI   C3B 2239  11.397  13.748   8.401 -0.1767 -0.2402  0.1328
  140loPI   C4B 2240  11.358  13.838   8.028  0.2549  0.2375 -0.1170
  141loPI    C1 2241   6.592   0.038  10.818 -0.1322 -0.1603 -0.2010
  141loPI    C2 2242   6.229   0.048  10.986 -0.0035  0.3040  0.0673
  141loPI    C3 2243   6.553  -0.012  11.213  0.0957 -0.0776 -0.1663
  141loPI   PO4 2244   6.542  -0.089  10.627  0.0423  0.0580  0.0685
  141loPI   GL1 2245   6.240  -0.019  10.288  0.1647  0.1132 -0.0448
  141loPI   GL2 2246   5.944  -0.137  10.176 -0.0573  0.1002  0.0513
  141loPI   C1A 2247   6.383   0.305   9.974  0.2206 -0.2918 -0.2968
  141loPI   C2A 2248   6.385   0.366   9.503  0.1214  0.4687 -0.5632
  141loPI   C3A 2249   6.421   0.428   9.053 -0.0214  0.1557 -0.0827
  141loPI   C4A 2250   6.392   0.219   8.653  0.2683  0.0618 -0.1640
  141loPI   C5A 2251   6.388  -0.132   8.781 -0.1482  0.0122  0.4050
  141loPI   C6A 2252   6.349  -0.607   8.673  0.0245 -0.0544  0.0287
  141loPI   C1B 2253   6.256  -0.172   9.774 -0.1219 -0.0995  0.0633
  141loPI   C2B 2254   6.670  -0.336   9.568  0.0268 -0.3096 -0.2603
  141loPI   C3B 2255   6.988  -0.628   9.471 -0.3680  0.2561  0.0123
  141loPI   C4B 2256   7.175  -0.864   9.119  0.1301  0.2911  0.0749
  142loPI    C1 2257  16.083   2.726  10.640 -0.0625 -0.1120 -0.0663
  142loPI    C2 2258  16.361   2.837  10.905 -0.0082  0.0158 -0.1759
  142loPI    C3 2259  15.974   2.877  10.994  0.0097  0.0464 -0.1108
  142loPI   PO4 2260  16.230   2.831  10.373  0.2043 -0.1464 -0.2589
  142loPI   GL1 2261  15.964   3.032  10.073 -0.4670 -0.0205 -0.0218
  142loPI   GL2 2262  15.727   2.904   9.998 -0.0393 -0.0324 -0.0981
  142loPI   C1A 2263  16.226   3.250   9.781  0.0996 -0.0511  0.1269
  142loPI   C2A 2264  16.240   3.457   9.488  0.0543  0.0787 -0.0356
  142loPI   C3A 2265  16.227   3.561   8.978  0.1637 -0.0076 -0.2244
  142loPI   C4A 2266  16.241   3.415   8.588  0.1268 -0.4872 -0.0475
  142loPI   C5A 2267  16.386   3.484   8.090 -0.2625  0.1847  0.0455
  142loPI   C6A 2268  16.512   3.347   7.686  0.0095  0.0461  0.1958
  142loPI   C1B 2269  15.739   3.018   9.606  0.0712  0.0500  0.3098
  142loPI   C2B 2270  15.830   3.232   9.234 -0.1579  0.0048  0.1120
  142loPI   C3B 2271  15.816   3.266   8.810 -0.1849 -0.3001  0.2068
  142loPI   C4B 2272  15.470   3.338   8.431 -0.0688 -0.1042 -0.2537
  143loPI    C1 2273   7.790   0.819  10.860  0.0253  0.0331 -0.0606
  143loPI    C2 2274   7.441   0.912  11.032  0.0191  0.0813 -0.0988
  143loPI    C3 2275   7.749   1.166  11.055  0.0566  0.0319 -0.0517
  143loPI   PO4 2276   7.695   0.692  10.600  0.3382 -0.2305  0.1234
  143loPI   GL1 2277   7.576   0.805  10.181 -0.1995  0.3065  0.2633
  143loPI   GL2 2278   7.295   1.111  10.158 -0.0498 -0.0547  0.0561
  143loPI   C1A 2279   7.698   0.800   9.675 -0.0269  0.0228  0.0214
  143loPI   C2A 2280   7.525   0.802   9.259  0.2342 -0.1356 -0.0211
  143loPI   C3A 2281   7.308   0.545   8.996  0.0719 -0.0311 -0.3350
  143loPI   C4A 2282   7.259   0.351   8.625  0.2063  0.1747 -0.0950
  143loPI   C5A 2283   6.986   0.438   8.338  0.1652 -0.2987 -0.1841
  143loPI   C6A 2284   6.857   0.165   7.940  0.2384 -0.1262  0.3514
  143loPI   C1B 2285   7.487   1.254   9.787  0.1826 -0.2793  0.0190
  143loPI   C2B 2286   7.517   1.327   9.388  0.0845  0.0966 -0.0022
  143loPI   C3B 2287   7.457   1.251   8.974 -0.0351  0.1568  0.2859
  143loPI   C4B 2288   7.611   1.167   8.547  0.0796 -0.1228  0.0828
  144loPI    C1 2289  17.389   5.751  10.654  0.0574 -0.0282  0.2830
  144loPI    C2 2290  16.995   5.743  10.719  0.0262  0.0988  0.1159
  144loPI    C3 2291  17.219   6.028  10.887  0.0484  0.0241  0.2144
  144loPI   PO4 2292  17.378   5.728  10.386 -0.0201 -0.0332 -0.1634
  144loPI   GL1 2293  17.660   5.734  10.017  0.2550  0.1263  0.1772
  144loPI   GL2 2294  17.833   5.492  10.131 -0.0320  0.2979  0.0780
  144loPI   C1A 2295  17.722   5.729   9.559  0.0763  0.2108  0.2132
  144loPI   C2A 2296  17.768   5.668   9.083  0.0535  0.0543 -0.1152
  144loPI   C3A 2297  17.726   5.736   8.597 -0.0907  0.2825  0.1065
  144loPI   C4A 2298  17.824   5.746   8.142 -0.2569 -0.1122 -0.1633
  144loPI   C5A 2299  18.179   5.545   8.016 -0.2011 -0.0937  0.2195
  144loPI   C6A 2300  18.549   5.478   7.867  0.0467 -0.3723 -0.2987
  144loPI   C1B 2301  17.747   5.264   9.760  0.4034 -0.0718 -0.0471
  144loPI   C2B 2302  17.700   5.165   9.351  0.2153 -0.1250 -0.1790
  144loPI   C3B 2303  17.759   5.244   8.889 -0.0904  0.3507  0.0993
  144loPI   C4B 2304  17.659   5.241   8.462 -0.1586  0.0124  0.1880
  145loPI    C1 2305  17.710  10.013  10.485  0.3918  0.0353  0.0414
  145loPI    C2 2306  17.662   9.752  10.785  0.2079  0.0625  0.0365
  145loPI    C3 2307  17.633  10.145  10.855  0.0318  0.0643 -0.0401
  145loPI   PO4 2308  17.526   9.737  10.265 -0.2406  0.1588  0.1945
  145loPI   GL1 2309  17.407   9.778   9.799 -0.0997  0.1106 -0.1951
  145loPI   GL2 2310  17.674   9.787   9.746  0.0913  0.1873  0.1885
  145loPI   C1A 2311  17.270   9.582   9.466  0.1241 -0.0551 -0.2376
  145loPI   C2A 2312  17.257   9.526   9.114 -0.0008  0.2454  0.1479
  145loPI   C3A 2313  17.128   9.486   8.758 -0.0949  0.1281 -0.1359
  145loPI   C4A 2314  17.059   9.502   8.344 -0.1914 -0.1416 -0.0313
  145loPI   C5A 2315  17.277   9.508   7.982 -0.1117  0.0507 -0.0230
  145loPI   C6A 2316  17.788   9.483   7.943 -0.1211 -0.0518 -0.2299
  145loPI   C1B 2317  17.680   9.752   9.232  0.1836  0.0732 -0.2725
  145loPI   C2B 2318  17.612   9.605   8.796  0.0694 -0.3511  0.2778
  145loPI   C3B 2319  17.497   9.399   8.433 -0.1413  0.2614  0.1415
  145loPI   C4B 2320  17.509   9.134   8.187  0.1465 -0.0097  0.2307
  146loPI    C1 2321  14.672  11.223  10.257 -0.0934 -0.3098  0.0273
  146loPI    C2 2322  14.908  11.396  10.530 -0.0850 -0.3676  0.0569
  146loPI    C3 2323  14.621  11.142  10.646 -0.3405 -0.0914  0.0436
  146loPI   PO4 2324  14.771  11.351  10.060  0.1232  0.0440 -0.0270
  146loPI   GL1 2325  14.957  11.162   9.725 -0.0310  0.2937  0.1705
  146loPI   GL2 2326  15.227  11.383   9.739 -0.0906 -0.1369 -0.0620
  146loPI   C1A 2327  14.905  10.960   9.320 -0.1865  0.2432  0.1989
  146loPI   C2A 2328  14.852  10.979   8.850  0.1777  0.3017  0.1640
  146loPI   C3A 2329  14.810  10.902   8.416 -0.0966  0.0031  0.0209
  146loPI   C4A 2330  14.890  10.827   7.973  0.1845  0.0175  0.0183
  146loPI   C5A 2331  14.939  11.086   7.631 -0.1862  0.1030 -0.0860
  146loPI   C6A 2332  15.179  11.406   7.609  0.1139  0.4084 -0.0302
  146loPI   C1B 2333  15.243  11.448   9.303 -0.0682 -0.1407  0.1704
  146loPI   C2B 2334  15.125  11.472   8.915  0.1934  0.4995  0.0797
  146loPI   C3B 2335  15.146  11.313   8.522 -0.1573  0.1291 -0.2654
  146loPI   C4B 2336  15.064  11.268   8.087 -0.0451 -0.0316 -0.2217
  147loPI    C1 2337  12.881   6.566  10.635  0.1651 -0.1505  0.0366
  147loPI    C2 2338  12.701   6.707  10.964 -0.0663 -0.1108 -0.1048
  147loPI    C3 2339  13.068   6.833  10.867 -0.1776  0.2222 -0.1051
  147loPI   PO4 2340  12.659   6.610  10.460  0.0481 -0.2448  0.0405
  147loPI   GL1 2341  12.662   6.828  10.069 -0.1314  0.0911 -0.3301
  147loPI   GL2 2342  12.534   6.599   9.924  0.1072 -0.3122 -0.1175
  147loPI   C1A 2343  12.707   7.053   9.739  0.0653  0.0826  0.0433
  147loPI   C2A 2344  12.662   7.147   9.313  0.5256  0.1334  0.0382
  147loPI   C3A 2345  12.579   7.145   8.890 -0.2301  0.0712 -0.0230
  147loPI   C4A 2346  12.648   7.052   8.509 -0.3284  0.0146 -0.0988
  147loPI   C5A 2347  12.357   6.969   8.187  0.0636  0.3954  0.1456
  147loPI   C6A 2348  12.268   7.050   7.800 -0.2470  0.1680  0.1236
  147loPI   C1B 2349  12.350   6.362   9.624 -0.1681 -0.1243  0.1125
  147loPI   C2B 2350  12.380   6.237   9.141  0.1138  0.1415  0.2006
  147loPI   C3B 2351  12.504   6.291   8.703 -0.0809 -0.2640 -0.0119
  147loPI   C4B 2352  12.508   6.539   8.301  0.1226  0.3003  0.2447
  148loPI    C1 2353   2.797   1.330  10.624  0.0542  0.1260 -0.0026
  148loPI    C2 2354   2.912   0.987  10.795  0.2175  0.1099 -0.1426
  148loPI    C3 2355   2.624   1.207  10.963  0.0142 -0.1647 -0.1251
  148loPI   PO4 2356   2.697   1.254  10.403 -0.3316  0.0943 -0.0349
  148loPI   GL1 2357   2.567   1.010  10.089 -0.3476 -0.0106  0.1537
  148loPI   GL2 2358   2.311   1.056  10.010  0.1329 -0.2158 -0.0546
  148loPI   C1A 2359   2.640   0.935   9.693  0.0030  0.0886 -0.0741
  148loPI   C2A 2360   2.675   0.933   9.357 -0.0532 -0.2427  0.3927
  148loPI   C3A 2361   2.716   0.767   8.922 -0.3529 -0.0576  0.0420
  148loPI   C4A 2362   2.663   0.863   8.553 -0.0469  0.1094  0.0371
  148loPI   C5A 2363   2.466   0.992   8.234  0.1321  0.0958  0.1645
  148loPI   C6A 2364   2.219   0.993   7.810 -0.1568  0.1773 -0.0527
  148loPI   C1B 2365   2.105   0.923   9.715 -0.1324  0.1131  0.1978
  148loPI   C2B 2366   2.175   0.794   9.331  0.1179  0.1819 -0.2135
  148loPI   C3B 2367   2.213   0.866   8.917 -0.0432 -0.0815  0.0039
  148loPI   C4B 2368   2.053   0.797   8.533  0.2347 -0.2704 -0.1818
  149loPI    C1 2369   7.987  17.567  10.678  0.0855  0.0526  0.0537
  149loPI    C2 2370   7.835  17.850  10.916  0.1485  0.0053  0.1510
  149loPI    C3 2371   8.230  17.825  10.862  0.1258  0.1106 -0.0796
  149loPI   PO4 2372   7.889  17.562  10.369 -0.2417  0.0148  0.0201
  149loPI   GL1 2373   7.675  17.356  10.022 -0.0412  0.1731  0.0227
  149loPI   GL2 2374   7.517  17.617  10.018 -0.3775  0.0290 -0.1598
  149loPI   C1A 2375   7.911  17.524   9.736 -0.2521 -0.2743  0.2326
  149loPI   C2A 2376   8.040  17.410   9.406  0.1529  0.1793 -0.1184
  149loPI   C3A 2377   8.165  17.472   9.007 -0.3902  0.0538  0.2321
  149loPI   C4A 2378   8.413  17.370   8.635  0.0596 -0.2070 -0.3231
  149loPI   C5A 2379   8.561  17.271   8.234  0.2755  0.3070 -0.1422
  149loPI   C6A 2380   8.518  17.275   7.769 -0.1010 -0.1338 -0.0043
  149loPI   C1B 2381   7.457  17.803   9.579  0.0139  0.0112  0.2936
  149loPI   C2B 2382   7.450  17.923   9.131  0.0883 -0.0014  0.2229
  149loPI   C3B 2383   7.437  18.078   8.780 -0.1562 -0.1895  0.1178
  149loPI   C4B 2384   7.675  18.081   8.351  0.2147 -0.2362  0.1088
  150loPI    C1 2385   1.968  17.950  10.264  0.2727 -0.0221 -0.1236
  150loPI    C2 2386   1.920  17.689  10.563  0.0097  0.0610 -0.0905
  150loPI    C3 2387   2.212  17.961  10.581 -0.1568  0.2246  0.2098
  150loPI   PO4 2388   2.014  17.842  10.084  0.1113 -0.2402 -0.1375
  150loPI   GL1 2389   2.068  18.040   9.724  0.0745  0.0482  0.2603
  150loPI   GL2 2390   2.117  18.383   9.863 -0.1165 -0.0078 -0.0324
  150loPI   C1A 2391   1.891  18.030   9.390 -0.0114 -0.3839 -0.0488
  150loPI   C2A 2392   1.920  18.063   9.005  0.1821  0.0761  0.2094
  150loPI   C3A 2393   1.660  17.834   8.799 -0.0345  0.0746 -0.1605
  150loPI   C4A 2394   1.506  17.790   8.414  0.0724  0.1345  0.2212
  150loPI   C5A 2395   1.159  17.685   8.405  0.1357  0.0441  0.0318
  150loPI   C6A 2396   0.910  17.405   8.333 -0.0663 -0.0228 -0.3288
  150loPI   C1B 2397   2.007  18.606   9.592  0.0843  0.3093 -0.3555
  150loPI   C2B 2398   2.051  18.550   9.246  0.1612  0.1469 -0.0234
  150loPI   C3B 2399   2.048  18.661   8.822 -0.2516 -0.0088 -0.0191
  150loPI   C4B 2400   2.076  18.326   8.641  0.1308 -0.0907  0.0563
  151loPI    C1 2401  16.367   4.110  10.510  0.0933 -0.0886 -0.0812
  151loPI    C2 2402  16.564   3.896  10.236  0.4115 -0.2407  0.2570
  151loPI    C3 2403  16.440   3.721  10.573 -0.2758 -0.1376  0.0725
  151loPI   PO4 2404  16.202   4.319  10.388 -0.0538 -0.0822  0.0576
  151loPI   GL1 2405  16.171   4.355  10.029 -0.2134 -0.0037 -0.0638
  151loPI   GL2 2406  16.344   4.662  10.037  0.2422 -0.0844  0.1889
  151loPI   C1A 2407  16.294   4.452   9.586  0.1952 -0.0109  0.2448
  151loPI   C2A 2408  16.336   4.452   9.170  0.3693  0.0646 -0.0417
  151loPI   C3A 2409  16.349   4.504   8.723  0.1054 -0.2074  0.0237
  151loPI   C4A 2410  16.283   4.392   8.241 -0.0414 -0.3363  0.0815
  151loPI   C5A 2411  16.182   4.133   7.959  0.0664 -0.3305  0.1688
  151loPI   C6A 2412  16.212   3.728   7.729 -0.2347  0.3076 -0.0222
  151loPI   C1B 2413  16.367   4.927   9.756  0.1734 -0.2578 -0.0885
  151loPI   C2B 2414  16.360   5.025   9.343 -0.0100 -0.0540  0.0786
  151loPI   C3B 2415  16.344   5.035   8.847  0.1252  0.0942  0.1947
  151loPI   C4B 2416  16.438   4.965   8.427  0.0354  0.0475  0.0926
  152loPI    C1 2417  12.754  11.126  10.412  0.0017  0.1633 -0.0654
  152loPI    C2 2418  12.789  10.943  10.058  0.0226 -0.1108  0.0757
  152loPI    C3 2419  12.426  11.010  10.214  0.0039  0.2107 -0.0970
  152loPI   PO4 2420  12.932  11.333  10.376 -0.1207  0.0565  0.3011
  152loPI   GL1 2421  13.077  11.481  10.049  0.0883  0.1476 -0.1577
  152loPI   GL2 2422  12.668  11.427   9.915 -0.0976  0.0098 -0.1267
  152loPI   C1A 2423  13.114  11.626   9.638  0.3285  0.2697  0.2512
  152loPI   C2A 2424  12.930  11.417   9.292  0.0864 -0.1618  0.1798
  152loPI   C3A 2425  12.805  11.217   8.870  0.3034 -0.0329  0.0606
  152loPI   C4A 2426  12.769  11.258   8.496  0.0516 -0.0128 -0.0882
  152loPI   C5A 2427  12.690  11.404   8.066  0.2209  0.4571 -0.2974
  152loPI   C6A 2428  13.010  11.241   7.899 -0.1824  0.0228  0.0192
  152loPI   C1B 2429  12.576  11.064   9.640 -0.1618  0.2419 -0.0846
  152loPI   C2B 2430  12.296  10.780   9.343  0.6422  0.2658  0.0263
  152loPI   C3B 2431  12.095  10.602   8.960 -0.0770 -0.2239 -0.2128
  152loPI   C4B 2432  12.203  10.482   8.514 -0.1288 -0.0870 -0.1759
  153loPI    C1 2433  10.480  13.060  10.374  0.0866 -0.1415  0.1041
  153loPI    C2 2434  10.400  13.442  10.283  0.0088 -0.1830 -0.0051
  153loPI    C3 2435  10.602  13.353  10.617 -0.1175 -0.0562  0.1064
  153loPI   PO4 2436  10.563  12.926  10.083  0.2980 -0.0162 -0.0733
  153loPI   GL1 2437  10.503  12.660   9.884 -0.0363 -0.2063  0.0986
  153loPI   GL2 2438  10.160  12.582   9.909 -0.0753  0.1408 -0.1254
  153loPI   C1A 2439  10.583  12.663   9.497  0.1628  0.0871 -0.0802
  153loPI   C2A 2440  10.771  12.558   9.105  0.0443 -0.0908  0.0119
  153loPI   C3A 2441  10.537  12.324   8.753 -0.0373  0.3278 -0.1026
  153loPI   C4A 2442  10.422  12.243   8.356  0.0194  0.2590 -0.1898
  153loPI   C5A 2443  10.390  12.077   7.955 -0.0342 -0.2552  0.4441
  153loPI   C6A 2444  10.695  12.039   7.646 -0.0508 -0.3449 -0.1619
  153loPI   C1B 2445  10.109  12.807   9.466  0.0515  0.1864 -0.2188
  153loPI   C2B 2446  10.303  12.820   9.066  0.1791 -0.1184  0.0392
  153loPI   C3B 2447  10.269  12.679   8.584 -0.2196 -0.2233 -0.0603
  153loPI   C4B 2448  10.374  12.623   8.104 -0.2303 -0.0309  0.1555
  154loPI    C1 2449  15.157  16.913  10.450  0.0047 -0.0709  0.1844
  154loPI    C2 2450  14.806  17.011  10.613 -0.0947  0.0292 -0.0839
  154loPI    C3 2451  14.983  16.666  10.712 -0.1711  0.0692  0.2010
  154loPI   PO4 2452  15.135  16.990  10.190  0.4327  0.0249 -0.0484
  154loPI   GL1 2453  15.447  17.157  10.047 -0.0709  0.0110  0.1929
  154loPI   GL2 2454  15.344  16.921   9.729 -0.0714 -0.1034  0.0707
  154loPI   C1A 2455  15.607  17.388   9.605 -0.1269 -0.0474  0.3264
  154loPI   C2A 2456  15.532  17.394   9.218  0.1562 -0.0321 -0.1359
  154loPI   C3A 2457  15.283  17.394   8.825 -0.1511 -0.2290  0.0421
  154loPI   C4A 2458  15.251  17.768   8.583 -0.2557 -0.1597 -0.1701
  154loPI   C5A 2459  15.110  18.202   8.633  0.0987  0.1920 -0.1965
  154loPI   C6A 2460  15.262  18.667   8.784  0.0966  0.4707 -0.3283
  154loPI   C1B 2461  15.325  16.936   9.320  0.0688  0.2634  0.0413
  154loPI   C2B 2462  15.373  16.922   8.848  0.0502  0.1964 -0.3378
  154loPI   C3B 2463  15.018  16.625   8.602  0.0132 -0.0066 -0.0108
  154loPI   C4B 2464  15.071  16.400   8.244 -0.0485  0.2631 -0.0712
  155loPI    C1 2465  15.604  12.422  10.504  0.0140  0.1543  0.1740
  155loPI    C2 2466  15.979  12.395  10.369 -0.0590  0.2166 -0.0455
  155loPI    C3 2467  15.877  12.218  10.712  0.1735  0.2103  0.0222
  155loPI   PO4 2468  15.489  12.441  10.239 -0.2311  0.2573 -0.0690
  155loPI   GL1 2469  15.664  12.338   9.864  0.1449  0.0672  0.0219
  155loPI   GL2 2470  15.266  12.421   9.756  0.1891 -0.0960  0.2060
  155loPI   C1A 2471  15.758  12.339   9.414  0.1095  0.3398  0.2058
  155loPI   C2A 2472  15.768  12.418   8.944  0.2519  0.1306  0.0456
  155loPI   C3A 2473  15.733  12.316   8.561 -0.0381  0.1100 -0.0350
  155loPI   C4A 2474  15.675  12.348   8.098  0.1270 -0.4294  0.0959
  155loPI   C5A 2475  15.644  12.085   7.814 -0.0883 -0.0775 -0.0142
  155loPI   C6A 2476  15.916  11.818   7.628 -0.4024  0.1398  0.0892
  155loPI   C1B 2477  15.250  12.467   9.270  0.0360 -0.1499  0.1315
  155loPI   C2B 2478  15.251  12.420   8.847 -0.0334 -0.1143  0.0526
  155loPI   C3B 2479  15.231  12.245   8.468  0.0457 -0.0226 -0.1034
  155loPI   C4B 2480  15.155  12.111   8.063  0.1024  0.1948 -0.2518
  156loPI    C1 2481   3.532  13.636  10.340 -0.1153 -0.2180  0.0342
  156loPI    C2 2482   3.235  13.825  10.151  0.0772 -0.2014 -0.2594
  156loPI    C3 2483   3.329  13.925  10.527 -0.1296 -0.0419 -0.2481
  156loPI   PO4 2484   3.690  13.588  10.139  0.1038 -0.0796 -0.0119
  156loPI   GL1 2485   3.913  13.567   9.712 -0.1257  0.0224 -0.0446
  156loPI   GL2 2486   4.319  13.391   9.701  0.1502 -0.2104  0.0765
  156loPI   C1A 2487   3.686  13.397   9.431 -0.0436 -0.0161 -0.0977
  156loPI   C2A 2488   3.624  13.202   9.141  0.0596  0.3621 -0.1298
  156loPI   C3A 2489   3.740  12.891   8.892  0.1094  0.0900 -0.1304
  156loPI   C4A 2490   3.608  12.775   8.548  0.4439  0.2447  0.2045
  156loPI   C5A 2491   3.538  12.692   8.139 -0.0626 -0.1100  0.0272
  156loPI   C6A 2492   3.617  13.051   7.814 -0.1163  0.0506  0.1351
  156loPI   C1B 2493   4.169  13.254   9.287  0.0797  0.0185  0.0796
  156loPI   C2B 2494   4.309  13.017   8.923  0.2019  0.1584  0.0523
  156loPI   C3B 2495   4.439  12.897   8.486 -0.1156  0.0214  0.1117
  156loPI   C4B 2496   4.586  13.139   8.116  0.1497 -0.2021 -0.1233
  157loPI    C1 2497  13.389   0.597  10.525  0.0307  0.0059  0.2333
  157loPI    C2 2498  13.359   0.963  10.685 -0.0070  0.0790  0.0618
  157loPI    C3 2499  13.029   0.750  10.608  0.0209 -0.0541  0.3011
  157loPI   PO4 2500  13.468   0.610  10.271 -0.2324 -0.0319 -0.0161
  157loPI   GL1 2501  13.324   0.750   9.777 -0.3942 -0.1873  0.1942
  157loPI   GL2 2502  13.675   0.917   9.941 -0.3631  0.1322 -0.0809
  157loPI   C1A 2503  12.993   0.698   9.516  0.1491  0.0155  0.1017
  157loPI   C2A 2504  12.673   0.516   9.280  0.1574  0.1197  0.1217
  157loPI   C3A 2505  12.342   0.564   9.019 -0.3622 -0.1646  0.2541
  157loPI   C4A 2506  12.162   0.542   8.637  0.3313 -0.0989  0.1566
  157loPI   C5A 2507  11.978   0.640   8.308  0.2372  0.1522 -0.0664
  157loPI   C6A 2508  11.890   0.306   7.991 -0.0214 -0.0915 -0.2193
  157loPI   C1B 2509  14.094   0.860   9.730 -0.1221  0.2948  0.0333
  157loPI   C2B 2510  14.166   0.884   9.311 -0.0990  0.1748 -0.0059
  157loPI   C3B 2511  14.069   1.110   8.906 -0.7134 -0.0357  0.4779
  157loPI   C4B 2512  13.868   1.356   8.724 -0.1311 -0.2958 -0.1493
  158loPI    C1 2513   2.081   2.023  10.169  0.0161  0.0840  0.1459
  158loPI    C2 2514   2.061   1.668  10.352 -0.0720  0.0690  0.1079
  158loPI    C3 2515   1.816   1.964  10.463 -0.1911  0.0305 -0.0478
  158loPI   PO4 2516   2.133   2.079   9.818  0.1305  0.1301  0.1021
  158loPI   GL1 2517   2.012   1.783   9.602  0.0619  0.3485  0.3239
  158loPI   GL2 2518   1.895   1.544   9.874 -0.0668  0.1901 -0.0142
  158loPI   C1A 2519   1.870   1.671   9.223 -0.0411  0.1177  0.3339
  158loPI   C2A 2520   1.912   1.853   8.800  0.1087  0.2781 -0.1158
  158loPI   C3A 2521   1.854   1.615   8.424  0.2440  0.1694 -0.0733
  158loPI   C4A 2522   1.605   1.664   8.105  0.3809 -0.2022  0.0208
  158loPI   C5A 2523   1.324   1.901   7.911 -0.0057 -0.0936 -0.0924
  158loPI   C6A 2524   1.422   1.847   7.530  0.0758 -0.0652 -0.0412
  158loPI   C1B 2525   1.754   1.291   9.617  0.2363  0.1004 -0.0396
  158loPI   C2B 2526   1.790   1.146   9.297 -0.0464  0.0733  0.3263
  158loPI   C3B 2527   1.742   1.322   8.858  0.1712  0.0200 -0.2791
  158loPI   C4B 2528   1.711   1.136   8.490 -0.1260 -0.0503 -0.2952
  159loPI    C1 2529  11.416  10.432  10.103  0.0282  0.0015 -0.2280
  159loPI    C2 2530  11.612  10.518  10.441 -0.2271 -0.1765 -0.0313
  159loPI    C3 2531  11.798  10.550  10.089  0.0632 -0.0571  0.1297
  159loPI   PO4 2532  11.168  10.272  10.271  0.1168  0.1736 -0.1930
  159loPI   GL1 2533  11.003   9.889   9.977 -0.1722 -0.2230  0.0422
  159loPI   GL2 2534  11.052  10.239   9.718  0.0031 -0.2719 -0.3098
  159loPI   C1A 2535  10.762   9.764   9.593 -0.0152  0.0654 -0.2057
  159loPI   C2A 2536  10.781   9.629   9.183 -0.0005 -0.1024 -0.2939
  159loPI   C3A 2537  10.732   9.519   8.721  0.0301  0.0861  0.1758
  159loPI   C4A 2538  10.689   9.472   8.297  0.1142 -0.0832  0.1327
  159loPI   C5A 2539  10.645   9.649   7.831  0.0016  0.2884  0.3390
  159loPI   C6A 2540  10.711  10.051   7.782  0.1447  0.0760 -0.1292
  159loPI   C1B 2541  11.354  10.067   9.447  0.0614 -0.0951 -0.1779
  159loPI   C2B 2542  11.133  10.041   9.023 -0.1354 -0.1824  0.0345
  159loPI   C3B 2543  10.896   9.971   8.717 -0.1754  0.0580 -0.1331
  159loPI   C4B 2544  10.871   9.915   8.227  0.1482 -0.0281  0.2052
  160loPI    C1 2545  12.460   1.967  10.526 -0.1353  0.1416 -0.3909
  160loPI    C2 2546  12.412   2.357  10.601 -0.0578  0.0603  0.1214
  160loPI    C3 2547  12.779   2.197  10.598 -0.0813  0.0051 -0.1854
  160loPI   PO4 2548  12.285   1.872  10.375  0.2444  0.3145 -0.1163
  160loPI   GL1 2549  12.288   1.856   9.910 -0.0150  0.2791 -0.1719
  160loPI   GL2 2550  11.937   2.001  10.007  0.2870 -0.1958  0.2697
  160loPI   C1A 2551  12.364   2.202   9.593  0.1319 -0.1162  0.0584
  160loPI   C2A 2552  12.315   2.343   9.122  0.1095  0.0812 -0.2304
  160loPI   C3A 2553  12.431   2.491   8.702 -0.0752  0.2228 -0.2814
  160loPI   C4A 2554  12.576   2.212   8.382 -0.1520  0.0917  0.0803
  160loPI   C5A 2555  12.643   1.822   8.307 -0.0682  0.1570 -0.0585
  160loPI   C6A 2556  12.767   1.383   8.484  0.1005 -0.1343  0.2016
  160loPI   C1B 2557  11.865   2.005   9.596  0.1635 -0.2235 -0.3170
  160loPI   C2B 2558  11.843   2.065   9.189 -0.1983  0.0846 -0.2048
  160loPI   C3B 2559  11.812   1.827   8.778 -0.1315  0.1437  0.2391
  160loPI   C4B 2560  11.565   1.537   8.472 -0.4459 -0.0879 -0.1220
  161loPI    C1 2561  13.830  17.959  10.586 -0.2844 -0.1547  0.0370
  161loPI    C2 2562  13.715  17.588  10.492 -0.1494 -0.2281  0.1569
  161loPI    C3 2563  13.747  17.696  10.876 -0.0802 -0.1267  0.1229
  161loPI   PO4 2564  14.030  18.068  10.536 -0.1375 -0.1692  0.0408
  161loPI   GL1 2565  14.350  17.889  10.222  0.0691  0.1475  0.1657
  161loPI   GL2 2566  14.138  17.612  10.230  0.0880 -0.0914  0.1770
  161loPI   C1A 2567  14.322  18.016   9.785 -0.0422  0.0148  0.2073
  161loPI   C2A 2568  14.395  18.278   9.375  0.1398  0.1674 -0.0196
  161loPI   C3A 2569  14.208  18.270   8.918 -0.1462 -0.0399 -0.1125
  161loPI   C4A 2570  14.192  18.412   8.467  0.3647 -0.1666  0.0033
  161loPI   C5A 2571  14.282  18.000   8.293 -0.2991  0.3874  0.0199
  161loPI   C6A 2572  14.437  17.652   8.440  0.0489  0.0857 -0.2916
  161loPI   C1B 2573  13.964  17.643   9.817  0.0136 -0.1900  0.1304
  161loPI   C2B 2574  13.831  18.041   9.502  0.1020  0.0111 -0.2519
  161loPI   C3B 2575  13.691  18.080   9.163 -0.1394 -0.0319 -0.1620
  161loPI   C4B 2576  13.774  18.059   8.712  0.1613  0.2667 -0.0323
  162loPI    C1 2577   0.803   6.238  10.469  0.0588 -0.0661  0.0693
  162loPI    C2 2578   0.639   6.419  10.786 -0.0844 -0.1066  0.0192
  162loPI    C3 2579   1.000   6.249  10.817 -0.0461 -0.0068  0.1272
  162loPI   PO4 2580   0.801   6.507  10.253 -0.0562 -0.0608 -0.0734
  162loPI   GL1 2581   1.005   6.480   9.888 -0.0379  0.2821 -0.2150
  162loPI   GL2 2582   1.014   6.807   9.740 -0.0114  0.3818 -0.2653
  162loPI   C1A 2583   0.967   6.372   9.451  0.5121 -0.0590 -0.0346
  162loPI   C2A 2584   1.039   6.322   8.972 -0.0640  0.4212  0.0029
  162loPI   C3A 2585   1.195   6.520   8.626  0.1565  0.1216 -0.3028
  162loPI   C4A 2586   1.315   6.512   8.193  0.3908  0.1897 -0.0400
  162loPI   C5A 2587   1.143   6.264   7.826 -0.1900 -0.2633  0.3813
  162loPI   C6A 2588   1.152   5.885   7.557  0.0159  0.0010  0.1622
  162loPI   C1B 2589   1.211   6.854   9.321  0.2110  0.4262 -0.0844
  162loPI   C2B 2590   1.313   6.936   8.891 -0.1378  0.3035 -0.0450
  162loPI   C3B 2591   1.204   7.017   8.466  0.5595  0.0383 -0.0791
  162loPI   C4B 2592   1.154   7.238   7.995  0.0101 -0.0989  0.1775
  163loPI    C1 2593   9.801   3.450  10.757  0.0908  0.1097 -0.3037
  163loPI    C2 2594   9.748   3.835  10.663 -0.2264  0.1227 -0.0903
  163loPI    C3 2595   9.582   3.686  10.995  0.1089 -0.1387 -0.0342
  163loPI   PO4 2596  10.088   3.438  10.661  0.0655  0.1044 -0.0030
  163loPI   GL1 2597  10.068   3.541  10.277 -0.2484  0.2178  0.0322
  163loPI   GL2 2598   9.666   3.523  10.263 -0.4134  0.1874 -0.0224
  163loPI   C1A 2599  10.363   3.359  10.025 -0.0749 -0.0284 -0.0766
  163loPI   C2A 2600  10.388   3.284   9.679  0.0505 -0.0310  0.0030
  163loPI   C3A 2601  10.352   3.159   9.248  0.2043  0.2890  0.1705
  163loPI   C4A 2602  10.346   3.085   8.824  0.0648 -0.1039 -0.1100
  163loPI   C5A 2603  10.293   2.909   8.434 -0.1752  0.2953  0.0638
  163loPI   C6A 2604  10.537   2.595   8.196  0.0817  0.2502 -0.0760
  163loPI   C1B 2605   9.916   3.460   9.827  0.0180 -0.0361 -0.2777
  163loPI   C2B 2606   9.881   3.411   9.500 -0.0247  0.2080 -0.1000
  163loPI   C3B 2607   9.856   3.375   9.032 -0.2474  0.0581 -0.0254
  163loPI   C4B 2608   9.910   3.284   8.597  0.2460 -0.0527  0.1058
  164loPI    C1 2609  13.266  16.795  10.514 -0.0555  0.0999  0.0800
  164loPI    C2 2610  13.082  16.825  10.868  0.0605 -0.0168  0.1510
  164loPI    C3 2611  13.233  16.474  10.750 -0.0960 -0.0104 -0.0744
  164loPI   PO4 2612  13.187  16.871  10.318 -0.0934 -0.0712 -0.1859
  164loPI   GL1 2613  13.415  17.291  10.182 -0.0561  0.4980  0.1005
  164loPI   GL2 2614  13.502  17.123  10.013 -0.1077  0.3046  0.0292
  164loPI   C1A 2615  13.490  17.562   9.764 -0.0796 -0.2255 -0.1758
  164loPI   C2A 2616  13.609  17.620   9.394 -0.2007  0.2276  0.0592
  164loPI   C3A 2617  13.522  17.597   8.971  0.1577 -0.1221  0.4002
  164loPI   C4A 2618  13.275  17.357   8.560  0.0969 -0.0880  0.1096
  164loPI   C5A 2619  12.962  17.376   8.210 -0.3728 -0.0662 -0.0728
  164loPI   C6A 2620  12.843  17.523   7.771 -0.1474 -0.0025 -0.0407
  164loPI   C1B 2621  13.389  17.138   9.572  0.3202 -0.2373  0.2029
  164loPI   C2B 2622  13.414  17.174   9.174  0.3816 -0.0910  0.1376
  164loPI   C3B 2623  13.355  16.858   8.719 -0.0350  0.0188 -0.1172
  164loPI   C4B 2624  13.639  16.944   8.442  0.1557  0.0793  0.5422
  165loPI    C1 2625   1.566   0.092  10.408 -0.3029 -0.0425  0.0619
  165loPI    C2 2626   1.701  -0.157  10.691 -0.0786  0.1629  0.1392
  165loPI    C3 2627   1.590   0.215  10.788 -0.3373  0.1217  0.0115
  165loPI   PO4 2628   1.575   0.060  10.136  0.0379  0.1665 -0.1181
  165loPI   GL1 2629   1.465  -0.135   9.815  0.1464 -0.1317 -0.0822
  165loPI   GL2 2630   1.304  -0.389   9.692  0.1566 -0.2814 -0.1259
  165loPI   C1A 2631   1.529   0.046   9.436 -0.1701 -0.0833  0.3950
  165loPI   C2A 2632   1.574   0.163   8.938 -0.2437 -0.2486  0.2588
  165loPI   C3A 2633   1.485   0.007   8.526  0.0774  0.1463  0.0578
  165loPI   C4A 2634   1.328  -0.159   8.086  0.0033 -0.1631 -0.2278
  165loPI   C5A 2635   1.196  -0.456   7.880  0.0368  0.0267  0.1020
  165loPI   C6A 2636   0.786  -0.602   7.894 -0.1800 -0.0335 -0.0126
  165loPI   C1B 2637   1.390  -0.450   9.257 -0.1118  0.0841 -0.2164
  165loPI   C2B 2638   1.229  -0.676   8.917  0.4695  0.1508 -0.2778
  165loPI   C3B 2639   1.313  -0.999   8.660 -0.1226 -0.0902 -0.0270
  165loPI   C4B 2640   1.438  -1.098   8.192  0.0571  0.0030 -0.0710
  166loPI    C1 2641   0.314   3.805  10.661 -0.0582 -0.1429 -0.0896
  166loPI    C2 2642   0.482   3.993  10.972  0.1030  0.0134 -0.2688
  166loPI    C3 2643   0.112   3.845  11.004  0.1924 -0.1478  0.0613
  166loPI   PO4 2644   0.387   3.991  10.403 -0.0103  0.1677  0.0609
  166loPI   GL1 2645   0.273   3.909  10.030  0.1123  0.0239 -0.0383
  166loPI   GL2 2646  -0.033   3.941  10.133  0.2010  0.0796 -0.0593
  166loPI   C1A 2647   0.311   4.096   9.623  0.0138  0.1441 -0.3291
  166loPI   C2A 2648   0.210   4.107   9.137  0.0972 -0.1905 -0.0517
  166loPI   C3A 2649   0.249   4.075   8.707 -0.1422  0.3476 -0.0022
  166loPI   C4A 2650   0.214   4.010   8.151 -0.0012 -0.1660 -0.1498
  166loPI   C5A 2651  -0.058   4.203   7.705  0.2134  0.0496  0.0044
  166loPI   C6A 2652   0.023   4.257   7.261 -0.1003  0.0050  0.0191
  166loPI   C1B 2653  -0.122   3.781   9.756  0.1931 -0.0355 -0.2168
  166loPI   C2B 2654  -0.171   3.917   9.456  0.0984  0.3207 -0.3126
  166loPI   C3B 2655  -0.215   3.860   8.935  0.1613  0.1661 -0.0621
  166loPI   C4B 2656  -0.212   3.823   8.473  0.2357  0.1134 -0.0529
  167loPI    C1 2657   8.830   8.068  10.048 -0.1472 -0.2674 -0.1883
  167loPI    C2 2658   8.539   7.939  10.290 -0.1411  0.1212  0.0350
  167loPI    C3 2659   8.828   8.176  10.433  0.1841 -0.1063 -0.2278
  167loPI   PO4 2660   8.812   7.864   9.875  0.1004 -0.3899  0.1746
  167loPI   GL1 2661   9.058   8.082   9.508 -0.1009  0.3759 -0.0971
  167loPI   GL2 2662   9.329   8.024   9.442 -0.0344  0.0961 -0.0340
  167loPI   C1A 2663   8.901   8.060   9.118 -0.2694 -0.2095  0.2208
  167loPI   C2A 2664   8.620   7.976   8.799  0.1457 -0.2325  0.2169
  167loPI   C3A 2665   8.440   7.661   8.544  0.2827  0.3391  0.2087
  167loPI   C4A 2666   8.450   7.418   8.144 -0.3790  0.3122  0.0139
  167loPI   C5A 2667   8.534   7.313   7.783  0.0817  0.2284  0.0584
  167loPI   C6A 2668   8.919   7.163   7.481  0.4437  0.0727 -0.0804
  167loPI   C1B 2669   9.342   8.126   8.973 -0.4011  0.3937  0.1932
  167loPI   C2B 2670   9.160   8.139   8.531  0.0879  0.0050  0.0585
  167loPI   C3B 2671   8.832   7.949   8.339 -0.1361 -0.1976 -0.1613
  167loPI   C4B 2672   8.689   7.876   7.992  0.0653 -0.1695 -0.1648
  168loPI    C1 2673   9.117  11.383  10.397  0.0831  0.1670  0.0556
  168loPI    C2 2674   8.960  11.716  10.553 -0.0828  0.1491 -0.0707
  168loPI    C3 2675   8.722  11.441  10.387  0.0663  0.0329 -0.0945
  168loPI   PO4 2676   9.391  11.476  10.314 -0.2752 -0.1501  0.0832
  168loPI   GL1 2677   9.584  11.746  10.007 -0.1796 -0.0866  0.1317
  168loPI   GL2 2678   9.824  11.530   9.985 -0.0491  0.0857 -0.1519
  168loPI   C1A 2679   9.489  11.730   9.645  0.0573 -0.0328  0.4457
  168loPI   C2A 2680   9.566  11.793   9.256 -0.0848  0.1610 -0.2091
  168loPI   C3A 2681   9.674  11.932   8.763  0.1826 -0.0943  0.0744
  168loPI   C4A 2682   9.501  11.880   8.423 -0.1794  0.0032  0.3129
  168loPI   C5A 2683   9.347  11.913   8.037 -0.2188 -0.0300  0.3670
  168loPI   C6A 2684   9.157  11.997   7.674  0.2287 -0.0075 -0.0376
  168loPI   C1B 2685  10.096  11.307   9.585 -0.1422 -0.2018 -0.0660
  168loPI   C2B 2686  10.370  11.411   9.310  0.1841  0.0923 -0.0514
  168loPI   C3B 2687  10.371  11.485   8.908  0.0063  0.1332 -0.1281
  168loPI   C4B 2688  10.413  11.322   8.551 -0.1710 -0.0137  0.0823
  169loPI    C1 2689   2.925   1.681  10.957 -0.1318  0.2310  0.0918
  169loPI    C2 2690   3.114   1.985  11.135 -0.1718  0.2238  0.1467
  169loPI    C3 2691   2.733   2.027  11.021 -0.1635  0.2094  0.1136
  169loPI   PO4 2692   3.113   1.675  10.655 -0.1173  0.0260  0.0649
  169loPI   GL1 2693   3.109   1.596  10.153 -0.2356  0.0012  0.0699
  169loPI   GL2 2694   2.887   1.399   9.937  0.3334 -0.0221  0.0440
  169loPI   C1A 2695   3.278   1.516   9.746 -0.3199 -0.0623  0.2851
  169loPI   C2A 2696   3.325   1.560   9.196  0.0153  0.1181 -0.0694
  169loPI   C3A 2697   3.462   1.254   8.985  0.1378 -0.0317 -0.1357
  169loPI   C4A 2698   3.654   0.878   8.719  0.0774 -0.1801  0.0043
  169loPI   C5A 2699   3.699   0.873   8.170  0.2357  0.3039 -0.1778
  169loPI   C6A 2700   3.536   0.919   7.861  0.3269 -0.1219 -0.0031
  169loPI   C1B 2701   2.898   1.348   9.405  0.1649 -0.0330 -0.0963
  169loPI   C2B 2702   2.973   1.290   9.010 -0.1411 -0.0035  0.2066
  169loPI   C3B 2703   3.142   1.023   8.645  0.0158 -0.0376 -0.0480
  169loPI   C4B 2704   3.024   0.992   8.209 -0.0707 -0.0849 -0.0505
  170loPI    C1 2705  13.236   7.475  10.547  0.0920 -0.0505 -0.0543
  170loPI    C2 2706  13.111   7.297  10.882  0.0184 -0.1257 -0.1212
  170loPI    C3 2707  13.449   7.177  10.706  0.2144  0.1105  0.0869
  170loPI   PO4 2708  13.039   7.544  10.416  0.1107  0.1074  0.2977
  170loPI   GL1 2709  12.870   7.457  10.051 -0.0723 -0.2569 -0.1227
  170loPI   GL2 2710  13.162   7.325   9.964  0.1506 -0.0787  0.0666
  170loPI   C1A 2711  12.804   7.549   9.597 -0.1597 -0.2346 -0.3016
  170loPI   C2A 2712  12.668   7.669   9.175 -0.1385 -0.0162  0.0525
  170loPI   C3A 2713  12.695   7.635   8.731  0.0366  0.0753 -0.2190
  170loPI   C4A 2714  12.662   7.624   8.360 -0.0546 -0.0528  0.1499
  170loPI   C5A 2715  12.781   7.835   8.020 -0.0945  0.0651  0.1384
  170loPI   C6A 2716  12.517   8.167   7.730  0.3434 -0.0271 -0.0703
  170loPI   C1B 2717  13.177   7.204   9.508  0.0053  0.0945 -0.1400
  170loPI   C2B 2718  13.040   7.364   9.046 -0.0194 -0.0373 -0.0731
  170loPI   C3B 2719  13.098   7.302   8.548  0.2848 -0.2434  0.1366
  170loPI   C4B 2720  13.175   7.359   8.097  0.0815 -0.1391  0.0534
  171loPI    C1 2721   5.688   0.178  10.843 -0.2940  0.0508 -0.1216
  171loPI    C2 2722   5.797  -0.152  11.041  0.2030  0.1636 -0.1943
  171loPI    C3 2723   5.813   0.205  11.222 -0.2536  0.1642 -0.1425
  171loPI   PO4 2724   5.877   0.185  10.629 -0.1066  0.1509  0.2746
  171loPI   GL1 2725   5.927   0.353  10.254 -0.2025 -0.1133 -0.0033
  171loPI   GL2 2726   6.138   0.713  10.219  0.0005 -0.1817 -0.0821
  171loPI   C1A 2727   5.869   0.316   9.841  0.1008 -0.1232 -0.2751
  171loPI   C2A 2728   5.884   0.299   9.386 -0.2938  0.0015  0.4212
  171loPI   C3A 2729   5.969   0.210   8.883 -0.1013  0.3411  0.1643
  171loPI   C4A 2730   5.835   0.287   8.469 -0.0012 -0.1297 -0.1641
  171loPI   C5A 2731   5.562   0.441   8.183  0.1882  0.3915 -0.1191
  171loPI   C6A 2732   5.212   0.513   7.929 -0.2672 -0.0318  0.0774
  171loPI   C1B 2733   6.035   0.824   9.875  0.0578  0.4129 -0.1178
  171loPI   C2B 2734   6.047   0.814   9.437 -0.2243  0.3388 -0.4892
  171loPI   C3B 2735   5.996   0.682   9.072 -0.0004  0.0426  0.1892
  171loPI   C4B 2736   5.711   0.797   8.690  0.1478  0.0046  0.1466
  172loPI    C1 2737   4.537  13.330  10.316 -0.1082 -0.1881 -0.1451
  172loPI    C2 2738   4.922  13.385  10.412 -0.1085 -0.1009 -0.1932
  172loPI    C3 2739   4.675  13.208  10.672 -0.1230  0.1871 -0.0067
  172loPI   PO4 2740   4.583  13.206  10.085 -0.2942 -0.1051 -0.0570
  172loPI   GL1 2741   4.857  13.125   9.856 -0.0771  0.1543 -0.0276
  172loPI   GL2 2742   5.087  12.977   9.840  0.1069  0.1105 -0.4193
  172loPI   C1A 2743   4.774  13.438   9.429 -0.0547  0.1018 -0.3915
  172loPI   C2A 2744   4.522  13.505   9.004  0.0482  0.1648 -0.1988
  172loPI   C3A 2745   4.485  13.473   8.527  0.0650 -0.1953 -0.3173
  172loPI   C4A 2746   4.234  13.447   8.234 -0.0181 -0.0744 -0.1607
  172loPI   C5A 2747   4.032  13.010   8.118 -0.1041 -0.1871 -0.3232
  172loPI   C6A 2748   4.227  12.506   8.162 -0.0214 -0.3958 -0.1824
  172loPI   C1B 2749   5.090  13.057   9.358  0.1012  0.2879  0.1509
  172loPI   C2B 2750   5.310  13.014   8.993  0.2965  0.2419 -0.3840
  172loPI   C3B 2751   5.416  13.237   8.584 -0.0578  0.1047  0.0024
  172loPI   C4B 2752   5.580  13.079   8.135 -0.0940 -0.1676 -0.1405
  173loPI    C1 2753   1.610   3.399  10.903 -0.1591 -0.1402  0.1077
  173loPI    C2 2754   1.325   3.471  11.175  0.0084  0.0319  0.2408
  173loPI    C3 2755   1.623   3.217  11.259 -0.2408 -0.3491  0.0056
  173loPI   PO4 2756   1.485   3.321  10.695 -0.1337 -0.0652  0.1371
  173loPI   GL1 2757   1.590   3.291  10.317  0.0040  0.1371  0.1769
  173loPI   GL2 2758   1.277   3.254  10.203 -0.1687  0.1957  0.4518
  173loPI   C1A 2759   1.624   3.051   9.952  0.3920  0.2483 -0.3289
  173loPI   C2A 2760   1.543   3.175   9.559  0.0746  0.2560 -0.0902
  173loPI   C3A 2761   1.507   3.155   9.146 -0.1412  0.0734 -0.1107
  173loPI   C4A 2762   1.537   3.158   8.765 -0.2271 -0.0678 -0.1632
  173loPI   C5A 2763   1.440   3.128   8.414  0.1329 -0.0660  0.0132
  173loPI   C6A 2764   1.680   2.933   8.134 -0.0144 -0.3498  0.3311
  173loPI   C1B 2765   1.183   3.470   9.826  0.0239 -0.4574 -0.0699
  173loPI   C2B 2766   1.141   3.521   9.390  0.0806 -0.0039 -0.2721
  173loPI   C3B 2767   1.133   3.442   9.018 -0.1144  0.3092  0.0547
  173loPI   C4B 2768   1.059   3.441   8.617  0.0945  0.1510  0.1852
  174loPI    C1 2769   8.832  14.150  10.471 -0.0807  0.0079 -0.0772
  174loPI    C2 2770   8.571  14.439  10.562  0.1163  0.1615  0.0079
  174loPI    C3 2771   8.596  14.114  10.792 -0.1090  0.0723 -0.0905
  174loPI   PO4 2772   8.765  14.108  10.245 -0.0569  0.4149 -0.0413
  174loPI   GL1 2773   8.747  13.970   9.830  0.1251  0.1648  0.0175
  174loPI   GL2 2774   8.962  14.113   9.759  0.2516 -0.2045  0.0865
  174loPI   C1A 2775   8.621  14.133   9.401 -0.1781  0.3960 -0.1921
  174loPI   C2A 2776   8.536  13.991   8.978 -0.2637  0.1617 -0.3675
  174loPI   C3A 2777   8.436  14.106   8.533  0.0388 -0.0361 -0.3170
  174loPI   C4A 2778   8.634  14.182   8.208  0.0870 -0.3018 -0.1059
  174loPI   C5A 2779   8.768  14.040   7.868 -0.1520 -0.1690 -0.0704
  174loPI   C6A 2780   9.251  14.009   7.802 -0.0251  0.1208 -0.1371
  174loPI   C1B 2781   9.126  14.071   9.332  0.2817  0.2199 -0.0418
  174loPI   C2B 2782   9.275  13.999   8.922  0.0469 -0.3898  0.3497
  174loPI   C3B 2783   9.463  13.817   8.640  0.0185 -0.1429 -0.0074
  174loPI   C4B 2784   9.467  13.651   8.170  0.2063 -0.0270  0.2185
  175loPI    C1 2785  16.079  11.714  10.617 -0.0213  0.2046 -0.0309
  175loPI    C2 2786  16.403  11.508  10.728 -0.1521 -0.0600 -0.1300
  175loPI    C3 2787  16.354  11.885  10.851  0.3087  0.0653 -0.3076
  175loPI   PO4 2788  16.012  11.569  10.383  0.2495 -0.0363 -0.2416
  175loPI   GL1 2789  16.003  11.423  10.002 -0.1614 -0.2491  0.0754
  175loPI   GL2 2790  15.725  11.501   9.991  0.1794  0.0151  0.3052
  175loPI   C1A 2791  16.173  11.469   9.624  0.1637 -0.1792 -0.1164
  175loPI   C2A 2792  16.166  11.364   9.272  0.1789  0.0370 -0.1257
  175loPI   C3A 2793  16.163  11.420   8.848  0.0721 -0.0348  0.0916
  175loPI   C4A 2794  16.051  11.341   8.432  0.1931  0.0788 -0.1409
  175loPI   C5A 2795  16.215  11.319   8.025  0.1420  0.1014 -0.1652
  175loPI   C6A 2796  16.368  11.665   7.831  0.2144 -0.1577  0.1214
  175loPI   C1B 2797  15.698  11.431   9.541  0.3152  0.0780  0.1678
  175loPI   C2B 2798  15.725  11.409   9.107  0.1320  0.0594  0.0128
  175loPI   C3B 2799  15.604  11.384   8.661  0.0195 -0.3929  0.1978
  175loPI   C4B 2800  15.560  11.310   8.271  0.1280 -0.0331 -0.0418
  176loPI    C1 2801  14.241  12.409  10.671 -0.0439 -0.1366  0.1450
  176loPI    C2 2802  14.318  12.731  10.896 -0.2694 -0.1253  0.2081
  176loPI    C3 2803  13.993  12.508  10.969 -0.3480 -0.1190 -0.1091
  176loPI   PO4 2804  14.471  12.409  10.467 -0.5053 -0.0364 -0.0793
  176loPI   GL1 2805  14.597  12.474   9.939  0.1094 -0.1697 -0.1673
  176loPI   GL2 2806  14.401  12.665   9.685 -0.1119 -0.3912 -0.2489
  176loPI   C1A 2807  14.915  12.727   9.657 -0.1792  0.1989  0.1315
  176loPI   C2A 2808  14.943  12.887   9.228 -0.0702 -0.2484  0.1598
  176loPI   C3A 2809  15.055  13.054   8.836  0.0893  0.3136  0.2139
  176loPI   C4A 2810  15.054  12.895   8.477 -0.1722  0.3066  0.0308
  176loPI   C5A 2811  15.081  12.625   8.116 -0.0189 -0.1447  0.1645
  176loPI   C6A 2812  15.290  12.487   7.812  0.2211 -0.2428  0.1818
  176loPI   C1B 2813  14.350  12.730   9.239 -0.3086 -0.1641  0.2820
  176loPI   C2B 2814  14.255  12.796   8.840  0.1002 -0.0337 -0.1731
  176loPI   C3B 2815  14.091  12.822   8.433 -0.1008  0.1660 -0.0256
  176loPI   C4B 2816  13.837  12.834   8.117  0.0161  0.0929 -0.0208
  177loPI    C1 2817  13.929  10.371  10.544  0.1140 -0.0992  0.1911
  177loPI    C2 2818  13.810  10.191  10.880  0.2445 -0.2300  0.1681
  177loPI    C3 2819  14.183  10.331  10.850  0.3047 -0.4228 -0.0039
  177loPI   PO4 2820  13.858  10.260  10.382 -0.0270 -0.0180  0.1296
  177loPI   GL1 2821  13.951  10.273   9.951  0.2898 -0.1681 -0.0533
  177loPI   GL2 2822  14.301  10.278  10.036 -0.1761  0.1479  0.0162
  177loPI   C1A 2823  13.853  10.378   9.520  0.0780  0.0999  0.2322
  177loPI   C2A 2824  13.829  10.177   9.198  0.1632 -0.2676  0.1129
  177loPI   C3A 2825  13.530  10.166   8.885  0.1665  0.1625 -0.0218
  177loPI   C4A 2826  13.224  10.240   8.476 -0.2387 -0.0204 -0.1721
  177loPI   C5A 2827  13.011   9.993   8.209  0.2020  0.0331 -0.2687
  177loPI   C6A 2828  12.709   9.956   7.824 -0.2630 -0.1111  0.1947
  177loPI   C1B 2829  14.314  10.112   9.611 -0.1146 -0.0259  0.1077
  177loPI   C2B 2830  14.384  10.094   9.166 -0.3326  0.1801  0.1047
  177loPI   C3B 2831  14.347  10.167   8.852  0.1334  0.0644 -0.1095
  177loPI   C4B 2832  14.178  10.296   8.383  0.0942  0.0806  0.1303
  178loPI    C1 2833   7.304  14.159  10.486 -0.0279  0.1550  0.2411
  178loPI    C2 2834   7.449  13.821  10.643 -0.0312  0.0562  0.0348
  178loPI    C3 2835   7.644  14.166  10.695  0.1471 -0.0337 -0.0305
  178loPI   PO4 2836   7.256  14.208  10.238 -0.1611 -0.1779 -0.0487
  178loPI   GL1 2837   7.046  14.456   9.895  0.0778 -0.1732 -0.1754
  178loPI   GL2 2838   6.762  14.431   9.875  0.2581  0.1478  0.0372
  178loPI   C1A 2839   7.115  14.483   9.511 -0.1521 -0.0478  0.1577
  178loPI   C2A 2840   7.154  14.497   9.038  0.0512 -0.0271  0.2201
  178loPI   C3A 2841   7.057  14.651   8.558 -0.0947  0.1820  0.1842
  178loPI   C4A 2842   7.223  14.915   8.288  0.0355 -0.4109 -0.2421
  178loPI   C5A 2843   7.433  15.241   8.102  0.0704 -0.1052  0.0186
  178loPI   C6A 2844   7.577  15.703   8.162  0.0691  0.2043 -0.2149
  178loPI   C1B 2845   6.632  14.522   9.526 -0.2745  0.0756 -0.0851
  178loPI   C2B 2846   6.673  14.741   9.146  0.1228  0.1269  0.2247
  178loPI   C3B 2847   6.640  14.834   8.780 -0.2418 -0.0255 -0.0501
  178loPI   C4B 2848   6.714  14.963   8.356  0.0147  0.1398  0.2620
  179loPI    C1 2849  14.691   7.691  10.654  0.0150  0.0751  0.0440
  179loPI    C2 2850  14.429   7.647  10.953  0.0877  0.0259  0.1006
  179loPI    C3 2851  14.562   8.011  10.856 -0.0725  0.0613  0.0104
  179loPI   PO4 2852  14.587   7.543  10.419 -0.1460 -0.0181 -0.0349
  179loPI   GL1 2853  14.269   7.418  10.166  0.0627  0.0012 -0.1782
  179loPI   GL2 2854  14.087   7.612  10.209  0.0836 -0.1090  0.1861
  179loPI   C1A 2855  14.285   7.501   9.715 -0.0281  0.1535  0.0031
  179loPI   C2A 2856  14.296   7.523   9.318  0.3434  0.2128  0.1770
  179loPI   C3A 2857  14.416   7.505   8.898  0.2517 -0.2182 -0.3502
  179loPI   C4A 2858  14.321   7.481   8.533 -0.1532  0.4386  0.1823
  179loPI   C5A 2859  14.049   7.470   8.198 -0.0135  0.0017  0.0236
  179loPI   C6A 2860  14.094   7.363   7.831  0.2154 -0.0358  0.0842
  179loPI   C1B 2861  13.905   7.783   9.838  0.0236 -0.1799 -0.1363
  179loPI   C2B 2862  13.834   7.813   9.414 -0.4879  0.4885  0.0121
  179loPI   C3B 2863  13.992   7.834   8.988  0.0049  0.2408 -0.0685
  179loPI   C4B 2864  13.962   7.843   8.541  0.2164  0.1541 -0.3203
  180loPI    C1 2865   8.863   0.623  10.461 -0.0243 -0.3315  0.1031
  180loPI    C2 2866   8.569   0.860  10.593  0.1446 -0.0556 -0.0084
  180loPI    C3 2867   8.839   0.714  10.849  0.0233 -0.1530  0.0649
  180loPI   PO4 2868   8.744   0.442  10.357 -0.0301 -0.3016 -0.0640
  180loPI   GL1 2869   8.837   0.255   9.986 -0.3991 -0.2489 -0.1838
  180loPI   GL2 2870   9.099   0.228   9.745  0.1988  0.3357  0.0396
  180loPI   C1A 2871   8.555   0.464   9.733  0.0157  0.0948 -0.3781
  180loPI   C2A 2872   8.579   0.475   9.308 -0.1160 -0.1683  0.3108
  180loPI   C3A 2873   8.479   0.484   8.918  0.3105 -0.0229 -0.0404
  180loPI   C4A 2874   8.221   0.593   8.620  0.0284  0.0366  0.4624
  180loPI   C5A 2875   7.963   0.422   8.243 -0.2682  0.2368 -0.1086
  180loPI   C6A 2876   7.551   0.157   8.045  0.0614  0.1634  0.0295
  180loPI   C1B 2877   9.049   0.213   9.290  0.1923  0.1700  0.0622
  180loPI   C2B 2878   8.915   0.255   8.910 -0.1181  0.2664 -0.0786
  180loPI   C3B 2879   8.725   0.202   8.528  0.4095  0.2006 -0.1006
  180loPI   C4B 2880   8.464   0.434   8.177  0.1114 -0.0911  0.0498
  181loPI    C1 2881   4.038  14.868  10.474  0.1266  0.1097  0.0163
  181loPI    C2 2882   3.804  15.186  10.536 -0.2106 -0.1200 -0.0516
  181loPI    C3 2883   3.870  14.927  10.833  0.1095  0.0391  0.0200
  181loPI   PO4 2884   4.066  14.933  10.240  0.1504 -0.0539  0.1715
  181loPI   GL1 2885   4.409  15.244   9.897  0.4244 -0.0290 -0.1110
  181loPI   GL2 2886   4.702  15.115   9.901 -0.0412 -0.0213  0.0930
  181loPI   C1A 2887   4.524  15.465   9.480 -0.0872  0.1145  0.1005
  181loPI   C2A 2888   4.450  15.495   8.988  0.0725  0.1954  0.0190
  181loPI   C3A 2889   4.407  15.153   8.684 -0.0167 -0.1167  0.0259
  181loPI   C4A 2890   4.340  14.794   8.454 -0.3357  0.4203 -0.1730
  181loPI   C5A 2891   4.175  14.420   8.205  0.1810  0.0652 -0.2057
  181loPI   C6A 2892   3.879  14.199   8.111 -0.0430  0.0777  0.0210
  181loPI   C1B 2893   4.918  15.205   9.577 -0.2479  0.0558 -0.0678
  181loPI   C2B 2894   4.919  15.363   9.098 -0.0113 -0.0394  0.0931
  181loPI   C3B 2895   5.097  15.370   8.731 -0.1308  0.2563 -0.1411
  181loPI   C4B 2896   4.836  15.272   8.392  0.1111 -0.1741  0.0787
  182loPI    C1 2897  15.117   4.818  10.727 -0.2753 -0.3139  0.1961
  182loPI    C2 2898  15.063   4.907  11.113 -0.0970 -0.0891  0.1713
  182loPI    C3 2899  15.426   4.803  10.981 -0.0001  0.5030 -0.0602
  182loPI   PO4 2900  15.069   5.008  10.603  0.1224  0.1463 -0.5368
  182loPI   GL1 2901  15.279   5.316  10.405 -0.3426 -0.0240  0.0148
  182loPI   GL2 2902  15.386   5.066  10.219  0.1101 -0.2278 -0.0339
  182loPI   C1A 2903  15.128   5.429   9.979  0.1140  0.0774 -0.4795
  182loPI   C2A 2904  15.058   5.347   9.485 -0.0026 -0.0616  0.0915
  182loPI   C3A 2905  15.097   5.337   9.126 -0.1936  0.0246 -0.4463
  182loPI   C4A 2906  14.996   5.315   8.654 -0.0018  0.0027 -0.0425
  182loPI   C5A 2907  15.079   5.422   8.368  0.0866 -0.0957  0.0356
  182loPI   C6A 2908  15.299   5.276   8.034 -0.0117  0.1617 -0.0115
  182loPI   C1B 2909  15.445   5.108   9.816  0.0990  0.1614  0.1006
  182loPI   C2B 2910  15.522   5.143   9.356  0.1405 -0.2540  0.0167
  182loPI   C3B 2911  15.515   5.039   8.856 -0.1630 -0.3062 -0.0526
  182loPI   C4B 2912  15.457   4.981   8.445  0.3251 -0.3031  0.2483
  183loPI    C1 2913  14.973  13.567  10.770 -0.1263 -0.0468 -0.1148
  183loPI    C2 2914  15.297  13.350  10.859  0.0967  0.3086 -0.0424
  183loPI    C3 2915  15.040  13.453  11.148 -0.1571 -0.0854 -0.1209
  183loPI   PO4 2916  15.103  13.700  10.567  0.0913  0.1469  0.2086
  183loPI   GL1 2917  15.271  13.859  10.146 -0.1630  0.1427 -0.2547
  183loPI   GL2 2918  15.281  14.048   9.983  0.3464  0.1178  0.3569
  183loPI   C1A 2919  15.066  13.885   9.607  0.0476  0.1730  0.3010
  183loPI   C2A 2920  15.216  13.920   9.238 -0.0047 -0.4619  0.0002
  183loPI   C3A 2921  15.251  13.983   8.775  0.3906 -0.2818 -0.2074
  183loPI   C4A 2922  15.193  13.756   8.374  0.1757 -0.4142  0.3211
  183loPI   C5A 2923  15.092  13.859   7.988  0.0824 -0.0730  0.0600
  183loPI   C6A 2924  14.988  14.008   7.623 -0.3481  0.0937 -0.1327
  183loPI   C1B 2925  15.489  14.212   9.713 -0.1395  0.2070 -0.1238
  183loPI   C2B 2926  15.528  14.461   9.353  0.0375 -0.0326  0.0341
  183loPI   C3B 2927  15.543  14.332   8.930  0.0273  0.2810 -0.0193
  183loPI   C4B 2928  15.560  14.282   8.481 -0.0693 -0.0933  0.1904
  184loPI    C1 2929   4.468  14.828  10.675 -0.0434  0.1479  0.2669
  184loPI    C2 2930   4.732  14.660  10.924  0.0242  0.0544  0.1333
  184loPI    C3 2931   4.372  14.768  11.059  0.0840  0.0651  0.2864
  184loPI   PO4 2932   4.481  14.623  10.405  0.2088  0.3108 -0.0160
  184loPI   GL1 2933   4.439  14.677  10.004  0.1737 -0.4117 -0.2045
  184loPI   GL2 2934   4.731  14.430  10.037 -0.0811  0.0705  0.0983
  184loPI   C1A 2935   4.337  14.378   9.710 -0.1242  0.5082  0.2909
  184loPI   C2A 2936   4.625  14.384   9.416  0.1051 -0.1135  0.2155
  184loPI   C3A 2937   4.978  14.438   9.137 -0.0673  0.3452 -0.3971
  184loPI   C4A 2938   5.190  14.366   8.810  0.1773 -0.1417  0.0074
  184loPI   C5A 2939   5.034  14.294   8.352  0.3481 -0.1108  0.1893
  184loPI   C6A 2940   4.664  14.364   8.091  0.1871  0.0892 -0.2229
  184loPI   C1B 2941   4.966  14.674   9.708 -0.0875  0.1028 -0.0748
  184loPI   C2B 2942   5.197  14.883   9.303  0.2673 -0.0582  0.0126
  184loPI   C3B 2943   5.346  14.917   8.886 -0.0548  0.2014  0.3458
  184loPI   C4B 2944   5.293  14.762   8.427 -0.1412 -0.1792  0.2239
  185loPI    C1 2945  14.286  10.030  10.474  0.0805 -0.1984  0.0358
  185loPI    C2 2946  14.089   9.832  10.189 -0.0585 -0.1769  0.1158
  185loPI    C3 2947  13.970   9.803  10.570  0.0263 -0.0762  0.1500
  185loPI   PO4 2948  14.522  10.005  10.350  0.1454 -0.1960  0.0355
  185loPI   GL1 2949  14.642   9.783  10.088  0.1597 -0.3263  0.0845
  185loPI   GL2 2950  14.373   9.698   9.830 -0.2734  0.1990 -0.1342
  185loPI   C1A 2951  14.787  10.079   9.734 -0.0970 -0.0766  0.1657
  185loPI   C2A 2952  14.900  10.173   9.307  0.1587  0.4666  0.0075
  185loPI   C3A 2953  14.891  10.042   8.877 -0.0248 -0.0380 -0.1706
  185loPI   C4A 2954  14.881   9.649   8.558  0.0301 -0.0542  0.3450
  185loPI   C5A 2955  14.840   9.261   8.688 -0.0246  0.2939  0.1166
  185loPI   C6A 2956  14.887   9.215   9.166 -0.2390 -0.0561  0.1266
  185loPI   C1B 2957  13.938   9.789   9.677  0.2544 -0.0606 -0.0158
  185loPI   C2B 2958  13.698   9.579   9.342 -0.3074  0.0584  0.0291
  185loPI   C3B 2959  13.530   9.618   8.931 -0.0256  0.2004 -0.2981
  185loPI   C4B 2960  13.463   9.762   8.463 -0.2340  0.3672  0.0793
  186loPI    C1 2961  11.295   0.917  10.814 -0.0020 -0.1619  0.0135
  186loPI    C2 2962  10.919   0.796  10.752 -0.0193 -0.1878  0.1654
  186loPI    C3 2963  11.102   0.713  11.099  0.1262 -0.1742  0.0929
  186loPI   PO4 2964  11.409   0.829  10.591 -0.0959  0.0675  0.0362
  186loPI   GL1 2965  11.687   0.478  10.417 -0.4332  0.0346  0.2905
  186loPI   GL2 2966  11.725   0.784  10.082  0.1540  0.1118 -0.2231
  186loPI   C1A 2967  11.916   0.274  10.031 -0.1142 -0.2000 -0.0862
  186loPI   C2A 2968  12.291   0.198  10.061 -0.0407  0.0976 -0.1752
  186loPI   C3A 2969  12.450   0.238   9.641  0.0773  0.1552 -0.1146
  186loPI   C4A 2970  12.417   0.057   9.312  0.1179  0.1075 -0.1055
  186loPI   C5A 2971  12.346   0.099   8.836 -0.2915 -0.2301  0.1932
  186loPI   C6A 2972  12.344  -0.369   8.539 -0.1286  0.0732 -0.1230
  186loPI   C1B 2973  11.846   0.910   9.752  0.1782 -0.3419  0.0506
  186loPI   C2B 2974  11.787   0.864   9.346 -0.1835  0.0291  0.0740
  186loPI   C3B 2975  12.136   1.025   9.103 -0.1588 -0.0796  0.1024
  186loPI   C4B 2976  12.474   1.167   8.841  0.0323 -0.0192  0.1062
  187loPI    C1 2977   2.854  13.013  10.304 -0.0980 -0.2164 -0.2155
  187loPI    C2 2978   2.592  13.293  10.418 -0.0425 -0.2722  0.0565
  187loPI    C3 2979   2.845  13.136  10.684  0.3680 -0.1155 -0.2310
  187loPI   PO4 2980   2.853  13.073  10.041 -0.2187 -0.1489  0.0475
  187loPI   GL1 2981   2.937  13.160   9.619  0.1671  0.1042 -0.0471
  187loPI   GL2 2982   2.685  13.125   9.348 -0.2703 -0.1034 -0.0576
  187loPI   C1A 2983   3.205  13.348   9.288  0.0851 -0.2383 -0.2100
  187loPI   C2A 2984   3.260  13.457   8.925  0.1028  0.0806  0.4315
  187loPI   C3A 2985   3.276  13.570   8.487  0.1752  0.2128 -0.0147
  187loPI   C4A 2986   3.607  13.775   8.053 -0.3466 -0.3523  0.0071
  187loPI   C5A 2987   4.076  13.775   7.869 -0.1024  0.0613  0.0217
  187loPI   C6A 2988   4.592  13.677   7.903  0.2699 -0.0390  0.0445
  187loPI   C1B 2989   2.482  12.868   9.077 -0.0764  0.1435  0.2162
  187loPI   C2B 2990   2.374  12.616   8.802 -0.0121 -0.0735  0.1504
  187loPI   C3B 2991   2.166  12.504   8.619  0.0434 -0.2132  0.0190
  187loPI   C4B 2992   2.194  12.213   8.387  0.0402  0.1345 -0.2236
  188loPI    C1 2993  17.012   8.441  10.468 -0.0536 -0.4167  0.0275
  188loPI    C2 2994  16.849   8.290  10.801 -0.1424  0.0169  0.1872
  188loPI    C3 2995  17.217   8.447  10.811 -0.1216 -0.0220  0.0657
  188loPI   PO4 2996  16.990   8.269  10.302 -0.0213 -0.0616  0.1766
  188loPI   GL1 2997  17.147   8.172   9.878  0.0366 -0.1463  0.0229
  188loPI   GL2 2998  17.374   8.390   9.640  0.1489  0.0071 -0.0016
  188loPI   C1A 2999  17.129   7.992   9.476 -0.1250  0.1755 -0.0165
  188loPI   C2A 3000  17.022   7.820   9.108 -0.0016  0.2042 -0.2028
  188loPI   C3A 3001  17.021   7.880   8.723 -0.2174 -0.0345  0.3016
  188loPI   C4A 3002  16.959   7.888   8.244 -0.0049  0.1038 -0.2852
  188loPI   C5A 3003  16.986   7.750   7.849  0.0910 -0.1966 -0.3264
  188loPI   C6A 3004  16.603   7.500   7.622 -0.0895 -0.0718 -0.0244
  188loPI   C1B 3005  17.268   8.452   9.289 -0.0118  0.3438  0.1715
  188loPI   C2B 3006  17.059   8.339   8.901 -0.0060 -0.3373 -0.0336
  188loPI   C3B 3007  17.001   8.317   8.426 -0.0350 -0.0071  0.1450
  188loPI   C4B 3008  17.046   8.288   7.995 -0.1615 -0.0200 -0.0470
  189loPI    C1 3009  11.219   7.281  10.571 -0.0395 -0.0386 -0.0717
  189loPI    C2 3010  11.150   7.675  10.589 -0.2399 -0.0770  0.0251
  189loPI    C3 3011  11.457   7.517  10.791 -0.0697  0.0483 -0.1316
  189loPI   PO4 3012  11.071   7.327  10.230  0.0225  0.0118 -0.0422
  189loPI   GL1 3013  11.218   7.472   9.790 -0.2412  0.2021 -0.2128
  189loPI   GL2 3014  10.868   7.553   9.753 -0.1117 -0.1103 -0.2066
  189loPI   C1A 3015  11.374   7.480   9.337  0.1728 -0.0187 -0.1013
  189loPI   C2A 3016  11.111   7.480   8.955  0.1861  0.0910 -0.1497
  189loPI   C3A 3017  11.085   7.301   8.675 -0.2650  0.1021 -0.0428
  189loPI   C4A 3018  10.821   7.200   8.367 -0.0701 -0.1047 -0.0075
  189loPI   C5A 3019  10.880   7.318   8.000 -0.0116 -0.2596  0.3938
  189loPI   C6A 3020  11.292   7.274   7.689 -0.1458  0.1519  0.2964
  189loPI   C1B 3021  10.637   7.608   9.458  0.0482  0.3013  0.3344
  189loPI   C2B 3022  10.679   7.771   9.033 -0.1735 -0.4761  0.1309
  189loPI   C3B 3023  10.744   7.780   8.563 -0.0761  0.0238 -0.1176
  189loPI   C4B 3024  10.823   7.870   8.187 -0.0852 -0.2985 -0.2523
  190loPI    C1 3025  15.356   5.737  10.767 -0.0498  0.1285 -0.0170
  190loPI    C2 3026  15.316   5.386  10.954 -0.1525  0.0933 -0.1034
  190loPI    C3 3027  15.289   5.727  11.161 -0.0759  0.0512 -0.0232
  190loPI   PO4 3028  15.320   5.755  10.544 -0.1835  0.0937 -0.0009
  190loPI   GL1 3029  15.292   6.017  10.144 -0.2207  0.1248  0.3712
  190loPI   GL2 3030  15.569   6.123  10.161 -0.2419 -0.0744 -0.0717
  190loPI   C1A 3031  15.143   5.948   9.766 -0.0183 -0.2479 -0.3121
  190loPI   C2A 3032  15.113   5.838   9.288  0.3560  0.0440 -0.0721
  190loPI   C3A 3033  15.081   5.795   8.858 -0.0542  0.0485 -0.0557
  190loPI   C4A 3034  15.059   5.929   8.551  0.2416 -0.0057 -0.0115
  190loPI   C5A 3035  15.016   5.862   8.098 -0.1994 -0.3759  0.2504
  190loPI   C6A 3036  15.169   5.711   7.741 -0.0151 -0.2576  0.1629
  190loPI   C1B 3037  15.653   6.056   9.832 -0.2255 -0.0004 -0.1718
  190loPI   C2B 3038  15.573   6.030   9.470  0.0323 -0.1750  0.1474
  190loPI   C3B 3039  15.567   6.110   8.981 -0.3072  0.1464  0.3371
  190loPI   C4B 3040  15.533   6.102   8.613 -0.0069 -0.3152 -0.0446
  191loPI    C1 3041   1.507  15.825  10.543 -0.1623 -0.0336  0.0129
  191loPI    C2 3042   1.527  16.122  10.275 -0.1050  0.0035  0.0579
  191loPI    C3 3043   1.209  16.090  10.516 -0.1574 -0.0308 -0.0155
  191loPI   PO4 3044   1.611  15.659  10.394 -0.0512 -0.4833  0.0674
  191loPI   GL1 3045   1.673  15.718   9.905  0.0921  0.1981 -0.1222
  191loPI   GL2 3046   2.019  15.645   9.860 -0.1442  0.1644  0.0206
  191loPI   C1A 3047   1.714  15.842   9.497 -0.2939  0.1977  0.0016
  191loPI   C2A 3048   1.745  16.244   9.198  0.1219 -0.1221 -0.0897
  191loPI   C3A 3049   1.743  16.324   8.777 -0.0465 -0.0837  0.1489
  191loPI   C4A 3050   1.742  16.196   8.313  0.2674  0.0929  0.0713
  191loPI   C5A 3051   1.679  15.867   8.053 -0.2352 -0.0576 -0.0497
  191loPI   C6A 3052   1.742  15.674   7.693  0.1210 -0.2137 -0.1679
  191loPI   C1B 3053   2.031  15.414   9.449  0.1280 -0.0468 -0.1557
  191loPI   C2B 3054   2.219  15.459   9.130 -0.0055  0.1123 -0.2417
  191loPI   C3B 3055   2.430  15.660   8.864 -0.0537  0.0956  0.2087
  191loPI   C4B 3056   2.839  15.738   8.720  0.2624  0.0916 -0.0844
  192loPI    C1 3057   2.910   4.905  10.151  0.0866 -0.2356 -0.0311
  192loPI    C2 3058   2.625   4.881  10.431 -0.0902 -0.1332 -0.1992
  192loPI    C3 3059   2.790   4.547  10.284 -0.0789 -0.1908 -0.0576
  192loPI   PO4 3060   2.883   5.175  10.085  0.2371 -0.2014  0.1103
  192loPI   GL1 3061   2.720   5.302   9.709  0.0204  0.2267 -0.0046
  192loPI   GL2 3062   2.905   4.910   9.625  0.0688 -0.2501  0.2412
  192loPI   C1A 3063   2.593   5.250   9.289 -0.2599  0.0739  0.0706
  192loPI   C2A 3064   2.885   5.203   8.950  0.2244 -0.1397 -0.3947
  192loPI   C3A 3065   2.940   4.949   8.588  0.2585 -0.0433 -0.1239
  192loPI   C4A 3066   3.125   4.530   8.368 -0.2381 -0.2504  0.0845
  192loPI   C5A 3067   3.373   4.524   7.997 -0.0785  0.1111 -0.0352
  192loPI   C6A 3068   3.349   4.281   7.612 -0.0809 -0.0671  0.2425
  192loPI   C1B 3069   2.503   4.792   9.449 -0.0413 -0.1587  0.2424
  192loPI   C2B 3070   2.188   4.898   9.101 -0.1094 -0.0086  0.0004
  192loPI   C3B 3071   2.119   4.756   8.721 -0.0490 -0.2056 -0.0202
  192loPI   C4B 3072   2.151   4.768   8.275  0.0621 -0.1061 -0.0486
  193loPI    C1 3073   8.549   5.662  10.543  0.0790  0.0778 -0.1399
  193loPI    C2 3074   8.593   6.043  10.432  0.0247  0.1557  0.1007
  193loPI    C3 3075   8.744   5.918  10.780  0.1742 -0.0800 -0.0456
  193loPI   PO4 3076   8.305   5.569  10.377 -0.0885 -0.1467 -0.0041
  193loPI   GL1 3077   8.303   5.430   9.952 -0.0775 -0.0813 -0.3946
  193loPI   GL2 3078   8.286   5.148  10.055  0.2344 -0.2194  0.0315
  193loPI   C1A 3079   8.310   5.621   9.510  0.0699 -0.2957  0.0707
  193loPI   C2A 3080   8.423   5.706   9.016 -0.1797 -0.1154  0.3410
  193loPI   C3A 3081   8.322   5.653   8.575  0.0757  0.1135  0.2129
  193loPI   C4A 3082   8.349   5.588   8.146  0.0599 -0.1499 -0.1616
  193loPI   C5A 3083   8.574   5.547   7.762 -0.1431  0.3864 -0.1466
  193loPI   C6A 3084   8.772   5.697   7.380  0.0124 -0.1903  0.2655
  193loPI   C1B 3085   8.397   5.125   9.493  0.2001 -0.1245 -0.1475
  193loPI   C2B 3086   8.512   5.120   9.132  0.1435 -0.0480 -0.0889
  193loPI   C3B 3087   8.614   5.120   8.727  0.1831  0.2205  0.0835
  193loPI   C4B 3088   8.634   5.156   8.255  0.1324 -0.2277  0.1899
  194loPI    C1 3089  15.124  11.696  10.244 -0.2243  0.1654 -0.2708
  194loPI    C2 3090  15.266  11.988  10.478 -0.1494 -0.0420 -0.0526
  194loPI    C3 3091  14.873  11.960  10.409 -0.1582  0.1018 -0.0652
  194loPI   PO4 3092  15.259  11.699  10.074 -0.1488  0.2772 -0.1168
  194loPI   GL1 3093  15.439  11.866   9.762 -0.0356 -0.0974 -0.0522
  194loPI   GL2 3094  15.111  11.867   9.548 -0.0048 -0.0960  0.1226
  194loPI   C1A 3095  15.482  11.983   9.223  0.0405 -0.2128 -0.2965
  194loPI   C2A 3096  15.477  11.902   8.800 -0.0369 -0.1144  0.1407
  194loPI   C3A 3097  15.420  11.751   8.343  0.1363 -0.2196 -0.2234
  194loPI   C4A 3098  15.385  11.696   7.943  0.0602 -0.1006  0.0302
  194loPI   C5A 3099  15.649  11.452   7.776 -0.0173  0.1300 -0.2114
  194loPI   C6A 3100  15.928  11.370   7.469 -0.0391  0.0193 -0.0046
  194loPI   C1B 3101  15.026  11.897   9.174 -0.1182 -0.0331 -0.2721
  194loPI   C2B 3102  15.012  11.993   8.842 -0.3432 -0.2205 -0.5202
  194loPI   C3B 3103  14.895  11.806   8.373  0.1489  0.1414 -0.0838
  194loPI   C4B 3104  14.865  11.741   7.898  0.0337  0.0871 -0.0441
  195loPI    C1 3105   2.896   8.803  10.335 -0.5247  0.0166  0.0754
  195loPI    C2 3106   3.077   8.460  10.433  0.1246  0.2159 -0.3577
  195loPI    C3 3107   2.997   8.732  10.715 -0.1266 -0.1578 -0.0573
  195loPI   PO4 3108   2.993   8.887  10.120 -0.1611 -0.1210  0.2391
  195loPI   GL1 3109   3.076   8.884   9.718  0.4419  0.4143 -0.1582
  195loPI   GL2 3110   2.815   8.990   9.668 -0.1742 -0.0891 -0.4327
  195loPI   C1A 3111   3.107   8.719   9.281 -0.0960 -0.2168 -0.0373
  195loPI   C2A 3112   3.235   8.629   8.786  0.2736 -0.0577  0.0755
  195loPI   C3A 3113   3.124   8.590   8.389 -0.1807 -0.1197 -0.0385
  195loPI   C4A 3114   3.138   8.322   7.989  0.1700 -0.2125  0.0618
  195loPI   C5A 3115   3.337   7.977   7.895  0.3544 -0.1193 -0.1455
  195loPI   C6A 3116   3.386   7.623   7.558  0.1706 -0.0224  0.0465
  195loPI   C1B 3117   2.700   9.014   9.307  0.0451 -0.0572  0.2643
  195loPI   C2B 3118   2.668   8.942   8.875  0.1439 -0.0042 -0.0700
  195loPI   C3B 3119   2.786   8.938   8.524 -0.2013  0.5093  0.0383
  195loPI   C4B 3120   2.543   9.063   8.220 -0.0669 -0.1312  0.0924
  196loPI    C1 3121  17.970   7.908  10.253 -0.1539 -0.1227 -0.0416
  196loPI    C2 3122  17.878   8.192   9.987  0.4403  0.0665 -0.0596
  196loPI    C3 3123  17.861   8.272  10.379 -0.0664 -0.0960 -0.0418
  196loPI   PO4 3124  17.877   7.680  10.082 -0.0848  0.0678  0.2146
  196loPI   GL1 3125  17.854   7.474   9.673  0.2327 -0.0190  0.0515
  196loPI   GL2 3126  18.046   7.229   9.781  0.3337  0.1421 -0.1296
  196loPI   C1A 3127  17.870   7.484   9.156 -0.2421 -0.2436  0.4616
  196loPI   C2A 3128  17.817   7.266   8.833  0.0081 -0.1267 -0.0045
  196loPI   C3A 3129  18.019   7.392   8.456  0.1035  0.0745  0.1991
  196loPI   C4A 3130  17.958   7.200   8.064 -0.1259 -0.2845 -0.6067
  196loPI   C5A 3131  18.028   6.918   7.765  0.2860  0.0202  0.1588
  196loPI   C6A 3132  18.129   6.481   7.914 -0.0952  0.0915 -0.0688
  196loPI   C1B 3133  17.991   6.965   9.381  0.2580 -0.3259  0.0993
  196loPI   C2B 3134  17.861   6.701   8.962  0.0584  0.3731 -0.1520
  196loPI   C3B 3135  17.887   6.844   8.560  0.1618  0.1815 -0.2098
  196loPI   C4B 3136  17.727   6.760   8.206  0.2308  0.4250  0.1013
  197loPI    C1 3137  14.457   9.398  10.596  0.1960  0.2767  0.0320
  197loPI    C2 3138  14.667   9.060  10.558 -0.0748  0.1206 -0.1071
  197loPI    C3 3139  14.842   9.413  10.489  0.1954  0.0076 -0.0144
  197loPI   PO4 3140  14.277   9.435  10.443 -0.0785 -0.0792 -0.4182
  197loPI   GL1 3141  14.235   9.329  10.095 -0.0586 -0.0442  0.0268
  197loPI   GL2 3142  14.596   9.236  10.084  0.2362 -0.0111  0.2379
  197loPI   C1A 3143  14.049   9.318   9.631 -0.2062  0.1132  0.0088
  197loPI   C2A 3144  14.201   9.562   9.295  0.1683 -0.1244  0.2462
  197loPI   C3A 3145  13.983   9.794   8.954 -0.1718 -0.1004  0.0305
  197loPI   C4A 3146  13.894   9.939   8.593 -0.0854 -0.1636 -0.0431
  197loPI   C5A 3147  13.873   9.823   8.164 -0.1676 -0.0819  0.1485
  197loPI   C6A 3148  13.900   9.443   7.985 -0.1301 -0.4195 -0.2579
  197loPI   C1B 3149  14.567   9.049   9.688  0.1085 -0.1193  0.1408
  197loPI   C2B 3150  14.396   9.115   9.227 -0.2591 -0.1712 -0.3225
  197loPI   C3B 3151  14.032   9.308   8.903 -0.0133  0.1613 -0.0055
  197loPI   C4B 3152  13.868   9.471   8.553  0.1562  0.0649 -0.0038
  198loPI    C1 3153  11.933   7.786  10.772 -0.1950 -0.0785  0.2461
  198loPI    C2 3154  12.298   7.855  10.919 -0.0099  0.0571 -0.2559
  198loPI    C3 3155  11.986   8.068  11.050  0.0364 -0.2353  0.3642
  198loPI   PO4 3156  11.946   7.712  10.569 -0.0521 -0.0629  0.2909
  198loPI   GL1 3157  12.030   7.535  10.205  0.2486 -0.1578  0.3109
  198loPI   GL2 3158  11.874   7.151   9.992 -0.1479 -0.2840  0.0902
  198loPI   C1A 3159  12.261   7.442   9.820 -0.1552  0.4972 -0.0430
  198loPI   C2A 3160  12.197   7.309   9.388 -0.0986  0.1053  0.0144
  198loPI   C3A 3161  12.127   7.187   9.001 -0.0085 -0.1342 -0.2048
  198loPI   C4A 3162  12.037   7.241   8.666  0.0617  0.3335  0.1576
  198loPI   C5A 3163  11.901   7.081   8.349  0.0573  0.0245 -0.2906
  198loPI   C6A 3164  11.578   6.856   8.058  0.2174 -0.0395 -0.2918
  198loPI   C1B 3165  11.756   7.459   9.698 -0.1020  0.4201 -0.1784
  198loPI   C2B 3166  11.817   7.697   9.404 -0.1218 -0.0445  0.0975
  198loPI   C3B 3167  11.713   7.517   8.975 -0.1550  0.1679  0.1436
  198loPI   C4B 3168  11.590   7.460   8.617  0.3341  0.1293  0.2137
  199loPI    C1 3169  12.707  13.207  10.440 -0.1010  0.0338 -0.0841
  199loPI    C2 3170  12.695  12.808  10.419 -0.2852  0.0381 -0.0756
  199loPI    C3 3171  12.851  12.986  10.741  0.1592 -0.0250 -0.2489
  199loPI   PO4 3172  12.895  13.244  10.230  0.4055 -0.1944 -0.0802
  199loPI   GL1 3173  13.150  13.159   9.890 -0.1571  0.3364  0.1912
  199loPI   GL2 3174  13.376  13.224   9.727  0.0227  0.2595 -0.0327
  199loPI   C1A 3175  12.930  13.064   9.532  0.0588  0.0099  0.2528
  199loPI   C2A 3176  12.732  12.860   9.178  0.0403 -0.1768  0.1529
  199loPI   C3A 3177  12.664  12.894   8.744 -0.1465 -0.0882 -0.0104
  199loPI   C4A 3178  12.525  12.871   8.319  0.0981  0.2240  0.2088
  199loPI   C5A 3179  12.233  12.720   8.076  0.0425  0.1132 -0.3425
  199loPI   C6A 3180  11.873  12.614   7.857 -0.0139  0.1293  0.1512
  199loPI   C1B 3181  13.480  13.220   9.299 -0.2886 -0.0404  0.0125
  199loPI   C2B 3182  13.496  13.317   8.880 -0.2394  0.1846 -0.0764
  199loPI   C3B 3183  13.543  13.187   8.465 -0.0138 -0.1512  0.1255
  199loPI   C4B 3184  13.768  13.397   8.094  0.3444 -0.0376  0.0426
  200loPI    C1 3185  10.644  12.002  10.301 -0.2538 -0.3200 -0.1791
  200loPI    C2 3186  10.321  12.089  10.520 -0.1396 -0.2632 -0.0321
  200loPI    C3 3187  10.685  12.199  10.646 -0.0432 -0.4975 -0.1002
  200loPI   PO4 3188  10.579  12.065  10.022 -0.0229 -0.0850  0.0414
  200loPI   GL1 3189  10.461  11.906   9.586 -0.0526  0.2009 -0.0026
  200loPI   GL2 3190  10.368  12.220   9.574  0.2113 -0.1160  0.3204
  200loPI   C1A 3191  10.572  12.023   9.098 -0.1024  0.0052 -0.1129
  200loPI   C2A 3192  10.766  11.843   8.766  0.0178 -0.1671 -0.0536
  200loPI   C3A 3193  10.728  11.720   8.388  0.0350 -0.1500  0.3548
  200loPI   C4A 3194  10.658  11.593   7.960  0.1929 -0.2201  0.2458
  200loPI   C5A 3195  10.362  11.578   7.632  0.0699 -0.4079  0.1243
  200loPI   C6A 3196  10.033  11.217   7.575  0.0345 -0.0866  0.3249
  200loPI   C1B 3197  10.161  12.324   9.212  0.1897 -0.2229 -0.0468
  200loPI   C2B 3198   9.950  12.352   8.835  0.0863  0.0391  0.1653
  200loPI   C3B 3199   9.918  12.304   8.452  0.2772 -0.1731  0.1835
  200loPI   C4B 3200   9.752  12.173   8.043 -0.0653 -0.0235 -0.0625
  201loPI    C1 3201   6.362  14.460  10.349  0.0013 -0.2540  0.0194
  201loPI    C2 3202   5.966  14.511  10.372  0.0434  0.1378 -0.0655
  201loPI    C3 3203   6.199  14.609  10.682  0.0643 -0.2275  0.0386
  201loPI   PO4 3204   6.328  14.299  10.105 -0.0903  0.0146  0.3675
  201loPI   GL1 3205   6.236  14.194   9.743  0.2531  0.3343 -0.0355
  201loPI   GL2 3206   6.153  13.824   9.879 -0.0138  0.2610  0.0807
  201loPI   C1A 3207   6.404  14.063   9.367  0.1694  0.3178 -0.1311
  201loPI   C2A 3208   6.341  13.990   8.929  0.0117  0.0041 -0.1492
  201loPI   C3A 3209   6.519  13.952   8.575 -0.0443  0.3664 -0.1338
  201loPI   C4A 3210   6.559  13.909   8.140  0.1974 -0.0015  0.0498
  201loPI   C5A 3211   6.796  13.635   7.946 -0.0086 -0.1121  0.0499
  201loPI   C6A 3212   7.020  13.418   7.682 -0.2889 -0.2670  0.0418
  201loPI   C1B 3213   6.351  13.622   9.550  0.1881  0.4963 -0.2521
  201loPI   C2B 3214   6.763  13.649   9.306  0.0174  0.0794  0.0073
  201loPI   C3B 3215   6.834  13.645   8.849 -0.0702  0.1070 -0.1347
  201loPI   C4B 3216   6.863  13.544   8.473  0.0167  0.0871  0.3974
  202loPI    C1 3217  16.552   5.656  10.497 -0.1572 -0.0030 -0.2707
  202loPI    C2 3218  16.180   5.560  10.385 -0.1129 -0.2947 -0.1770
  202loPI    C3 3219  16.274   5.574  10.773 -0.0293 -0.2064 -0.2000
  202loPI   PO4 3220  16.600   5.806  10.283  0.0493  0.1312  0.2945
  202loPI   GL1 3221  16.504   5.631   9.915  0.0199  0.4050 -0.0962
  202loPI   GL2 3222  16.777   5.326   9.817 -0.0806  0.0667 -0.1281
  202loPI   C1A 3223  16.401   5.512   9.472  0.1623 -0.0745 -0.0813
  202loPI   C2A 3224  16.457   5.521   9.004  0.0587 -0.1814  0.1907
  202loPI   C3A 3225  16.418   5.598   8.489 -0.0658  0.0275 -0.2495
  202loPI   C4A 3226  16.250   5.350   8.160  0.0812 -0.3060 -0.0973
  202loPI   C5A 3227  16.420   5.066   7.868  0.0338  0.0266 -0.0463
  202loPI   C6A 3228  16.424   4.605   7.788  0.3738 -0.1161  0.0176
  202loPI   C1B 3229  16.834   5.257   9.412 -0.0481 -0.1278 -0.1203
  202loPI   C2B 3230  16.787   5.176   9.061 -0.2084 -0.4030  0.0279
  202loPI   C3B 3231  16.817   5.282   8.635 -0.0761  0.0207 -0.0772
  202loPI   C4B 3232  16.759   5.328   8.204  0.0085 -0.2868  0.0050
  203loPI    C1 3233   7.621  16.554  10.714  0.0676  0.1142 -0.1381
  203loPI    C2 3234   7.732  16.766  11.035 -0.1812  0.3117 -0.1793
  203loPI    C3 3235   7.344  16.729  10.944 -0.1207  0.1247 -0.3693
  203loPI   PO4 3236   7.913  16.538  10.467  0.0911 -0.0994 -0.0305
  203loPI   GL1 3237   7.958  16.376  10.063 -0.1172 -0.2039 -0.0129
  203loPI   GL2 3238   8.281  16.517  10.028  0.0194 -0.0040 -0.1326
  203loPI   C1A 3239   7.678  16.376   9.661 -0.3210 -0.2545  0.4767
  203loPI   C2A 3240   7.565  16.472   9.287 -0.2326  0.1194  0.0859
  203loPI   C3A 3241   7.434  16.513   8.933  0.1930 -0.0767  0.1031
  203loPI   C4A 3242   7.224  16.540   8.502 -0.1104  0.0319  0.2461
  203loPI   C5A 3243   6.864  16.478   8.203 -0.0532  0.0246  0.0949
  203loPI   C6A 3244   6.576  16.819   8.027 -0.1347 -0.2133  0.0486
  203loPI   C1B 3245   8.156  16.456   9.616 -0.1606 -0.2452 -0.0282
  203loPI   C2B 3246   8.101  16.525   9.118 -0.0121  0.1757 -0.2401
  203loPI   C3B 3247   7.968  16.615   8.718  0.3400 -0.0367  0.0164
  203loPI   C4B 3248   7.656  16.766   8.408  0.1823  0.1080 -0.1865
  204loPI    C1 3249   5.688  16.631  10.505  0.2397 -0.0599 -0.0305
  204loPI    C2 3250   5.780  16.756  10.873 -0.0225 -0.2690  0.1098
  204loPI    C3 3251   5.411  16.813  10.729  0.0714 -0.2114 -0.1128
  204loPI   PO4 3252   5.862  16.366  10.452  0.1497  0.1561  0.0202
  204loPI   GL1 3253   5.940  15.995  10.001  0.2338  0.0517  0.1473
  204loPI   GL2 3254   5.596  15.980  10.040  0.1884 -0.3075  0.1995
  204loPI   C1A 3255   6.059  16.052   9.636 -0.0427 -0.2996 -0.3317
  204loPI   C2A 3256   5.933  16.023   9.247  0.0501  0.0205 -0.0137
  204loPI   C3A 3257   5.890  16.101   8.904 -0.1340 -0.1180 -0.0257
  204loPI   C4A 3258   5.731  16.325   8.521 -0.0381 -0.0558  0.0650
  204loPI   C5A 3259   5.648  16.634   8.238 -0.3380  0.1010  0.0159
  204loPI   C6A 3260   5.353  16.965   8.135 -0.0135  0.0815  0.0305
  204loPI   C1B 3261   5.508  15.906   9.514 -0.2891  0.0525  0.0253
  204loPI   C2B 3262   5.503  15.867   9.093  0.2855 -0.0693 -0.0426
  204loPI   C3B 3263   5.409  15.882   8.680  0.0328 -0.1870 -0.1275
  204loPI   C4B 3264   5.267  15.631   8.305  0.2479  0.0517  0.1787
  205loPI    C1 3265  13.834   1.549  10.576  0.3719 -0.0803 -0.0150
  205loPI    C2 3266  13.996   1.589  10.939 -0.0966 -0.0077  0.1938
  205loPI    C3 3267  13.771   1.269  10.854 -0.0390  0.0058 -0.0151
  205loPI   PO4 3268  13.925   1.616  10.460 -0.1159 -0.5090 -0.0011
  205loPI   GL1 3269  13.813   1.754  10.071  0.1086 -0.0698  0.0066
  205loPI   GL2 3270  13.844   1.381  10.055  0.4355 -0.0208  0.2110
  205loPI   C1A 3271  13.534   1.654   9.718  0.2863 -0.0135  0.0281
  205loPI   C2A 3272  13.262   1.750   9.386 -0.0337  0.1595  0.1787
  205loPI   C3A 3273  13.302   1.772   8.879  0.1580 -0.2284 -0.1550
  205loPI   C4A 3274  13.161   1.866   8.389 -0.0935  0.0525 -0.0816
  205loPI   C5A 3275  13.130   1.617   8.080 -0.1259  0.0747 -0.0875
  205loPI   C6A 3276  13.046   1.576   7.588 -0.2848  0.2364  0.3185
  205loPI   C1B 3277  13.768   1.244   9.565  0.1343 -0.0484  0.2012
  205loPI   C2B 3278  13.641   0.980   9.269  0.0715 -0.0366  0.2849
  205loPI   C3B 3279  13.557   0.980   8.808 -0.0863 -0.0257  0.3005
  205loPI   C4B 3280  13.351   0.901   8.424  0.1635  0.0078 -0.0004
  206loPI    C1 3281  15.634   7.792  10.479  0.0858  0.1149 -0.1161
  206loPI    C2 3282  15.690   8.179  10.396 -0.0604  0.1880  0.1183
  206loPI    C3 3283  15.337   8.007  10.320 -0.0124  0.1134  0.0629
  206loPI   PO4 3284  15.782   7.625  10.363  0.0683 -0.0306  0.1770
  206loPI   GL1 3285  15.924   7.664   9.991 -0.0067  0.1858 -0.0085
  206loPI   GL2 3286  15.655   7.765   9.826 -0.0657 -0.1220  0.2559
  206loPI   C1A 3287  16.102   7.867   9.621 -0.1773 -0.0556 -0.1301
  206loPI   C2A 3288  16.154   7.885   9.146 -0.1437 -0.1481 -0.0993
  206loPI   C3A 3289  16.216   7.834   8.756  0.0869  0.0702  0.1338
  206loPI   C4A 3290  16.173   7.441   8.666  0.0402  0.0164  0.1109
  206loPI   C5A 3291  16.178   7.451   8.313 -0.1106 -0.0810  0.0969
  206loPI   C6A 3292  15.815   7.434   8.104  0.0540  0.1740 -0.0768
  206loPI   C1B 3293  15.634   7.432   9.620  0.2066 -0.3014 -0.1463
  206loPI   C2B 3294  15.609   7.135   9.271 -0.1177 -0.0573 -0.2233
  206loPI   C3B 3295  15.615   7.160   8.799 -0.5025  0.0106  0.1045
  206loPI   C4B 3296  15.739   7.083   8.439 -0.0015  0.1753  0.1870
  207loPI    C1 3297  11.905   5.355  10.366 -0.0309  0.3823  0.1848
  207loPI    C2 3298  11.783   5.447  10.736 -0.0162  0.0028  0.2891
  207loPI    C3 3299  11.529   5.276  10.479  0.1186 -0.2157  0.2991
  207loPI   PO4 3300  12.179   5.263  10.357 -0.2922 -0.0089 -0.2893
  207loPI   GL1 3301  12.302   5.472  10.018 -0.2413  0.0455  0.0932
  207loPI   GL2 3302  12.065   5.675   9.913 -0.0875  0.2470 -0.3325
  207loPI   C1A 3303  12.559   5.274   9.792  0.1580  0.0358  0.0548
  207loPI   C2A 3304  12.678   5.215   9.316  0.0532  0.1016  0.0993
  207loPI   C3A 3305  12.693   5.273   8.875  0.2029 -0.0678 -0.0991
  207loPI   C4A 3306  12.767   5.319   8.417  0.3165  0.0533  0.3833
  207loPI   C5A 3307  12.587   5.360   7.923  0.0313 -0.2259 -0.1892
  207loPI   C6A 3308  12.647   5.220   7.502 -0.0921 -0.0792  0.1136
  207loPI   C1B 3309  12.222   5.450   9.482  0.0976 -0.0533  0.0271
  207loPI   C2B 3310  12.281   5.438   9.042  0.0488  0.0317  0.0262
  207loPI   C3B 3311  12.203   5.310   8.724  0.1536 -0.3582  0.1587
  207loPI   C4B 3312  12.192   5.248   8.273  0.0825  0.1500 -0.0601
  208loPI    C1 3313  14.187  11.338  10.816  0.0057  0.0042  0.2027
  208loPI    C2 3314  13.963  11.146  11.086  0.0353 -0.0367  0.1981
  208loPI    C3 3315  14.361  11.160  11.129  0.0596 -0.2235  0.0459
  208loPI   PO4 3316  14.075  11.273  10.601 -0.1510  0.1741  0.0727
  208loPI   GL1 3317  14.173  11.115  10.196  0.1285 -0.2165  0.3243
  208loPI   GL2 3318  14.250  10.782  10.160 -0.0656 -0.0036 -0.2763
  208loPI   C1A 3319  14.010  11.214   9.857  0.0042  0.2106  0.1086
  208loPI   C2A 3320  14.010  11.415   9.529  0.4723 -0.1053  0.1240
  208loPI   C3A 3321  14.237  11.480   9.089  0.0146 -0.2013  0.3951
  208loPI   C4A 3322  14.170  11.375   8.682  0.0688  0.1269  0.2529
  208loPI   C5A 3323  14.151  11.287   8.244 -0.3604  0.0639 -0.0462
  208loPI   C6A 3324  14.162  10.915   7.911  0.0316 -0.0380 -0.0453
  208loPI   C1B 3325  14.205  10.709   9.710  0.1148  0.0242 -0.0698
  208loPI   C2B 3326  14.128  10.582   9.172 -0.1564  0.2168  0.0641
  208loPI   C3B 3327  13.914  10.441   8.747  0.0082 -0.2409  0.0845
  208loPI   C4B 3328  13.701  10.325   8.279 -0.0483  0.0328  0.0413
  209loPI    C1 3329  11.837  15.652  10.232  0.1502 -0.1103  0.0084
  209loPI    C2 3330  11.646  15.807  10.547 -0.0863  0.1312 -0.2475
  209loPI    C3 3331  11.661  15.410  10.497 -0.0257  0.0900  0.0777
  209loPI   PO4 3332  11.761  15.846  10.031 -0.1211  0.0650  0.2934
  209loPI   GL1 3333  11.543  15.877   9.679 -0.1011  0.0978 -0.0787
  209loPI   GL2 3334  11.856  15.882   9.540  0.1435 -0.0518 -0.1269
  209loPI   C1A 3335  11.442  16.168   9.472 -0.0600 -0.1400 -0.2257
  209loPI   C2A 3336  11.464  16.089   8.984  0.4037  0.1476 -0.0886
  209loPI   C3A 3337  11.592  16.161   8.566 -0.1437  0.0791 -0.1429
  209loPI   C4A 3338  11.551  15.803   8.263  0.0007 -0.1028 -0.0007
  209loPI   C5A 3339  11.660  15.488   8.353 -0.1991 -0.4583  0.0127
  209loPI   C6A 3340  11.803  15.428   8.801 -0.1067 -0.1156 -0.1979
  209loPI   C1B 3341  11.988  15.887   9.184 -0.1799  0.1841  0.3019
  209loPI   C2B 3342  11.933  15.897   8.771 -0.1735 -0.0626 -0.0536
  209loPI   C3B 3343  12.047  15.921   8.288 -0.1756 -0.0675 -0.0477
  209loPI   C4B 3344  11.909  15.766   7.932 -0.2892  0.3025 -0.0641
  210loPI    C1 3345   7.327   5.570  10.159  0.0315  0.0684  0.1766
  210loPI    C2 3346   6.978   5.544   9.966  0.1430 -0.1927  0.0038
  210loPI    C3 3347   7.015   5.386  10.331  0.0113  0.0576  0.1285
  210loPI   PO4 3348   7.491   5.639   9.896 -0.0380  0.0100  0.0900
  210loPI   GL1 3349   7.372   5.696   9.464  0.2488 -0.0620  0.1684
  210loPI   GL2 3350   7.653   5.966   9.481  0.0126  0.0960 -0.1290
  210loPI   C1A 3351   7.383   5.720   9.049  0.1762  0.2955 -0.0208
  210loPI   C2A 3352   7.380   5.833   8.635  0.1679 -0.2056  0.1105
  210loPI   C3A 3353   7.253   5.649   8.309 -0.2832  0.0141 -0.1750
  210loPI   C4A 3354   7.439   5.756   7.877  0.1509  0.2911 -0.2396
  210loPI   C5A 3355   7.375   6.080   7.612  0.0444 -0.0413 -0.0657
  210loPI   C6A 3356   7.190   6.496   7.413  0.0910  0.1646  0.1461
  210loPI   C1B 3357   7.674   6.211   9.122  0.1715 -0.0053 -0.1644
  210loPI   C2B 3358   7.818   6.324   8.657  0.1204  0.0412  0.0402
  210loPI   C3B 3359   7.680   6.427   8.243 -0.0655 -0.0923 -0.2133
  210loPI   C4B 3360   7.930   6.523   7.861  0.2314  0.0454 -0.0620
  211loPI    C1 3361  10.386  14.576  10.250 -0.0497  0.1975 -0.0279
  211loPI    C2 3362  10.214  14.220  10.310  0.2322  0.0346 -0.1668
  211loPI    C3 3363  10.484  14.358  10.570  0.1358  0.1415 -0.1220
  211loPI   PO4 3364  10.565  14.543   9.974  0.0485  0.0668 -0.0681
  211loPI   GL1 3365  10.625  14.695   9.689  0.0945  0.0222  0.1670
  211loPI   GL2 3366  10.939  14.822   9.934 -0.2366 -0.0185  0.3178
  211loPI   C1A 3367  10.695  14.971   9.357  0.0810  0.0277  0.1464
  211loPI   C2A 3368  10.865  15.295   9.131 -0.0671  0.2149  0.1367
  211loPI   C3A 3369  10.877  15.417   8.634 -0.0344  0.0223  0.0434
  211loPI   C4A 3370  11.048  15.507   8.265 -0.1495 -0.0527 -0.1309
  211loPI   C5A 3371  10.967  15.329   7.841  0.3333  0.1551  0.0722
  211loPI   C6A 3372  10.986  15.299   7.298 -0.2327 -0.0211 -0.0539
  211loPI   C1B 3373  11.082  14.687   9.506 -0.0530  0.0213 -0.1875
  211loPI   C2B 3374  10.808  14.524   9.144 -0.3861 -0.1850  0.2410
  211loPI   C3B 3375  10.799  14.455   8.674 -0.0400  0.0329  0.0201
  211loPI   C4B 3376  10.863  14.468   8.242  0.1265 -0.2581 -0.0927
  212loPI    C1 3377   3.952   0.570  10.733  0.0346  0.0510 -0.2953
  212loPI    C2 3378   4.039   0.186  10.663  0.0164  0.0117 -0.1086
  212loPI    C3 3379   4.226   0.382  10.956  0.1022  0.1767 -0.2716
  212loPI   PO4 3380   3.980   0.703  10.495  0.0078 -0.2015 -0.0070
  212loPI   GL1 3381   4.011   0.606  10.058 -0.1405 -0.0091 -0.2914
  212loPI   GL2 3382   4.164   0.269  10.103 -0.2010 -0.0052 -0.0905
  212loPI   C1A 3383   4.105   0.491   9.599  0.2072 -0.0377 -0.2131
  212loPI   C2A 3384   4.046   0.285   9.210  0.0010 -0.0337  0.1925
  212loPI   C3A 3385   3.756   0.423   8.800 -0.1919 -0.1533 -0.2915
  212loPI   C4A 3386   3.499   0.485   8.452  0.1965 -0.0506 -0.1066
  212loPI   C5A 3387   3.202   0.459   8.131 -0.2604 -0.1556  0.2341
  212loPI   C6A 3388   2.932   0.227   7.787  0.1030 -0.1877  0.0559
  212loPI   C1B 3389   3.987   0.033   9.757  0.0959 -0.0519  0.0613
  212loPI   C2B 3390   3.874  -0.206   9.421  0.0373  0.1134 -0.2889
  212loPI   C3B 3391   3.823  -0.245   9.038 -0.2817 -0.1548 -0.2778
  212loPI   C4B 3392   4.087   0.094   8.714  0.1542  0.1849  0.0836
  213loPI    C1 3393  12.710  14.332  10.571  0.1407 -0.0547 -0.0230
  213loPI    C2 3394  12.840  14.707  10.522  0.2537 -0.0940 -0.0265
  213loPI    C3 3395  12.902  14.518  10.869 -0.0916  0.0038  0.0921
  213loPI   PO4 3396  12.802  14.184  10.405 -0.0324  0.3540 -0.2165
  213loPI   GL1 3397  12.853  13.921   9.889  0.0740 -0.3964 -0.0500
  213loPI   GL2 3398  12.974  13.607   9.827  0.2384 -0.1686  0.0964
  213loPI   C1A 3399  13.055  13.999   9.432 -0.0724 -0.0427  0.0344
  213loPI   C2A 3400  13.225  13.738   9.009 -0.1831  0.0472  0.0094
  213loPI   C3A 3401  13.426  13.736   8.632  0.3070 -0.0505 -0.1428
  213loPI   C4A 3402  13.433  13.742   8.189 -0.2563  0.1475  0.0501
  213loPI   C5A 3403  13.231  13.704   7.804 -0.2269 -0.0487 -0.0079
  213loPI   C6A 3404  12.966  13.881   7.776  0.2411  0.0381  0.1699
  213loPI   C1B 3405  13.083  13.518   9.412 -0.0096  0.0751  0.1705
  213loPI   C2B 3406  13.035  13.212   9.040  0.1637 -0.1447 -0.1428
  213loPI   C3B 3407  13.074  13.200   8.592 -0.2249  0.2405  0.0686
  213loPI   C4B 3408  13.068  13.337   8.181  0.2073 -0.1381  0.1786
  214loPI    C1 3409   6.289   3.879  10.279  0.0751 -0.2541  0.3129
  214loPI    C2 3410   5.901   3.810  10.347 -0.0605  0.3018  0.1560
  214loPI    C3 3411   6.066   4.155  10.465  0.3144  0.1967 -0.0460
  214loPI   PO4 3412   6.321   3.869   9.979 -0.1905  0.1279  0.1127
  214loPI   GL1 3413   6.070   3.768   9.642 -0.2633 -0.1612  0.0930
  214loPI   GL2 3414   5.692   3.787   9.799  0.3977 -0.3215 -0.0697
  214loPI   C1A 3415   6.086   3.768   9.220 -0.0570 -0.0901  0.3207
  214loPI   C2A 3416   6.000   3.720   8.796 -0.1360 -0.1913  0.1326
  214loPI   C3A 3417   6.011   3.631   8.360 -0.1261  0.1370  0.1869
  214loPI   C4A 3418   5.909   3.704   7.918 -0.2569  0.2663  0.0676
  214loPI   C5A 3419   5.568   3.788   7.726 -0.1045 -0.0228  0.0367
  214loPI   C6A 3420   5.297   3.568   7.430  0.0312 -0.0323  0.1739
  214loPI   C1B 3421   5.520   3.887   9.376  0.0179 -0.0793 -0.1449
  214loPI   C2B 3422   5.614   3.979   8.921 -0.2088  0.4422 -0.0540
  214loPI   C3B 3423   5.672   4.124   8.572 -0.0359  0.0290  0.2798
  214loPI   C4B 3424   5.756   4.029   8.224 -0.2361  0.3863 -0.1412
  215loPI    C1 3425  16.655  17.858  10.741  0.0897 -0.2505 -0.0487
  215loPI    C2 3426  16.699  18.138  10.459 -0.1773 -0.0981  0.0569
  215loPI    C3 3427  16.991  18.076  10.726 -0.0235 -0.0778 -0.1042
  215loPI   PO4 3428  16.593  17.600  10.616  0.1865  0.2146  0.4250
  215loPI   GL1 3429  16.591  17.260  10.322 -0.0263 -0.0853  0.1319
  215loPI   GL2 3430  16.907  17.173  10.158 -0.1668 -0.1194 -0.0092
  215loPI   C1A 3431  16.522  17.208   9.851  0.1277  0.1232  0.1893
  215loPI   C2A 3432  16.690  17.287   9.460  0.2524 -0.2173  0.0061
  215loPI   C3A 3433  16.747  17.385   9.070  0.1492  0.2418 -0.2681
  215loPI   C4A 3434  16.698  17.461   8.658  0.1388  0.1782  0.1088
  215loPI   C5A 3435  16.739  17.692   8.218  0.1213  0.1357 -0.0933
  215loPI   C6A 3436  16.880  17.757   7.798  0.1942  0.2157  0.1008
  215loPI   C1B 3437  17.042  17.197   9.744 -0.3662  0.1616  0.1074
  215loPI   C2B 3438  17.206  17.201   9.295  0.1438  0.2902  0.0759
  215loPI   C3B 3439  17.178  17.337   8.808  0.0127  0.3838  0.1931
  215loPI   C4B 3440  17.222  17.409   8.430 -0.1213 -0.0269  0.2440
  216loPI    C1 3441   8.397  17.357  10.432  0.1593  0.1389  0.2321
  216loPI    C2 3442   8.599  17.496  10.748  0.1280 -0.2387  0.4244
  216loPI    C3 3443   8.463  17.120  10.747 -0.0266 -0.1872  0.0320
  216loPI   PO4 3444   8.650  17.464  10.154 -0.0932  0.2618 -0.1146
  216loPI   GL1 3445   8.888  17.399   9.805 -0.0332 -0.1553 -0.1911
  216loPI   GL2 3446   9.164  17.626   9.794 -0.2028  0.2092 -0.0126
  216loPI   C1A 3447   8.977  17.151   9.438 -0.1130  0.1494  0.0102
  216loPI   C2A 3448   9.099  17.085   9.058  0.2069 -0.1418  0.0217
  216loPI   C3A 3449   8.957  17.075   8.570 -0.1125 -0.2627 -0.3329
  216loPI   C4A 3450   9.131  17.153   8.232  0.0527  0.2964  0.1902
  216loPI   C5A 3451   9.473  17.164   7.927  0.0633  0.0710 -0.2048
  216loPI   C6A 3452   9.574  16.928   7.651  0.1699  0.2159 -0.0213
  216loPI   C1B 3453   9.251  17.590   9.412 -0.2199  0.0513 -0.0689
  216loPI   C2B 3454   9.439  17.748   9.153 -0.3911 -0.2209 -0.0351
  216loPI   C3B 3455   9.507  17.846   8.714  0.0124 -0.2895  0.1282
  216loPI   C4B 3456   9.368  17.589   8.271 -0.0031 -0.3768  0.0070
  217loPI    C1 3457   3.282   3.574  10.702 -0.0219  0.0453 -0.0304
  217loPI    C2 3458   3.011   3.301  10.812  0.0750 -0.0083  0.0770
  217loPI    C3 3459   3.303   3.406  11.064  0.1345  0.0742 -0.0254
  217loPI   PO4 3460   3.164   3.745  10.544  0.1173  0.0989 -0.2480
  217loPI   GL1 3461   3.094   3.753  10.065 -0.0701  0.1669 -0.1660
  217loPI   GL2 3462   2.820   3.703   9.796 -0.0947 -0.1011 -0.0692
  217loPI   C1A 3463   3.128   4.019   9.685 -0.2902  0.3037  0.0429
  217loPI   C2A 3464   3.091   4.043   9.232 -0.3639 -0.0862  0.0507
  217loPI   C3A 3465   3.270   4.063   8.747  0.0057  0.0927 -0.0214
  217loPI   C4A 3466   3.553   4.381   8.542  0.3585 -0.1923 -0.1681
  217loPI   C5A 3467   3.993   4.540   8.403  0.1095 -0.4393 -0.2041
  217loPI   C6A 3468   4.373   4.546   8.350  0.0559 -0.1932  0.0211
  217loPI   C1B 3469   2.683   3.835   9.431  0.0520 -0.1600 -0.0913
  217loPI   C2B 3470   2.608   3.932   8.979  0.2809  0.1895  0.0836
  217loPI   C3B 3471   2.442   3.799   8.533  0.0986 -0.0791 -0.1316
  217loPI   C4B 3472   2.275   3.627   8.189 -0.2671 -0.0389 -0.1856
  218loPI    C1 3473   0.822  13.430  10.177 -0.0293 -0.1993  0.0694
  218loPI    C2 3474   0.933  13.610  10.516  0.1167 -0.0598 -0.0512
  218loPI    C3 3475   0.605  13.382  10.510 -0.0514  0.1731  0.1125
  218loPI   PO4 3476   0.823  13.555  10.010  0.1129  0.0175  0.0708
  218loPI   GL1 3477   0.708  13.651   9.642 -0.2738 -0.1872  0.0302
  218loPI   GL2 3478   0.427  13.636   9.552 -0.0895 -0.0317 -0.0135
  218loPI   C1A 3479   0.886  13.636   9.298 -0.1568  0.1814 -0.0340
  218loPI   C2A 3480   0.861  13.713   8.940  0.1645  0.0232 -0.2624
  218loPI   C3A 3481   0.828  13.723   8.497 -0.0670 -0.0647  0.0809
  218loPI   C4A 3482   1.102  13.782   8.127  0.2960  0.1502 -0.1806
  218loPI   C5A 3483   1.050  13.863   7.728  0.0454  0.1419  0.0324
  218loPI   C6A 3484   1.015  14.020   7.374 -0.1791 -0.1059  0.1438
  218loPI   C1B 3485   0.312  13.738   9.180  0.0232 -0.0786  0.0908
  218loPI   C2B 3486   0.245  13.766   8.702  0.0384  0.0226  0.1309
  218loPI   C3B 3487   0.298  13.944   8.388 -0.1948  0.4109  0.0852
  218loPI   C4B 3488   0.419  13.891   8.010 -0.2136  0.1994 -0.0858
  219loPI    C1 3489   8.981  12.882  10.492 -0.0320 -0.1112  0.0433
  219loPI    C2 3490   9.079  13.218  10.298 -0.1386 -0.0441  0.1044
  219loPI    C3 3491   9.221  13.151  10.666  0.0741 -0.1772  0.0002
  219loPI   PO4 3492   9.107  12.677  10.403  0.1232  0.1176  0.0903
  219loPI   GL1 3493   9.433  12.518  10.171 -0.0050 -0.0483  0.1181
  219loPI   GL2 3494   9.538  12.662   9.963 -0.2151  0.1868 -0.0283
  219loPI   C1A 3495   9.294  12.222   9.705  0.1945  0.2041 -0.1709
  219loPI   C2A 3496   9.144  11.980   9.396  0.3366 -0.2752 -0.3349
  219loPI   C3A 3497   9.125  12.063   8.960  0.0438 -0.0484 -0.0791
  219loPI   C4A 3498   9.107  12.056   8.616  0.1630 -0.0941  0.0775
  219loPI   C5A 3499   8.820  11.992   8.224  0.1324 -0.1892  0.1864
  219loPI   C6A 3500   8.603  11.977   7.890 -0.1774  0.0929 -0.0234
  219loPI   C1B 3501   9.615  12.778   9.577  0.0422 -0.1269  0.0329
  219loPI   C2B 3502   9.747  12.813   9.108 -0.1902  0.1324 -0.1521
  219loPI   C3B 3503   9.767  12.801   8.620  0.1559  0.0712 -0.0068
  219loPI   C4B 3504   9.878  12.693   8.200  0.0813 -0.4534  0.4178
  220loPI    C1 3505   7.708  11.004  10.281  0.0796 -0.1189 -0.1548
  220loPI    C2 3506   8.018  11.256  10.282  0.0844 -0.1248 -0.0784
  220loPI    C3 3507   8.066  10.878  10.406  0.0212 -0.0941  0.0412
  220loPI   PO4 3508   7.648  11.040  10.067 -0.0349  0.0027  0.1573
  220loPI   GL1 3509   7.700  11.305   9.769  0.0644  0.2324 -0.0338
  220loPI   GL2 3510   7.238  11.353   9.791 -0.2995 -0.2425  0.0306
  220loPI   C1A 3511   8.166  11.402   9.506 -0.0387 -0.1510  0.1451
  220loPI   C2A 3512   8.556  11.262   9.353 -0.1182  0.0797  0.0057
  220loPI   C3A 3513   8.652  11.250   8.950 -0.0536 -0.3280 -0.0848
  220loPI   C4A 3514   8.399  11.334   8.644  0.1370  0.0804 -0.3308
  220loPI   C5A 3515   8.091  11.425   8.298 -0.3074  0.2735 -0.1148
  220loPI   C6A 3516   7.828  11.506   7.963  0.2163 -0.0457 -0.2651
  220loPI   C1B 3517   7.248  11.480   9.398  0.1316  0.1603 -0.0001
  220loPI   C2B 3518   7.152  11.437   8.981 -0.0815 -0.2163 -0.0847
  220loPI   C3B 3519   7.043  11.306   8.608  0.0032 -0.2890 -0.0914
  220loPI   C4B 3520   7.183  11.328   8.194  0.0622  0.0367 -0.2050
  221loPI    C1 3521   1.103   4.257  10.523  0.0890  0.1992  0.2054
  221loPI    C2 3522   0.983   4.170  10.895 -0.1202  0.0971  0.1159
  221loPI    C3 3523   0.831   3.970  10.584  0.0100  0.2220 -0.0300
  221loPI   PO4 3524   1.322   4.182  10.504  0.0480 -0.1736 -0.1999
  221loPI   GL1 3525   1.583   4.311  10.201  0.1641  0.2530 -0.2622
  221loPI   GL2 3526   1.946   4.212  10.153 -0.0258  0.0811  0.1422
  221loPI   C1A 3527   1.367   4.187   9.869  0.0015 -0.0441  0.2082
  221loPI   C2A 3528   1.125   3.958   9.595 -0.3699 -0.0567 -0.1248
  221loPI   C3A 3529   1.142   3.935   9.106  0.0941 -0.2646 -0.2280
  221loPI   C4A 3530   1.073   3.939   8.676  0.0389  0.0070 -0.0287
  221loPI   C5A 3531   1.307   4.158   8.293  0.3786  0.0287 -0.0402
  221loPI   C6A 3532   1.714   4.461   8.176  0.0610  0.2089  0.1343
  221loPI   C1B 3533   1.873   4.083   9.733 -0.0819  0.1832  0.2637
  221loPI   C2B 3534   1.677   4.145   9.249  0.2285 -0.2362  0.2891
  221loPI   C3B 3535   1.603   4.138   8.854 -0.2364 -0.0170  0.1562
  221loPI   C4B 3536   1.806   4.361   8.639 -0.2527 -0.1159 -0.3370
  222loPI    C1 3537   7.618  17.064  10.632 -0.0500  0.1082 -0.2721
  222loPI    C2 3538   7.651  17.312  10.944 -0.0233 -0.0236 -0.1689
  222loPI    C3 3539   7.968  17.102  10.821 -0.0971 -0.1605 -0.1261
  222loPI   PO4 3540   7.445  17.206  10.455 -0.1337  0.2198  0.2678
  222loPI   GL1 3541   7.103  17.328  10.262  0.2036  0.0391  0.1211
  222loPI   GL2 3542   7.017  17.644  10.293 -0.0033  0.0647 -0.0583
  222loPI   C1A 3543   7.244  17.342   9.765  0.0100 -0.0862 -0.0642
  222loPI   C2A 3544   7.489  17.333   9.484  0.1774  0.0058  0.0281
  222loPI   C3A 3545   7.688  17.481   9.033  0.0843 -0.0197  0.1253
  222loPI   C4A 3546   7.453  17.540   8.589  0.1110  0.1463  0.0555
  222loPI   C5A 3547   7.238  17.716   8.574  0.3532 -0.1383  0.0783
  222loPI   C6A 3548   7.163  18.165   8.372 -0.1268  0.1149 -0.0098
  222loPI   C1B 3549   7.072  17.869   9.908 -0.2232  0.1060  0.0564
  222loPI   C2B 3550   7.146  18.176   9.538  0.2288  0.2183 -0.0154
  222loPI   C3B 3551   7.163  18.365   9.091 -0.0848  0.0266 -0.0246
  222loPI   C4B 3552   6.896  18.339   8.751 -0.0185 -0.0823  0.2351
  223loPI    C1 3553  13.699  13.803  10.164  0.0509 -0.1096  0.0212
  223loPI    C2 3554  13.793  13.582  10.485 -0.0841 -0.1333  0.0450
  223loPI    C3 3555  13.995  13.919  10.407  0.0413 -0.2007  0.0769
  223loPI   PO4 3556  13.753  13.753   9.986 -0.2297 -0.1672  0.0767
  223loPI   GL1 3557  13.801  13.589   9.644 -0.0329 -0.0867  0.0811
  223loPI   GL2 3558  13.995  13.950   9.565  0.2026 -0.2150 -0.1083
  223loPI   C1A 3559  13.715  13.675   9.240  0.1045  0.1222  0.1221
  223loPI   C2A 3560  13.871  13.792   8.820 -0.3693 -0.2198 -0.1664
  223loPI   C3A 3561  13.914  13.734   8.413 -0.1148 -0.1490  0.1611
  223loPI   C4A 3562  14.121  13.710   7.910 -0.1105 -0.0707 -0.0780
  223loPI   C5A 3563  14.153  13.377   7.680  0.2349 -0.0504 -0.1223
  223loPI   C6A 3564  14.113  12.988   7.740 -0.1363 -0.1746  0.1820
  223loPI   C1B 3565  14.146  14.088   9.171  0.0149  0.1884  0.0112
  223loPI   C2B 3566  14.257  14.128   8.697  0.0805  0.1854 -0.1222
  223loPI   C3B 3567  14.233  14.106   8.320  0.0546 -0.0830  0.1655
  223loPI   C4B 3568  14.373  14.477   7.971  0.0032  0.1410 -0.0450
  224loPI    C1 3569   5.050   9.248  10.020 -0.0165  0.0826  0.0803
  224loPI    C2 3570   5.208   9.132  10.369  0.0097  0.1447  0.0893
  224loPI    C3 3571   4.831   9.035  10.278  0.0319  0.0515  0.0960
  224loPI   PO4 3572   5.324   9.209   9.843  0.3401 -0.1373 -0.0628
  224loPI   GL1 3573   5.450   9.234   9.503 -0.1791  0.1339 -0.0451
  224loPI   GL2 3574   5.435   8.898   9.351 -0.0667 -0.0649  0.1427
  224loPI   C1A 3575   5.515   9.557   9.220  0.0567 -0.1227  0.2075
  224loPI   C2A 3576   5.602   9.625   8.838 -0.2398 -0.1413 -0.0390
  224loPI   C3A 3577   5.701   9.707   8.394  0.3235 -0.1611 -0.1210
  224loPI   C4A 3578   5.758   9.963   8.143 -0.1798 -0.2090 -0.1321
  224loPI   C5A 3579   6.039  10.169   7.986  0.1598 -0.1991 -0.1834
  224loPI   C6A 3580   6.287  10.084   7.655  0.2969  0.2931 -0.2243
  224loPI   C1B 3581   5.537   9.080   8.943  0.0995  0.0931  0.2004
  224loPI   C2B 3582   5.711   9.103   8.672  0.2218 -0.0752 -0.0329
  224loPI   C3B 3583   5.916   9.283   8.293  0.0009 -0.1060  0.0091
  224loPI   C4B 3584   5.816   9.175   7.894 -0.2119 -0.0195 -0.1445
  225loPI    C1 3585   3.812  10.860  10.298  0.1054 -0.0628 -0.0489
  225loPI    C2 3586   4.187  10.921  10.423  0.0530 -0.0544  0.1063
  225loPI    C3 3587   3.886  10.925  10.686 -0.0763  0.1116 -0.0418
  225loPI   PO4 3588   3.839  10.669  10.171  0.0192  0.1305 -0.1995
  225loPI   GL1 3589   3.988  10.522   9.833  0.3388  0.0705 -0.2667
  225loPI   GL2 3590   3.936  10.270   9.633  0.0285 -0.0305 -0.1036
  225loPI   C1A 3591   4.070  10.828   9.489 -0.0028 -0.1801 -0.0955
  225loPI   C2A 3592   4.089  11.102   9.078 -0.0024  0.0260  0.0661
  225loPI   C3A 3593   4.152  11.049   8.682 -0.1129 -0.0716  0.2504
  225loPI   C4A 3594   4.181  10.810   8.297 -0.0421 -0.2663 -0.2599
  225loPI   C5A 3595   4.251  10.645   7.917 -0.0541  0.1999  0.2355
  225loPI   C6A 3596   4.171  10.477   7.461  0.2237  0.2307  0.0628
  225loPI   C1B 3597   3.830  10.234   9.226  0.0498  0.2403  0.1278
  225loPI   C2B 3598   3.902  10.324   8.818  0.2156  0.0459 -0.0285
  225loPI   C3B 3599   3.935  10.360   8.408 -0.1674 -0.0110 -0.2358
  225loPI   C4B 3600   4.266  10.183   8.086  0.3419  0.0191 -0.0376
  226loPI    C1 3601   7.939  14.495  10.030  0.0785 -0.0085 -0.0256
  226loPI    C2 3602   7.554  14.559   9.944  0.0908 -0.0388 -0.1036
  226loPI    C3 3603   7.667  14.502  10.323  0.0300  0.0506 -0.0719
  226loPI   PO4 3604   8.021  14.607   9.871  0.0865  0.2272  0.1504
  226loPI   GL1 3605   8.028  14.674   9.423 -0.0361 -0.0998 -0.0512
  226loPI   GL2 3606   8.387  14.577   9.474 -0.2545 -0.1003  0.3201
  226loPI   C1A 3607   8.030  14.615   8.958 -0.1004 -0.1279 -0.0135
  226loPI   C2A 3608   8.079  14.536   8.486 -0.1892  0.2393  0.1253
  226loPI   C3A 3609   8.166  14.483   8.048 -0.1479  0.2234 -0.2436
  226loPI   C4A 3610   7.962  14.714   7.749 -0.3202  0.0522 -0.2186
  226loPI   C5A 3611   7.721  15.077   7.693  0.1346  0.4799  0.0033
  226loPI   C6A 3612   7.495  15.501   7.713  0.0879  0.0732 -0.0786
  226loPI   C1B 3613   8.530  14.484   9.046  0.0261 -0.0041 -0.0973
  226loPI   C2B 3614   8.580  14.608   8.550  0.0915  0.1061 -0.3879
  226loPI   C3B 3615   8.702  14.765   8.156  0.0476 -0.0222 -0.1996
  226loPI   C4B 3616   8.784  14.531   7.782 -0.0293 -0.1240  0.0330
  227loPI    C1 3617   1.696   8.009  10.385  0.0436 -0.0005  0.1092
  227loPI    C2 3618   1.427   8.258  10.226  0.0989 -0.0468 -0.0590
  227loPI    C3 3619   1.524   8.290  10.613 -0.1877 -0.0649  0.0170
  227loPI   PO4 3620   1.763   7.871  10.126  0.3651 -0.0275  0.2975
  227loPI   GL1 3621   2.073   7.953   9.758 -0.0885 -0.0420  0.1425
  227loPI   GL2 3622   2.427   8.149   9.733  0.1138  0.0910 -0.1866
  227loPI   C1A 3623   1.853   8.278   9.499 -0.0376  0.1745 -0.1510
  227loPI   C2A 3624   1.902   8.388   9.085 -0.2310  0.0260 -0.1777
  227loPI   C3A 3625   1.819   8.553   8.584  0.1308  0.0042 -0.1552
  227loPI   C4A 3626   1.911   8.475   8.195 -0.2511 -0.1991  0.0944
  227loPI   C5A 3627   1.768   8.558   7.744  0.1421 -0.0381 -0.1774
  227loPI   C6A 3628   1.394   8.439   7.551  0.1862  0.0248  0.4282
  227loPI   C1B 3629   2.298   8.197   9.345  0.0232 -0.0569  0.0087
  227loPI   C2B 3630   2.331   8.172   8.852  0.1648 -0.1108 -0.0467
  227loPI   C3B 3631   2.254   8.090   8.444  0.1515 -0.0176 -0.2424
  227loPI   C4B 3632   2.315   8.083   7.989 -0.1066 -0.0480 -0.0948
  228loPI    C1 3633  10.469   0.066  10.655  0.2062 -0.0169 -0.0462
  228loPI    C2 3634  10.384  -0.282  10.833 -0.1351  0.0177 -0.1333
  228loPI    C3 3635  10.103  -0.000  10.802  0.1187  0.2768 -0.1258
  228loPI   PO4 3636  10.655  -0.036  10.493  0.0669 -0.0581  0.2646
  228loPI   GL1 3637  11.089  -0.263  10.449 -0.3069 -0.0079 -0.0499
  228loPI   GL2 3638  11.010  -0.181  10.097  0.0649 -0.0205 -0.0217
  228loPI   C1A 3639  11.476  -0.105  10.346  0.2423  0.0684 -0.0957
  228loPI   C2A 3640  11.817  -0.190  10.159  0.1370 -0.0108 -0.3166
  228loPI   C3A 3641  11.850  -0.166   9.740 -0.1002 -0.3011  0.0683
  228loPI   C4A 3642  11.885  -0.051   9.399 -0.1638 -0.1921 -0.1079
  228loPI   C5A 3643  11.975  -0.153   9.086 -0.2659 -0.0955 -0.3522
  228loPI   C6A 3644  11.866  -0.461   8.685  0.2851  0.1061 -0.1048
  228loPI   C1B 3645  11.364  -0.097   9.865  0.0015  0.1802  0.0288
  228loPI   C2B 3646  11.406  -0.018   9.418  0.2304  0.2395 -0.2523
  228loPI   C3B 3647  11.440  -0.010   9.021 -0.0686 -0.1891  0.1769
  228loPI   C4B 3648  11.275   0.175   8.659  0.3072  0.1345 -0.0551
  229loPI    C1 3649  13.383   5.568  10.883 -0.1631  0.2147 -0.0712
  229loPI    C2 3650  13.595   5.657  11.210 -0.0959 -0.0157 -0.0506
  229loPI    C3 3651  13.781   5.532  10.879 -0.1838 -0.0279 -0.0957
  229loPI   PO4 3652  13.190   5.789  10.698  0.4495 -0.2585  0.0600
  229loPI   GL1 3653  13.026   5.612  10.391 -0.0876 -0.1908 -0.0683
  229loPI   GL2 3654  13.183   5.347  10.358  0.1063  0.1375 -0.3839
  229loPI   C1A 3655  12.816   5.665  10.031 -0.1614 -0.1461 -0.2396
  229loPI   C2A 3656  12.913   5.678   9.584 -0.3309  0.0333  0.1056
  229loPI   C3A 3657  12.957   5.727   9.187 -0.4235 -0.0460  0.1010
  229loPI   C4A 3658  13.129   5.470   8.888 -0.0086 -0.2069 -0.0913
  229loPI   C5A 3659  13.234   5.592   8.463 -0.1139 -0.0038 -0.0272
  229loPI   C6A 3660  13.538   5.914   8.401  0.2203 -0.0421 -0.0219
  229loPI   C1B 3661  13.146   5.323   9.897  0.0846 -0.4472 -0.0530
  229loPI   C2B 3662  13.160   5.272   9.471 -0.3788 -0.0874 -0.1224
  229loPI   C3B 3663  13.118   5.005   9.104  0.0588  0.0677 -0.0163
  229loPI   C4B 3664  12.770   4.689   8.953 -0.1363 -0.1057 -0.1708
  230loPI    C1 3665   4.628   8.575  10.164  0.0197 -0.0818 -0.1302
  230loPI    C2 3666   4.878   8.269  10.102  0.0160 -0.0948 -0.0821
  230loPI    C3 3667   4.652   8.278  10.432 -0.0472 -0.0832 -0.1255
  230loPI   PO4 3668   4.452   8.564   9.882  0.1256  0.1160 -0.1451
  230loPI   GL1 3669   4.259   8.378   9.590 -0.1878  0.0112 -0.1279
  230loPI   GL2 3670   4.164   8.704   9.442 -0.5243  0.1979 -0.3829
  230loPI   C1A 3671   3.943   8.289   9.261 -0.1008 -0.2127 -0.1564
  230loPI   C2A 3672   3.671   8.019   8.963 -0.2852  0.1721 -0.0462
  230loPI   C3A 3673   3.538   7.767   8.656 -0.0394  0.1338  0.1082
  230loPI   C4A 3674   3.600   7.669   8.235  0.1587 -0.2320  0.1835
  230loPI   C5A 3675   3.564   7.420   7.967 -0.0793  0.1415  0.3269
  230loPI   C6A 3676   3.654   6.885   7.932  0.2102 -0.0177 -0.2701
  230loPI   C1B 3677   4.094   8.780   9.124  0.0831 -0.1784  0.1752
  230loPI   C2B 3678   4.026   8.952   8.753  0.1421 -0.0577  0.0887
  230loPI   C3B 3679   3.613   8.913   8.517 -0.0454 -0.0862 -0.0926
  230loPI   C4B 3680   3.534   8.951   8.161  0.1145 -0.0632 -0.0468
  231loPI    C1 3681   6.635   8.680  10.286  0.0513 -0.1653 -0.0363
  231loPI    C2 3682   6.410   8.485  10.554  0.0758 -0.1707 -0.0196
  231loPI    C3 3683   6.363   8.878  10.502 -0.0269 -0.1942 -0.1078
  231loPI   PO4 3684   6.609   8.560  10.049  0.0611 -0.1090 -0.0679
  231loPI   GL1 3685   6.365   8.431   9.614  0.0979 -0.2105 -0.3542
  231loPI   GL2 3686   6.501   8.061   9.690  0.1488  0.2972  0.1361
  231loPI   C1A 3687   6.152   8.390   9.174 -0.2001  0.2888 -0.0147
  231loPI   C2A 3688   6.087   8.254   8.807 -0.0280  0.1558 -0.1345
  231loPI   C3A 3689   6.104   7.917   8.502  0.0235 -0.2039 -0.0702
  231loPI   C4A 3690   5.847   7.576   8.282 -0.2615  0.1219  0.1217
  231loPI   C5A 3691   5.560   7.327   8.125 -0.1189  0.2106  0.0808
  231loPI   C6A 3692   5.098   7.436   7.984 -0.0740  0.0509  0.1346
  231loPI   C1B 3693   6.488   8.005   9.261  0.0250 -0.0736 -0.2095
  231loPI   C2B 3694   6.069   7.835   9.140  0.0178 -0.0651 -0.1891
  231loPI   C3B 3695   5.792   7.686   8.822 -0.2033 -0.0041  0.3508
  231loPI   C4B 3696   5.894   7.260   8.701  0.1124 -0.2029  0.2755
  232loPI    C1 3697  17.456  11.680  10.561 -0.2428  0.1182  0.0166
  232loPI    C2 3698  17.331  11.792  10.924 -0.2892 -0.0261  0.0453
  232loPI    C3 3699  17.349  11.404  10.829  0.1390 -0.0108  0.0422
  232loPI   PO4 3700  17.388  11.902  10.358 -0.1118 -0.1047 -0.2435
  232loPI   GL1 3701  17.403  12.072   9.958 -0.1765  0.0405 -0.1621
  232loPI   GL2 3702  17.610  12.322   9.875 -0.0644 -0.0274  0.0777
  232loPI   C1A 3703  17.374  12.028   9.471 -0.0210 -0.1141 -0.3685
  232loPI   C2A 3704  17.412  12.137   9.090  0.1271 -0.0962  0.0924
  232loPI   C3A 3705  17.321  12.236   8.657  0.0228 -0.2156  0.1048
  232loPI   C4A 3706  17.130  12.073   8.314 -0.1559 -0.2785 -0.4086
  232loPI   C5A 3707  16.861  11.829   8.103  0.0751  0.1081 -0.0117
  232loPI   C6A 3708  16.772  11.362   8.123 -0.0240  0.0058 -0.0463
  232loPI   C1B 3709  17.728  12.531   9.503 -0.0153 -0.0186  0.0175
  232loPI   C2B 3710  17.696  12.559   9.065 -0.1261 -0.2149 -0.0965
  232loPI   C3B 3711  17.641  12.603   8.632  0.0517  0.1698  0.0433
  232loPI   C4B 3712  17.587  12.579   8.232  0.1931 -0.0839 -0.0468
  233loPI    C1 3713   4.911   5.345  10.242 -0.1478  0.1147 -0.0821
  233loPI    C2 3714   4.836   5.414  10.629 -0.2826 -0.1467 -0.0590
  233loPI    C3 3715   5.141   5.178  10.523 -0.1377  0.0644 -0.1202
  233loPI   PO4 3716   5.032   5.531  10.097  0.0592  0.0855  0.0112
  233loPI   GL1 3717   5.146   5.546   9.755  0.0549  0.0995 -0.1480
  233loPI   GL2 3718   5.324   5.788   9.639  0.2245 -0.1670  0.0716
  233loPI   C1A 3719   5.075   5.132   9.502  0.0082  0.1364  0.1281
  233loPI   C2A 3720   5.167   4.821   9.302  0.0447  0.1301 -0.1062
  233loPI   C3A 3721   5.058   4.706   8.918  0.0671 -0.3007 -0.2460
  233loPI   C4A 3722   4.973   4.705   8.414  0.1175 -0.2102 -0.2405
  233loPI   C5A 3723   5.012   4.801   8.017 -0.0322  0.0059  0.2201
  233loPI   C6A 3724   4.743   5.173   7.811  0.0577  0.2315 -0.0183
  233loPI   C1B 3725   5.348   5.743   9.122  0.1604  0.0491 -0.1123
  233loPI   C2B 3726   5.061   5.663   8.779 -0.3178 -0.0283 -0.0482
  233loPI   C3B 3727   4.812   5.678   8.432  0.1361  0.0305 -0.2761
  233loPI   C4B 3728   4.661   5.659   8.073  0.0226 -0.1685  0.1217
  234loPI    C1 3729   3.225  11.723  10.326  0.0579  0.1186  0.0811
  234loPI    C2 3730   3.049  12.067  10.433 -0.2927 -0.0029 -0.0910
  234loPI    C3 3731   3.137  11.792  10.710 -0.1727  0.1504  0.0242
  234loPI   PO4 3732   3.328  11.795  10.088  0.0877 -0.0195 -0.1749
  234loPI   GL1 3733   3.308  11.580   9.735 -0.0628  0.0036 -0.2154
  234loPI   GL2 3734   3.216  11.268   9.579 -0.1049 -0.1951 -0.0380
  234loPI   C1A 3735   2.929  11.742   9.607  0.2406 -0.1114  0.0824
  234loPI   C2A 3736   2.536  11.976   9.666  0.0004  0.1670  0.0827
  234loPI   C3A 3737   2.131  11.978   9.478 -0.0786  0.1507 -0.1732
  234loPI   C4A 3738   1.933  11.965   9.098  0.0348 -0.2907 -0.1902
  234loPI   C5A 3739   1.860  12.058   8.689 -0.1113 -0.0847 -0.1182
  234loPI   C6A 3740   1.702  12.071   8.362 -0.1087  0.1718  0.3010
  234loPI   C1B 3741   3.199  11.561   9.198 -0.0674 -0.1512 -0.3241
  234loPI   C2B 3742   3.184  11.457   8.760 -0.0674  0.0836  0.3318
  234loPI   C3B 3743   3.010  11.366   8.375  0.1145 -0.2449 -0.2174
  234loPI   C4B 3744   2.830  11.450   7.962 -0.0072  0.0954  0.1845
  235loPI    C1 3745   7.367   7.307   9.967  0.1367 -0.1196  0.0309
  235loPI    C2 3746   7.334   7.705   9.944  0.2344 -0.1000  0.2099
  235loPI    C3 3747   7.133   7.503  10.226  0.0427 -0.1982  0.0060
  235loPI   PO4 3748   7.593   7.266   9.863 -0.0908 -0.0665 -0.2002
  235loPI   GL1 3749   7.656   7.492   9.483 -0.0520 -0.0446  0.2903
  235loPI   GL2 3750   7.798   7.358   9.213  0.0759  0.1370 -0.1662
  235loPI   C1A 3751   7.345   7.559   9.125  0.1256  0.1163 -0.0706
  235loPI   C2A 3752   7.236   7.598   8.655 -0.1077  0.0216  0.0479
  235loPI   C3A 3753   7.028   7.561   8.292 -0.2540 -0.0525  0.1976
  235loPI   C4A 3754   6.886   7.286   8.061 -0.1543  0.1991 -0.0989
  235loPI   C5A 3755   7.036   6.878   7.906 -0.0089  0.2554  0.1866
  235loPI   C6A 3756   7.405   6.621   7.879  0.0721  0.1370  0.0915
  235loPI   C1B 3757   7.751   7.023   8.971  0.2042 -0.0140 -0.2504
  235loPI   C2B 3758   7.758   6.841   8.575 -0.1609  0.1782 -0.0490
  235loPI   C3B 3759   7.701   6.982   8.091  0.0090 -0.0640  0.3314
  235loPI   C4B 3760   7.400   7.208   7.929 -0.1053 -0.0028  0.2348
  236loPI    C1 3761   2.863  14.213  10.323 -0.0622 -0.1641 -0.1305
  236loPI    C2 3762   2.804  13.836  10.440  0.0201 -0.1837 -0.1516
  236loPI    C3 3763   2.916  14.112  10.707 -0.0995 -0.1609 -0.1245
  236loPI   PO4 3764   2.595  14.258  10.239  0.1631 -0.0172  0.4108
  236loPI   GL1 3765   2.667  14.490   9.948 -0.2165  0.2457  0.0608
  236loPI   GL2 3766   2.388  14.566   9.929  0.0734 -0.3669 -0.0699
  236loPI   C1A 3767   2.699  14.625   9.417  0.5549  0.0211 -0.2087
  236loPI   C2A 3768   2.586  14.546   9.102  0.1964 -0.1332  0.0955
  236loPI   C3A 3769   2.651  14.383   8.664 -0.2385 -0.1113 -0.2043
  236loPI   C4A 3770   2.491  14.186   8.259  0.1335  0.0914  0.0491
  236loPI   C5A 3771   2.269  13.872   8.080 -0.1067 -0.0604  0.0650
  236loPI   C6A 3772   1.983  13.695   7.723 -0.1496  0.0604 -0.1297
  236loPI   C1B 3773   2.197  14.898   9.665 -0.0618  0.2601 -0.0724
  236loPI   C2B 3774   2.316  14.991   9.241  0.2231  0.0730 -0.1362
  236loPI   C3B 3775   2.499  15.060   8.878 -0.3762  0.0139  0.0975
  236loPI   C4B 3776   2.722  14.885   8.541  0.0550  0.1642  0.2905
  237loPI    C1 3777  14.255  11.604  10.085 -0.1071 -0.0427 -0.0439
  237loPI    C2 3778  13.974  11.814   9.893 -0.0988  0.0147  0.0064
  237loPI    C3 3779  13.895  11.656  10.251 -0.0485  0.0791  0.0460
  237loPI   PO4 3780  14.422  11.698  10.013 -0.2132  0.0435  0.1031
  237loPI   GL1 3781  14.481  11.765   9.604 -0.1237  0.3064 -0.2952
  237loPI   GL2 3782  14.685  11.542   9.626  0.0097 -0.5391  0.1453
  237loPI   C1A 3783  14.511  11.885   9.064 -0.2035  0.0253 -0.1295
  237loPI   C2A 3784  14.456  11.915   8.586  0.0857 -0.2186 -0.3048
  237loPI   C3A 3785  14.409  11.847   8.204 -0.0025 -0.4546  0.0594
  237loPI   C4A 3786  14.157  11.745   7.844 -0.0239 -0.0857 -0.2723
  237loPI   C5A 3787  13.926  11.390   7.757  0.0396 -0.1377 -0.1643
  237loPI   C6A 3788  13.512  11.258   7.718 -0.0349  0.0120  0.0903
  237loPI   C1B 3789  14.723  11.386   9.197  0.2392 -0.2887 -0.1360
  237loPI   C2B 3790  14.682  11.478   8.701 -0.1580 -0.1686  0.0885
  237loPI   C3B 3791  14.634  11.340   8.345 -0.2514 -0.3625 -0.1184
  237loPI   C4B 3792  14.456  11.354   7.852 -0.0104 -0.0213  0.1465
  238loPI    C1 3793   5.660  10.316  10.294 -0.0019  0.0004  0.2709
  238loPI    C2 3794   5.406  10.609  10.194  0.1131  0.0547  0.1350
  238loPI    C3 3795   5.777  10.606  10.044  0.0992 -0.1842  0.1016
  238loPI   PO4 3796   5.495  10.087  10.242  0.1147  0.2061  0.1980
  238loPI   GL1 3797   5.437  10.188   9.839 -0.0970 -0.0868  0.2272
  238loPI   GL2 3798   5.155  10.046   9.595 -0.2312  0.1505  0.0005
  238loPI   C1A 3799   5.484  10.475   9.531  0.1426  0.2092  0.0279
  238loPI   C2A 3800   5.490  10.516   9.054  0.2227 -0.1449  0.2403
  238loPI   C3A 3801   5.471  10.720   8.716 -0.1421  0.0365 -0.1642
  238loPI   C4A 3802   5.774  10.911   8.422  0.2191  0.2576 -0.1252
  238loPI   C5A 3803   5.768  11.066   7.961  0.2525 -0.0537 -0.0827
  238loPI   C6A 3804   6.203  11.086   7.756 -0.0924 -0.0710  0.1433
  238loPI   C1B 3805   5.291  10.051   9.258  0.3687 -0.3785  0.0735
  238loPI   C2B 3806   5.278  10.079   8.807 -0.0486 -0.0794 -0.4300
  238loPI   C3B 3807   5.289  10.336   8.403  0.1872  0.0566 -0.2594
  238loPI   C4B 3808   5.596  10.578   8.095  0.4611 -0.1121 -0.0550
  239loPI    C1 3809  10.726  16.362  10.251 -0.1807 -0.2857 -0.2172
  239loPI    C2 3810  11.071  16.440  10.438 -0.2349 -0.2596 -0.1275
  239loPI    C3 3811  10.818  16.169  10.589 -0.4196 -0.0153  0.0078
  239loPI   PO4 3812  10.790  16.357  10.011  0.0428 -0.2370 -0.0455
  239loPI   GL1 3813  10.525  16.538   9.704  0.2011  0.2305  0.0445
  239loPI   GL2 3814  10.259  16.515   9.975  0.2326  0.3176  0.2935
  239loPI   C1A 3815  10.447  16.725   9.308 -0.1891  0.3361 -0.2721
  239loPI   C2A 3816  10.515  16.860   8.879 -0.2156 -0.2297 -0.0888
  239loPI   C3A 3817  10.550  16.939   8.452  0.5387 -0.3730 -0.2266
  239loPI   C4A 3818  10.836  16.764   8.296  0.0476 -0.1961 -0.2170
  239loPI   C5A 3819  10.992  16.808   7.984 -0.1438  0.0826 -0.3019
  239loPI   C6A 3820  10.816  16.866   7.626  0.1791 -0.1409  0.0713
  239loPI   C1B 3821   9.988  16.617   9.555 -0.0359 -0.1103  0.1605
  239loPI   C2B 3822   9.873  16.639   9.142 -0.1003 -0.0205 -0.0003
  239loPI   C3B 3823  10.051  16.643   8.726  0.0011 -0.0319  0.0981
  239loPI   C4B 3824  10.127  16.776   8.241  0.0642  0.0597 -0.2115
  240loPI    C1 3825  17.428   8.057  10.485 -0.0701 -0.0174  0.0165
  240loPI    C2 3826  17.083   7.889  10.597 -0.1033  0.1101  0.1079
  240loPI    C3 3827  17.363   7.973  10.870 -0.0119  0.0350  0.0379
  240loPI   PO4 3828  17.434   7.918  10.211 -0.1991  0.2595  0.1624
  240loPI   GL1 3829  17.266   7.678   9.842  0.0507 -0.0844  0.0461
  240loPI   GL2 3830  17.550   7.886   9.757 -0.2340  0.2617  0.1429
  240loPI   C1A 3831  16.998   7.405   9.467  0.0015  0.3588  0.1036
  240loPI   C2A 3832  16.980   7.282   9.050 -0.1431  0.2200  0.3376
  240loPI   C3A 3833  17.007   7.379   8.699 -0.1592  0.1944  0.0329
  240loPI   C4A 3834  17.073   7.438   8.372 -0.0766 -0.4066  0.0509
  240loPI   C5A 3835  17.134   7.235   8.002  0.1842 -0.0107  0.1790
  240loPI   C6A 3836  17.511   7.016   7.847 -0.1578 -0.0440 -0.0178
  240loPI   C1B 3837  17.453   7.618   9.383  0.2890  0.0697  0.0246
  240loPI   C2B 3838  17.377   7.557   8.964  0.0512 -0.0895 -0.2069
  240loPI   C3B 3839  17.529   7.635   8.617 -0.0140 -0.1572  0.0099
  240loPI   C4B 3840  17.563   7.549   8.144  0.1528  0.0677  0.0752
  241loPI    C1 3841  17.638  17.117  10.926  0.1450 -0.0713  0.0136
  241loPI    C2 3842  17.606  17.288  11.287 -0.0245 -0.1317  0.0282
  241loPI    C3 3843  17.691  16.898  11.256 -0.0259 -0.1300  0.0027
  241loPI   PO4 3844  17.503  17.341  10.803  0.2902  0.0635  0.2256
  241loPI   GL1 3845  17.538  17.414  10.314 -0.2173 -0.0494  0.1746
  241loPI   GL2 3846  17.480  17.226  10.019 -0.0685 -0.1329 -0.0691
  241loPI   C1A 3847  17.171  17.610   9.925 -0.1390 -0.3442 -0.0933
  241loPI   C2A 3848  17.098  17.625   9.463  0.0411 -0.1196 -0.0153
  241loPI   C3A 3849  17.103  17.829   9.075 -0.0007  0.0771  0.1199
  241loPI   C4A 3850  17.100  17.887   8.604  0.1869 -0.1752  0.0418
  241loPI   C5A 3851  17.221  17.955   8.213 -0.2276 -0.0254 -0.0190
  241loPI   C6A 3852  17.369  17.892   7.849  0.1234  0.2377  0.1984
  241loPI   C1B 3853  17.505  17.442   9.597  0.2015 -0.2214  0.1527
  241loPI   C2B 3854  17.535  17.600   9.043 -0.4542  0.0910 -0.1124
  241loPI   C3B 3855  17.564  17.743   8.568 -0.0334 -0.3170 -0.1191
  241loPI   C4B 3856  17.690  17.682   8.178  0.3187 -0.1622  0.0873
  242loPI    C1 3857   3.928  17.970  10.504  0.3813 -0.0509  0.0005
  242loPI    C2 3858   4.070  17.830  10.851 -0.0810 -0.0462  0.1981
  242loPI    C3 3859   3.720  17.698  10.710 -0.0127  0.1308 -0.1478
  242loPI   PO4 3860   4.129  18.034  10.335  0.3393  0.2058  0.0980
  242loPI   GL1 3861   4.278  17.950   9.979 -0.1057  0.3016 -0.0449
  242loPI   GL2 3862   4.481  18.147   9.800  0.1543 -0.1362 -0.1944
  242loPI   C1A 3863   4.175  17.759   9.651 -0.0230  0.2758  0.1592
  242loPI   C2A 3864   4.293  17.664   9.197 -0.1487  0.0284 -0.2471
  242loPI   C3A 3865   4.341  17.467   8.766 -0.3179  0.0177 -0.2400
  242loPI   C4A 3866   4.493  17.329   8.307  0.2213  0.1157  0.0927
  242loPI   C5A 3867   4.770  16.984   8.270  0.3351  0.1615 -0.1191
  242loPI   C6A 3868   4.727  16.662   8.588 -0.3001  0.0766 -0.0583
  242loPI   C1B 3869   4.423  18.122   9.425  0.1168  0.1738  0.1954
  242loPI   C2B 3870   4.392  18.070   8.953 -0.0203 -0.0438 -0.1102
  242loPI   C3B 3871   4.331  17.926   8.494  0.0335 -0.1502 -0.0762
  242loPI   C4B 3872   4.111  17.829   8.140 -0.0917  0.0268  0.1163
  243loPI    C1 3873   0.781   5.623  10.505  0.0489 -0.1236  0.0085
  243loPI    C2 3874   0.817   5.783  10.870  0.0461 -0.0925 -0.0048
  243loPI    C3 3875   0.795   5.386  10.826 -0.1416 -0.0882  0.0439
  243loPI   PO4 3876   0.614   5.716  10.451  0.0094  0.1367  0.2459
  243loPI   GL1 3877   0.507   5.978  10.141 -0.0747 -0.0117 -0.1576
  243loPI   GL2 3878   0.343   5.751   9.955 -0.2832  0.3575 -0.0115
  243loPI   C1A 3879   0.685   5.998   9.765 -0.2891  0.0185 -0.0387
  243loPI   C2A 3880   0.800   5.823   9.438  0.1392  0.1929 -0.0993
  243loPI   C3A 3881   0.858   5.849   9.024  0.1906  0.0682 -0.2105
  243loPI   C4A 3882   0.884   5.925   8.573  0.0757 -0.3357 -0.0896
  243loPI   C5A 3883   0.869   6.321   8.303  0.1712 -0.1180 -0.0143
  243loPI   C6A 3884   0.755   6.578   7.933  0.0111  0.1283 -0.0543
  243loPI   C1B 3885   0.365   5.655   9.497 -0.0077 -0.1696 -0.3442
  243loPI   C2B 3886   0.362   5.687   9.049 -0.0618  0.0785 -0.1236
  243loPI   C3B 3887   0.349   5.583   8.642  0.1754 -0.2038  0.2050
  243loPI   C4B 3888   0.519   5.736   8.269  0.2735 -0.0890 -0.2605
  244loPI    C1 3889   8.259  10.474  10.174 -0.1716  0.0789  0.0953
  244loPI    C2 3890   8.391  10.169  10.397  0.1374  0.0790 -0.0812
  244loPI    C3 3891   8.061  10.367  10.504  0.1517 -0.0682  0.2467
  244loPI   PO4 3892   8.336  10.306   9.926  0.0192  0.1078 -0.1190
  244loPI   GL1 3893   8.325  10.117   9.554  0.1827  0.2961  0.1429
  244loPI   GL2 3894   8.133   9.880   9.340 -0.1666 -0.0293 -0.0094
  244loPI   C1A 3895   8.419  10.411   9.249 -0.1867  0.3375  0.2344
  244loPI   C2A 3896   8.649  10.443   8.903  0.2238  0.2836 -0.0451
  244loPI   C3A 3897   8.773  10.567   8.509  0.0004 -0.1392  0.0867
  244loPI   C4A 3898   9.152  10.582   8.259  0.1887  0.1670 -0.1486
  244loPI   C5A 3899   9.289  10.791   7.832 -0.0871  0.4029 -0.0462
  244loPI   C6A 3900   9.594  11.184   7.846 -0.3041  0.1787 -0.0518
  244loPI   C1B 3901   8.126   9.955   8.940 -0.2072 -0.0207 -0.1213
  244loPI   C2B 3902   7.814   9.711   8.646  0.0156  0.1414 -0.0041
  244loPI   C3B 3903   7.814   9.708   8.292  0.2011 -0.0194 -0.0272
  244loPI   C4B 3904   7.788   9.823   7.783 -0.2850  0.1248  0.2376
  245loPI    C1 3905   8.097   6.542  10.130  0.1648  0.0456  0.1242
  245loPI    C2 3906   8.112   6.156  10.235 -0.1956  0.0331  0.1408
  245loPI    C3 3907   7.995   6.431  10.501 -0.2164  0.1174  0.0450
  245loPI   PO4 3908   8.442   6.480  10.025 -0.3816 -0.4533 -0.1311
  245loPI   GL1 3909   8.491   6.485   9.561  0.0090  0.0673  0.1254
  245loPI   GL2 3910   8.853   6.341   9.603  0.0454 -0.1071 -0.1644
  245loPI   C1A 3911   8.658   6.158   9.206  0.1793  0.1046 -0.0883
  245loPI   C2A 3912   8.732   6.073   8.733 -0.1267  0.0572  0.1360
  245loPI   C3A 3913   8.752   5.967   8.251 -0.1267 -0.0013 -0.2448
  245loPI   C4A 3914   8.954   6.000   7.921  0.1743  0.2883 -0.3771
  245loPI   C5A 3915   9.192   5.914   7.626  0.2048 -0.2496 -0.2492
  245loPI   C6A 3916   9.507   5.646   7.504  0.1575 -0.1245 -0.0733
  245loPI   C1B 3917   9.083   6.437   9.316  0.1026  0.1769 -0.2253
  245loPI   C2B 3918   9.165   6.347   8.908 -0.1147  0.0224 -0.1679
  245loPI   C3B 3919   9.169   6.348   8.555  0.0609  0.1963 -0.1339
  245loPI   C4B 3920   9.260   6.437   8.181 -0.0779 -0.0687  0.2047
  246loPI    C1 3921   8.671   9.513  10.070  0.1257 -0.2117  0.2830
  246loPI    C2 3922   8.708   9.908  10.119 -0.0298 -0.1258 -0.2287
  246loPI    C3 3923   8.929   9.657  10.339 -0.0129  0.2385  0.1830
  246loPI   PO4 3924   8.598   9.504   9.806  0.3016  0.3104  0.1386
  246loPI   GL1 3925   8.702   9.837   9.604 -0.2514 -0.2927 -0.0551
  246loPI   GL2 3926   8.774  10.249   9.695  0.0789 -0.0952  0.0231
  246loPI   C1A 3927   8.685   9.991   9.189 -0.2074  0.1973 -0.1548
  246loPI   C2A 3928   8.911   9.949   8.790  0.0791  0.0345 -0.1566
  246loPI   C3A 3929   9.104  10.039   8.344  0.2955 -0.3645 -0.1604
  246loPI   C4A 3930   9.040   9.885   7.999 -0.1516 -0.2603  0.0768
  246loPI   C5A 3931   8.798   9.785   7.764 -0.0257 -0.2237  0.2967
  246loPI   C6A 3932   8.357   9.792   7.474 -0.2115 -0.4047 -0.1116
  246loPI   C1B 3933   8.981  10.450   9.393  0.0914  0.5878 -0.0863
  246loPI   C2B 3934   9.156  10.402   8.922  0.0749 -0.0762 -0.0878
  246loPI   C3B 3935   9.483  10.355   8.582 -0.1500 -0.0638 -0.1377
  246loPI   C4B 3936   9.528  10.306   8.080  0.1087  0.1791 -0.4445
  247loPI    C1 3937   2.847  15.410  10.551  0.0456 -0.1793 -0.0120
  247loPI    C2 3938   3.087  15.647  10.766 -0.1138  0.0298 -0.0620
  247loPI    C3 3939   2.837  15.396  10.951 -0.2063  0.1647 -0.0020
  247loPI   PO4 3940   2.825  15.569  10.317  0.0841 -0.1190 -0.3396
  247loPI   GL1 3941   2.785  15.905   9.998 -0.0715 -0.0660  0.0328
  247loPI   GL2 3942   2.476  15.958  10.073  0.0761 -0.0299 -0.0872
  247loPI   C1A 3943   2.858  15.911   9.593  0.1512  0.2353 -0.1616
  247loPI   C2A 3944   2.684  16.022   9.253 -0.0855 -0.2976  0.0004
  247loPI   C3A 3945   2.444  16.224   9.006  0.2499  0.1777 -0.1390
  247loPI   C4A 3946   2.160  16.055   8.687 -0.1428 -0.1839 -0.2109
  247loPI   C5A 3947   2.255  16.069   8.199 -0.1756  0.0238  0.2000
  247loPI   C6A 3948   2.189  15.725   7.939 -0.1849 -0.0821  0.2544
  247loPI   C1B 3949   2.359  15.968   9.746  0.2118 -0.1156  0.0664
  247loPI   C2B 3950   2.176  15.897   9.329  0.1129  0.0335  0.0322
  247loPI   C3B 3951   1.875  15.772   8.977  0.0743  0.2040 -0.2172
  247loPI   C4B 3952   1.682  15.590   8.540  0.0368 -0.2102  0.0337
  248loPI    C1 3953   3.743  17.144  10.737  0.4474  0.1703 -0.0938
  248loPI    C2 3954   3.684  16.762  10.635 -0.0223  0.2117  0.0017
  248loPI    C3 3955   3.567  16.893  10.994 -0.0338  0.4883 -0.1007
  248loPI   PO4 3956   3.627  17.299  10.464 -0.2512  0.0475 -0.0429
  248loPI   GL1 3957   3.840  17.342  10.089  0.0374  0.0693  0.2478
  248loPI   GL2 3958   3.861  17.624  10.109 -0.2350 -0.1565 -0.1745
  248loPI   C1A 3959   3.911  17.236   9.601 -0.1431  0.0291 -0.0501
  248loPI   C2A 3960   4.130  17.222   9.124  0.0562 -0.4171  0.0200
  248loPI   C3A 3961   4.332  16.910   8.854 -0.2133 -0.1697  0.1003
  248loPI   C4A 3962   4.271  16.893   8.416 -0.0209 -0.0384  0.2550
  248loPI   C5A 3963   4.235  16.856   7.972  0.2838  0.0932 -0.2367
  248loPI   C6A 3964   4.429  17.072   7.721  0.1790 -0.4278  0.1291
  248loPI   C1B 3965   3.649  17.718   9.717  0.2089 -0.0743  0.0735
  248loPI   C2B 3966   3.676  17.561   9.308 -0.0262 -0.0528 -0.0297
  248loPI   C3B 3967   3.801  17.501   8.905 -0.0364 -0.0440 -0.2189
  248loPI   C4B 3968   3.796  17.730   8.499  0.1103 -0.1045 -0.2213
  249loPI    C1 3969   5.054   6.214   9.991 -0.0200  0.1045  0.0609
  249loPI    C2 3970   5.321   5.942  10.112 -0.0539  0.0380 -0.0131
  249loPI    C3 3971   5.438   6.248   9.883  0.0190  0.1892  0.2220
  249loPI   PO4 3972   4.942   6.101   9.858 -0.0414 -0.1667 -0.2319
  249loPI   GL1 3973   4.903   6.049   9.494  0.1145 -0.2158 -0.2245
  249loPI   GL2 3974   5.255   6.228   9.335 -0.2544 -0.1228 -0.0609
  249loPI   C1A 3975   4.919   5.584   9.254  0.0791  0.0414  0.2128
  249loPI   C2A 3976   5.033   5.251   9.033  0.0989  0.0836  0.2000
  249loPI   C3A 3977   5.010   5.177   8.610 -0.0809 -0.0887  0.1303
  249loPI   C4A 3978   5.112   5.222   8.202 -0.2247 -0.0428 -0.1718
  249loPI   C5A 3979   5.444   5.341   7.964  0.2772  0.0012  0.1275
  249loPI   C6A 3980   5.480   5.596   7.620  0.2562 -0.0553  0.0759
  249loPI   C1B 3981   5.252   6.187   8.905  0.4991 -0.0618 -0.0585
  249loPI   C2B 3982   5.614   6.354   8.677 -0.0255  0.0037 -0.1130
  249loPI   C3B 3983   5.713   6.514   8.274  0.1854  0.0118  0.1150
  249loPI   C4B 3984   5.506   6.811   8.004 -0.3305 -0.0256  0.2663
  250loPI    C1 3985   8.744   5.285  10.299 -0.1335  0.0025  0.1453
  250loPI    C2 3986   8.687   4.895  10.367 -0.1394 -0.0088  0.0760
  250loPI    C3 3987   8.604   5.162  10.653 -0.0846 -0.0625  0.1424
  250loPI   PO4 3988   9.049   5.267  10.231 -0.1107  0.1937 -0.0540
  250loPI   GL1 3989   9.305   5.576  10.014 -0.2226  0.3830 -0.2214
  250loPI   GL2 3990   9.366   5.360   9.838 -0.0628 -0.1142 -0.0582
  250loPI   C1A 3991   9.634   5.752   9.697  0.0699 -0.2232 -0.1750
  250loPI   C2A 3992   9.770   5.711   9.344  0.0495  0.1901 -0.0200
  250loPI   C3A 3993   9.835   5.690   8.928  0.0076  0.1749 -0.3758
  250loPI   C4A 3994   9.753   5.754   8.510 -0.1661  0.1478  0.2237
  250loPI   C5A 3995   9.802   5.694   8.084  0.0923  0.1372 -0.0440
  250loPI   C6A 3996   9.966   5.419   7.861  0.0182 -0.0168  0.1016
  250loPI   C1B 3997   9.374   5.386   9.382 -0.0013 -0.0687 -0.1845
  250loPI   C2B 3998   9.449   5.341   8.938 -0.1615  0.0015  0.2140
  250loPI   C3B 3999   9.459   5.361   8.442  0.3567  0.0836  0.0607
  250loPI   C4B 4000   9.441   5.252   7.949  0.1805 -0.1950  0.1389
  251loPI    C1 4001  18.235   1.199  10.552 -0.0321  0.0690  0.0227
  251loPI    C2 4002  18.204   0.817  10.665 -0.1758  0.0294 -0.1473
  251loPI    C3 4003  18.412   1.075  10.889 -0.2184 -0.1104  0.0559
  251loPI   PO4 4004  18.184   1.199  10.247 -0.0205  0.0995 -0.2612
  251loPI   GL1 4005  17.964   1.206   9.871  0.4926  0.1086 -0.1060
  251loPI   GL2 4006  18.070   1.557   9.844  0.1387  0.1303  0.0318
  251loPI   C1A 4007  17.651   1.213   9.550  0.2086  0.2012  0.1306
  251loPI   C2A 4008  17.639   1.226   9.156 -0.2035  0.0085  0.0955
  251loPI   C3A 4009  17.790   1.424   8.856 -0.1566 -0.0796 -0.1563
  251loPI   C4A 4010  17.803   1.382   8.514 -0.1304 -0.1704  0.0161
  251loPI   C5A 4011  17.432   1.191   8.352 -0.0771  0.2764 -0.2427
  251loPI   C6A 4012  17.140   0.902   8.244  0.0968  0.2203  0.0785
  251loPI   C1B 4013  17.947   1.585   9.468  0.1845  0.0062  0.1986
  251loPI   C2B 4014  17.941   1.818   9.132 -0.0361  0.3913  0.0802
  251loPI   C3B 4015  17.927   1.848   8.670 -0.0752  0.0273  0.0160
  251loPI   C4B 4016  18.034   1.922   8.278 -0.0002 -0.0506  0.0032
  252loPI    C1 4017  11.550  16.300  10.490 -0.1242 -0.0478 -0.2470
  252loPI    C2 4018  11.693  16.183  10.844 -0.0465  0.1786 -0.2022
  252loPI    C3 4019  11.308  16.122  10.754 -0.0507  0.0596 -0.1061
  252loPI   PO4 4020  11.735  16.260  10.265  0.0933  0.3044 -0.2167
  252loPI   GL1 4021  11.617  16.331   9.889  0.2549  0.1921  0.0211
  252loPI   GL2 4022  11.323  16.441   9.971  0.1376  0.0143  0.0126
  252loPI   C1A 4023  11.894  16.389   9.513 -0.1228  0.2266  0.1486
  252loPI   C2A 4024  11.835  16.370   9.110  0.0875  0.1910  0.1262
  252loPI   C3A 4025  12.049  16.490   8.654 -0.5404  0.0647 -0.0027
  252loPI   C4A 4026  12.306  16.424   8.358 -0.1007 -0.0984 -0.1360
  252loPI   C5A 4027  12.301  16.268   7.974 -0.2104 -0.2658  0.1297
  252loPI   C6A 4028  12.358  15.894   7.804  0.0207  0.0621 -0.1797
  252loPI   C1B 4029  11.429  16.666   9.592  0.0523  0.0589 -0.0646
  252loPI   C2B 4030  11.446  16.619   9.190  0.1069  0.1820  0.3583
  252loPI   C3B 4031  11.330  16.534   8.739  0.1009  0.0309  0.0696
  252loPI   C4B 4032  11.226  16.505   8.380 -0.0926  0.0793  0.1864
  253loPI    C1 4033   9.594   9.002  10.063 -0.0309  0.1902 -0.0240
  253loPI    C2 4034   9.425   8.948  10.421 -0.0146 -0.1724 -0.0669
  253loPI    C3 4035   9.812   9.044  10.395 -0.0244 -0.1095  0.0125
  253loPI   PO4 4036   9.384   9.072   9.868 -0.1201  0.2466  0.2814
  253loPI   GL1 4037   9.432   9.330   9.464  0.2236 -0.3319  0.0156
  253loPI   GL2 4038   9.572   9.585   9.378 -0.1042 -0.0219  0.0855
  253loPI   C1A 4039   9.476   8.992   9.077 -0.0538  0.0342 -0.2788
  253loPI   C2A 4040   9.356   8.969   8.680 -0.2598  0.1267  0.2619
  253loPI   C3A 4041   9.347   9.172   8.280 -0.3298  0.3830 -0.1393
  253loPI   C4A 4042   9.101   9.179   7.971 -0.1741 -0.0310 -0.2137
  253loPI   C5A 4043   8.744   9.377   7.972  0.1643  0.2003  0.0271
  253loPI   C6A 4044   8.489   9.349   7.626  0.1213  0.0353  0.0165
  253loPI   C1B 4045   9.670   9.501   8.985 -0.0344 -0.0499 -0.0697
  253loPI   C2B 4046   9.660   9.349   8.610  0.1505  0.0199 -0.0874
  253loPI   C3B 4047   9.898   9.416   8.337  0.0346  0.0372 -0.2005
  253loPI   C4B 4048  10.201   9.545   8.035  0.0062  0.3544  0.1641
  254loPI    C1 4049   7.142   8.848  10.166 -0.0539 -0.0201  0.0174
  254loPI    C2 4050   7.118   9.233  10.060 -0.0111 -0.0818 -0.2249
  254loPI    C3 4051   7.015   9.120  10.430 -0.0700  0.1544 -0.1671
  254loPI   PO4 4052   7.146   8.718   9.951  0.2318  0.1866 -0.3984
  254loPI   GL1 4053   6.805   8.701   9.630  0.0278 -0.2917 -0.0504
  254loPI   GL2 4054   6.978   9.054   9.636  0.0872  0.0238  0.3351
  254loPI   C1A 4055   6.781   8.443   9.297 -0.0612 -0.1039  0.1961
  254loPI   C2A 4056   6.637   8.412   8.906  0.0797  0.0034  0.1423
  254loPI   C3A 4057   6.708   8.617   8.493  0.2514 -0.2059  0.0433
  254loPI   C4A 4058   6.827   8.522   8.161 -0.0539 -0.2386  0.1271
  254loPI   C5A 4059   7.067   8.398   7.765  0.0940 -0.0860  0.0625
  254loPI   C6A 4060   7.471   8.348   7.668 -0.2012  0.1665  0.0934
  254loPI   C1B 4061   6.867   9.066   9.216  0.1962 -0.1842 -0.3430
  254loPI   C2B 4062   7.109   9.111   8.857  0.1627 -0.0993 -0.0650
  254loPI   C3B 4063   7.053   8.933   8.463 -0.0278  0.2095  0.0226
  254loPI   C4B 4064   7.149   8.937   8.022 -0.0743  0.1589 -0.0161
  255loPI    C1 4065  13.290  15.943  10.196  0.1121 -0.1653 -0.1017
  255loPI    C2 4066  13.409  16.243   9.959 -0.0293 -0.0639 -0.0452
  255loPI    C3 4067  13.170  16.317  10.272 -0.0161 -0.2270  0.0044
  255loPI   PO4 4068  13.580  15.820  10.101 -0.1193 -0.4516 -0.0946
  255loPI   GL1 4069  13.647  15.616   9.675  0.0278  0.0218 -0.1605
  255loPI   GL2 4070  13.390  15.812   9.646  0.0798  0.2501  0.0966
  255loPI   C1A 4071  13.751  15.386   9.294 -0.0095 -0.1611  0.1981
  255loPI   C2A 4072  13.845  15.148   8.919 -0.0739  0.4484  0.1357
  255loPI   C3A 4073  13.734  14.994   8.508 -0.1720 -0.1482  0.0829
  255loPI   C4A 4074  13.500  14.684   8.204  0.0778 -0.1871  0.0528
  255loPI   C5A 4075  13.509  14.427   7.806  0.1858 -0.1873 -0.2929
  255loPI   C6A 4076  13.492  14.085   7.622 -0.0265 -0.0342  0.1920
  255loPI   C1B 4077  13.360  16.054   9.349  0.1012  0.2167  0.0277
  255loPI   C2B 4078  13.323  15.896   8.943 -0.1795  0.0097  0.0202
  255loPI   C3B 4079  13.446  15.473   8.618 -0.2391 -0.1574 -0.2390
  255loPI   C4B 4080  13.192  15.086   8.682 -0.0732  0.1390 -0.0107
  256loPI    C1 4081   5.103   3.422  10.238 -0.1844  0.1219 -0.0991
  256loPI    C2 4082   5.394   3.695  10.207 -0.1142  0.0581 -0.0071
  256loPI    C3 4083   5.220   3.627  10.561  0.1308 -0.2837  0.0527
  256loPI   PO4 4084   5.006   3.385  10.012 -0.1893 -0.1190  0.3188
  256loPI   GL1 4085   4.671   3.526   9.756 -0.0208  0.0414  0.0051
  256loPI   GL2 4086   4.444   3.691   9.826  0.0470  0.0806  0.0828
  256loPI   C1A 4087   4.672   3.484   9.167 -0.0189 -0.1805 -0.2344
  256loPI   C2A 4088   4.559   3.306   8.712 -0.3169  0.1824 -0.0349
  256loPI   C3A 4089   4.243   3.078   8.498 -0.0332 -0.1696 -0.1412
  256loPI   C4A 4090   3.845   2.989   8.300 -0.0557 -0.1549 -0.0747
  256loPI   C5A 4091   3.515   3.014   8.067  0.1926  0.1031  0.0792
  256loPI   C6A 4092   3.224   3.243   8.000  0.2437 -0.0987 -0.1759
  256loPI   C1B 4093   4.493   3.898   9.358  0.1147 -0.0272 -0.2793
  256loPI   C2B 4094   4.511   3.904   8.937  0.0624 -0.1768 -0.0162
  256loPI   C3B 4095   4.610   3.757   8.523 -0.3555 -0.1267 -0.0574
  256loPI   C4B 4096   4.810   3.825   8.198 -0.0516  0.0396  0.0251
  257loPI    C1 4097  15.411   9.848  10.399 -0.0250 -0.2087  0.1195
  257loPI    C2 4098  15.153   9.811  10.702 -0.1629  0.1744  0.0547
  257loPI    C3 4099  15.030   9.959  10.351  0.0570 -0.0137 -0.1049
  257loPI   PO4 4100  15.478   9.585  10.286  0.3508 -0.2628 -0.0517
  257loPI   GL1 4101  15.140   9.442  10.093  0.0378 -0.0749  0.0900
  257loPI   GL2 4102  15.249   9.837   9.890  0.2889 -0.0549 -0.0787
  257loPI   C1A 4103  14.848   9.523   9.749  0.0774  0.0663 -0.0549
  257loPI   C2A 4104  14.645   9.719   9.413 -0.1213 -0.0851  0.0633
  257loPI   C3A 4105  14.608   9.675   8.971  0.1486 -0.0028  0.0560
  257loPI   C4A 4106  14.365   9.620   8.621 -0.2114 -0.1119 -0.3655
  257loPI   C5A 4107  14.337   9.541   8.196  0.0196 -0.2854 -0.0424
  257loPI   C6A 4108  14.383   9.513   7.760  0.1985 -0.2032 -0.0183
  257loPI   C1B 4109  15.178   9.719   9.457 -0.3752 -0.2554 -0.2549
  257loPI   C2B 4110  15.148   9.598   8.993 -0.0390  0.1259 -0.0001
  257loPI   C3B 4111  15.380   9.554   8.619  0.2328  0.0058 -0.0318
  257loPI   C4B 4112  15.711   9.437   8.346  0.0415 -0.1523 -0.0858
  258loPI    C1 4113   2.432   6.735  10.406  0.0388 -0.1956  0.0302
  258loPI    C2 4114   2.705   6.661  10.689 -0.0134 -0.1647  0.0888
  258loPI    C3 4115   2.355   6.828  10.787  0.1335  0.2382 -0.0509
  258loPI   PO4 4116   2.361   6.472  10.247 -0.0801  0.0642 -0.0755
  258loPI   GL1 4117   2.376   6.190   9.867  0.2576  0.2536 -0.1866
  258loPI   GL2 4118   2.143   6.097   9.758  0.2396 -0.2183 -0.1789
  258loPI   C1A 4119   2.483   6.379   9.492 -0.1021 -0.0518  0.1478
  258loPI   C2A 4120   2.512   6.377   9.120  0.0704 -0.1331  0.0325
  258loPI   C3A 4121   2.630   6.124   8.808 -0.2293  0.1816 -0.2743
  258loPI   C4A 4122   2.819   6.074   8.443 -0.2753  0.1626  0.3360
  258loPI   C5A 4123   3.156   5.943   8.078  0.0097 -0.2630 -0.0274
  258loPI   C6A 4124   3.628   5.933   8.007  0.1498 -0.2025 -0.0748
  258loPI   C1B 4125   1.800   5.861   9.523 -0.1312  0.4111 -0.0257
  258loPI   C2B 4126   1.671   5.561   9.171  0.2488 -0.2814  0.1109
  258loPI   C3B 4127   1.666   5.289   9.005  0.2629 -0.1488 -0.3161
  258loPI   C4B 4128   1.937   5.191   8.658 -0.4861 -0.3215  0.2633
  259loPI    C1 4129   7.288   3.298  10.496  0.0900 -0.1897 -0.0657
  259loPI    C2 4130   6.961   3.296  10.727  0.0459 -0.1541 -0.1275
  259loPI    C3 4131   7.322   3.242  10.891  0.0248 -0.0192 -0.0354
  259loPI   PO4 4132   7.115   3.319  10.235  0.4800  0.0783 -0.3949
  259loPI   GL1 4133   7.269   3.235   9.881 -0.1506  0.3818 -0.2140
  259loPI   GL2 4134   6.963   3.230   9.779 -0.0414  0.1324  0.1370
  259loPI   C1A 4135   7.197   2.933   9.509 -0.1143  0.0527  0.2560
  259loPI   C2A 4136   7.258   2.761   9.133  0.2890  0.1407 -0.0905
  259loPI   C3A 4137   7.298   2.544   8.625  0.0061  0.2916  0.1162
  259loPI   C4A 4138   7.370   2.540   8.222 -0.3176  0.0155  0.0460
  259loPI   C5A 4139   7.674   2.314   7.978 -0.2064 -0.0665 -0.2319
  259loPI   C6A 4140   8.139   2.317   8.119 -0.0122 -0.2160 -0.1815
  259loPI   C1B 4141   7.071   3.480   9.427 -0.0586 -0.1534 -0.1947
  259loPI   C2B 4142   7.110   3.293   9.090 -0.0551 -0.1255  0.4425
  259loPI   C3B 4143   7.073   3.067   8.698 -0.0353 -0.0323  0.0518
  259loPI   C4B 4144   6.832   2.963   8.264 -0.0919 -0.3774 -0.1602
  260loPI    C1 4145   2.055  16.914  10.640  0.2130  0.0731 -0.0172
  260loPI    C2 4146   1.904  17.202  10.871 -0.0091 -0.1258  0.0894
  260loPI    C3 4147   2.196  16.967  11.011  0.2209  0.0891 -0.0225
  260loPI   PO4 4148   1.878  16.804  10.542  0.0204 -0.0251  0.0003
  260loPI   GL1 4149   1.748  16.864  10.141  0.1713 -0.0789  0.1416
  260loPI   GL2 4150   1.708  16.586  10.018  0.2042  0.2144  0.2915
  260loPI   C1A 4151   1.824  17.033   9.737 -0.1036  0.1276  0.0603
  260loPI   C2A 4152   1.704  16.902   9.313  0.0638 -0.0953 -0.1107
  260loPI   C3A 4153   1.621  16.805   8.974 -0.1922  0.0670  0.1673
  260loPI   C4A 4154   1.643  16.906   8.524  0.0090 -0.0036  0.0121
  260loPI   C5A 4155   1.712  16.688   8.128  0.0190 -0.0166  0.0707
  260loPI   C6A 4156   1.447  16.379   7.941  0.2206  0.1456 -0.2188
  260loPI   C1B 4157   1.598  16.507   9.560  0.1873 -0.2238  0.1754
  260loPI   C2B 4158   1.276  16.368   9.206  0.4020 -0.0245 -0.0074
  260loPI   C3B 4159   1.196  16.361   8.793 -0.1085  0.0360 -0.2664
  260loPI   C4B 4160   1.332  16.513   8.451  0.0968 -0.2846 -0.1025
  261loPI    C1 4161  10.443   5.252  10.747 -0.3488  0.0644 -0.0105
  261loPI    C2 4162  10.783   5.405  10.893 -0.2146 -0.0058 -0.2442
  261loPI    C3 4163  10.527   5.218  11.137  0.1608 -0.4116 -0.1493
  261loPI   PO4 4164  10.472   5.212  10.484 -0.1173  0.0543 -0.1477
  261loPI   GL1 4165  10.729   5.391  10.320 -0.3001  0.2394 -0.1194
  261loPI   GL2 4166  10.911   5.158  10.176  0.0539  0.1841 -0.0533
  261loPI   C1A 4167  10.853   5.460   9.802  0.1295  0.0367 -0.0331
  261loPI   C2A 4168  10.899   5.387   9.303  0.0237 -0.1849  0.1401
  261loPI   C3A 4169  10.823   5.312   8.881  0.2551 -0.1031  0.2856
  261loPI   C4A 4170  10.763   5.380   8.415 -0.1638 -0.0802 -0.0010
  261loPI   C5A 4171  10.648   5.708   8.165 -0.1308 -0.0102  0.1707
  261loPI   C6A 4172  10.575   6.158   8.039 -0.0107  0.2800  0.3029
  261loPI   C1B 4173  11.302   5.145   9.924  0.1479  0.0043 -0.0552
  261loPI   C2B 4174  11.371   5.262   9.458  0.0485  0.0407  0.1451
  261loPI   C3B 4175  11.306   5.277   9.031  0.0758  0.0721 -0.0345
  261loPI   C4B 4176  11.220   5.178   8.573  0.1415  0.0671  0.3833
  262loPI    C1 4177  14.916   6.754  10.823  0.2767 -0.0132  0.0498
  262loPI    C2 4178  14.624   6.747  11.096  0.0929  0.0310 -0.1429
  262loPI    C3 4179  15.006   6.719  11.211  0.0071 -0.1850  0.0993
  262loPI   PO4 4180  14.713   6.665  10.607 -0.2619 -0.0943 -0.0718
  262loPI   GL1 4181  14.691   6.492  10.232 -0.5808 -0.1504  0.1930
  262loPI   GL2 4182  14.835   6.226  10.028 -0.0977 -0.2195 -0.0633
  262loPI   C1A 4183  14.754   6.664   9.833 -0.0165  0.1550 -0.2787
  262loPI   C2A 4184  14.755   6.676   9.398 -0.0023  0.0493  0.1409
  262loPI   C3A 4185  14.702   6.610   8.935 -0.0132 -0.2695 -0.0181
  262loPI   C4A 4186  14.781   6.703   8.535  0.1054  0.1877 -0.0337
  262loPI   C5A 4187  14.813   6.764   8.083  0.0682  0.1063 -0.1050
  262loPI   C6A 4188  15.047   6.976   7.809 -0.3756 -0.1934 -0.1053
  262loPI   C1B 4189  14.581   6.125   9.600 -0.0086 -0.0610 -0.0758
  262loPI   C2B 4190  14.697   6.155   9.136  0.0315 -0.2972 -0.0125
  262loPI   C3B 4191  14.628   6.201   8.670 -0.2712 -0.1278  0.3071
  262loPI   C4B 4192  14.683   6.225   8.251 -0.1523  0.2370  0.1562
  263loPI    C1 4193   9.990  13.753  10.344  0.0628 -0.2722  0.0095
  263loPI    C2 4194   9.758  14.015  10.539 -0.1340 -0.2774 -0.2128
  263loPI    C3 4195   9.963  13.738  10.743  0.0375  0.0157  0.0209
  263loPI   PO4 4196   9.907  13.734  10.123  0.2492  0.1303 -0.3871
  263loPI   GL1 4197   9.799  13.889   9.748 -0.1401  0.1351 -0.1401
  263loPI   GL2 4198   9.524  13.941   9.567 -0.2556  0.0484 -0.3060
  263loPI   C1A 4199  10.013  13.828   9.383 -0.4370 -0.0994 -0.1977
  263loPI   C2A 4200   9.962  13.697   8.954  0.2242 -0.3180  0.0154
  263loPI   C3A 4201  10.049  13.723   8.578 -0.2872  0.3362 -0.0333
  263loPI   C4A 4202   9.949  13.876   8.270 -0.2621 -0.0877  0.0616
  263loPI   C5A 4203   9.818  13.879   7.752 -0.0434  0.0062  0.2032
  263loPI   C6A 4204   9.626  14.105   7.531 -0.2055  0.1669  0.1730
  263loPI   C1B 4205   9.346  13.588   9.347  0.0700  0.0156 -0.0223
  263loPI   C2B 4206   9.142  13.440   9.012  0.1028  0.0965 -0.1304
  263loPI   C3B 4207   9.141  13.448   8.517 -0.1001  0.1143 -0.1737
  263loPI   C4B 4208   9.024  13.164   8.138 -0.1793  0.0189  0.0190
  264loPI    C1 4209   4.609   0.788  10.353  0.1411 -0.0268  0.3479
  264loPI    C2 4210   4.416   0.452  10.453 -0.0546  0.0626  0.2758
  264loPI    C3 4211   4.442   0.753  10.715 -0.1479  0.1103  0.2304
  264loPI   PO4 4212   4.500   0.798  10.060 -0.4166  0.1928 -0.1073
  264loPI   GL1 4213   4.602   0.950   9.712 -0.1436 -0.0056  0.0778
  264loPI   GL2 4214   4.593   1.331   9.742 -0.1029  0.1394 -0.0377
  264loPI   C1A 4215   4.601   0.854   9.255 -0.1114 -0.0297  0.2875
  264loPI   C2A 4216   4.582   0.976   8.888  0.0853 -0.1402 -0.1026
  264loPI   C3A 4217   4.469   1.370   8.652 -0.4410 -0.0138 -0.1576
  264loPI   C4A 4218   4.696   1.727   8.698  0.2036 -0.0875  0.1255
  264loPI   C5A 4219   4.849   1.852   9.161  0.1313 -0.1472 -0.0870
  264loPI   C6A 4220   4.898   1.999   9.503 -0.1196  0.0365 -0.0896
  264loPI   C1B 4221   4.868   1.325   9.331 -0.0905 -0.2355  0.0744
  264loPI   C2B 4222   4.951   1.354   8.956 -0.2424 -0.1691 -0.1498
  264loPI   C3B 4223   4.936   1.179   8.443  0.2372 -0.1565 -0.0665
  264loPI   C4B 4224   4.877   0.992   7.991 -0.0691  0.1463 -0.2545
  265loPI    C1 4225   9.510   7.465  10.222 -0.0116  0.1612 -0.0095
  265loPI    C2 4226   9.541   7.523  10.617 -0.0570 -0.1681  0.0458
  265loPI    C3 4227   9.694   7.791  10.362 -0.0244  0.0453  0.2854
  265loPI   PO4 4228   9.609   7.190  10.257  0.5335  0.2040 -0.0220
  265loPI   GL1 4229   9.497   7.063   9.911 -0.0783 -0.0130  0.0107
  265loPI   GL2 4230   9.806   6.897   9.871  0.1645  0.0853 -0.0346
  265loPI   C1A 4231   9.563   7.145   9.547 -0.2815 -0.1041 -0.1666
  265loPI   C2A 4232   9.877   7.132   9.232 -0.0729  0.1219 -0.2700
  265loPI   C3A 4233   9.954   7.124   8.813 -0.0213  0.1132 -0.3908
  265loPI   C4A 4234   9.900   7.183   8.390 -0.0222  0.1683  0.0686
  265loPI   C5A 4235   9.807   7.478   8.104  0.2407  0.1635  0.0675
  265loPI   C6A 4236   9.858   7.934   8.135  0.1034  0.0580 -0.1666
  265loPI   C1B 4237  10.119   6.777   9.538 -0.0397 -0.3285  0.1721
  265loPI   C2B 4238  10.402   6.901   9.234  0.2417  0.1335  0.2102
  265loPI   C3B 4239  10.616   7.237   9.033  0.0854  0.1207  0.2755
  265loPI   C4B 4240  10.472   7.353   8.708  0.0195  0.1283 -0.0711
  266loPI    C1 4241   0.547   1.014  10.520  0.1660 -0.2280 -0.0839
  266loPI    C2 4242   0.823   1.284  10.624  0.0132 -0.1218  0.0497
  266loPI    C3 4243   0.658   1.049  10.902 -0.1312 -0.0890 -0.0076
  266loPI   PO4 4244   0.477   1.137  10.289 -0.1269  0.0271  0.0424
  266loPI   GL1 4245   0.343   1.143   9.900  0.2951  0.1467 -0.1151
  266loPI   GL2 4246   0.259   1.440   9.716 -0.2749  0.2550  0.0853
  266loPI   C1A 4247   0.297   1.025   9.435 -0.0948 -0.0350  0.0756
  266loPI   C2A 4248   0.368   1.002   8.891  0.2624  0.1769  0.0113
  266loPI   C3A 4249   0.333   1.116   8.490 -0.4569 -0.1805  0.0528
  266loPI   C4A 4250   0.235   0.757   8.090  0.2737 -0.1988  0.0807
  266loPI   C5A 4251  -0.043   0.473   7.992  0.0272  0.2473 -0.0805
  266loPI   C6A 4252  -0.479   0.361   8.010  0.0542  0.1441  0.2754
  266loPI   C1B 4253   0.112   1.402   9.229  0.1739 -0.1613  0.1091
  266loPI   C2B 4254   0.030   1.454   8.761  0.0768 -0.0754  0.1159
  266loPI   C3B 4255   0.019   1.497   8.335 -0.0849  0.0156  0.1052
  266loPI   C4B 4256   0.144   1.484   7.977  0.2224  0.0872  0.1009
  267loPI    C1 4257   1.307   6.574  10.526  0.2040  0.2311  0.0163
  267loPI    C2 4258   1.519   6.397  10.815  0.2217  0.1867 -0.0235
  267loPI    C3 4259   1.450   6.791  10.830 -0.0158  0.1399  0.1876
  267loPI   PO4 4260   1.420   6.406  10.272  0.2669  0.0320 -0.1477
  267loPI   GL1 4261   1.471   6.518   9.768  0.0045 -0.3255 -0.0091
  267loPI   GL2 4262   1.574   6.792   9.771  0.2766 -0.1386 -0.0869
  267loPI   C1A 4263   1.504   6.440   9.333 -0.2046  0.0350  0.0064
  267loPI   C2A 4264   1.570   6.446   8.919 -0.2080 -0.1209 -0.1806
  267loPI   C3A 4265   1.695   6.259   8.514 -0.0579 -0.1378 -0.2334
  267loPI   C4A 4266   2.038   5.999   8.264 -0.2785  0.1782  0.2763
  267loPI   C5A 4267   1.991   5.564   8.152 -0.1155  0.0649  0.1595
  267loPI   C6A 4268   2.160   5.223   8.050  0.0004 -0.0305  0.2908
  267loPI   C1B 4269   1.745   6.877   9.285 -0.0581  0.0490 -0.0953
  267loPI   C2B 4270   1.786   6.878   8.854 -0.1594 -0.0978  0.0618
  267loPI   C3B 4271   1.734   6.756   8.549  0.1109  0.1955 -0.0452
  267loPI   C4B 4272   2.001   6.600   8.225 -0.1016 -0.0188 -0.1670
  268loPI    C1 4273   9.325   5.488  10.551 -0.2035 -0.1128  0.3171
  268loPI    C2 4274   9.278   5.840  10.734  0.1200  0.1458 -0.0798
  268loPI    C3 4275   9.040   5.741  10.429 -0.0863 -0.0618  0.1447
  268loPI   PO4 4276   9.574   5.490  10.437 -0.1682 -0.4514 -0.1966
  268loPI   GL1 4277   9.863   5.639  10.135  0.2595  0.0606 -0.3079
  268loPI   GL2 4278   9.887   5.361  10.038 -0.0282 -0.1756 -0.0613
  268loPI   C1A 4279  10.117   5.715   9.718 -0.1753  0.1106  0.0470
  268loPI   C2A 4280  10.266   5.601   9.291 -0.2275 -0.3073  0.1142
  268loPI   C3A 4281  10.295   5.520   8.864  0.1795 -0.0161 -0.0982
  268loPI   C4A 4282  10.278   5.521   8.391  0.0711 -0.0641 -0.2187
  268loPI   C5A 4283  10.410   5.256   8.069 -0.1167 -0.1080 -0.1472
  268loPI   C6A 4284  10.497   4.856   7.920  0.1157 -0.0551 -0.0192
  268loPI   C1B 4285   9.996   5.307   9.584  0.0071 -0.1538  0.0243
  268loPI   C2B 4286   9.926   5.212   9.114 -0.0516  0.0111 -0.1329
  268loPI   C3B 4287   9.934   5.240   8.678 -0.0507 -0.2167  0.1301
  268loPI   C4B 4288   9.873   5.101   8.253 -0.0585  0.1221  0.4797
  269loPI    C1 4289   6.339  16.226  10.449 -0.1649  0.3355  0.0668
  269loPI    C2 4290   6.564  16.144  10.769 -0.1033  0.0511 -0.0462
  269loPI    C3 4291   6.259  15.905  10.673 -0.0417  0.0618 -0.2735
  269loPI   PO4 4292   6.480  16.316  10.289 -0.1111  0.2282  0.2269
  269loPI   GL1 4293   6.531  16.489   9.870  0.2394  0.0690  0.0273
  269loPI   GL2 4294   6.555  16.250   9.788 -0.0374  0.0866  0.0817
  269loPI   C1A 4295   6.534  16.753   9.563  0.1659 -0.2368  0.3004
  269loPI   C2A 4296   6.448  16.842   9.190  0.1428  0.2061  0.1684
  269loPI   C3A 4297   6.358  17.119   8.835  0.0163  0.0708 -0.2935
  269loPI   C4A 4298   5.959  17.204   8.729  0.0314  0.0060 -0.0208
  269loPI   C5A 4299   5.625  17.134   8.575 -0.2570  0.0773 -0.3017
  269loPI   C6A 4300   5.476  17.409   8.214 -0.0927  0.1962 -0.2576
  269loPI   C1B 4301   6.389  16.164   9.326 -0.3040 -0.0600  0.3248
  269loPI   C2B 4302   6.349  16.264   8.850 -0.1956 -0.0905  0.0812
  269loPI   C3B 4303   6.344  16.310   8.426  0.0560 -0.0335  0.1821
  269loPI   C4B 4304   6.519  16.216   7.986  0.1943  0.0980 -0.1549
  270loPI    C1 4305   7.095   6.521  10.108  0.2019  0.0883 -0.1979
  270loPI    C2 4306   7.205   6.898  10.185 -0.0665  0.1404 -0.0594
  270loPI    C3 4307   6.888   6.740  10.371 -0.0247 -0.1169 -0.2024
  270loPI   PO4 4308   7.221   6.456   9.948 -0.0625 -0.0189 -0.1810
  270loPI   GL1 4309   7.414   6.437   9.545 -0.1912 -0.1581 -0.1657
  270loPI   GL2 4310   7.440   6.605   9.234  0.0509 -0.1003 -0.1599
  270loPI   C1A 4311   7.152   6.107   9.309 -0.1136 -0.0893 -0.0113
  270loPI   C2A 4312   7.003   6.084   8.913 -0.2894  0.0662  0.0496
  270loPI   C3A 4313   6.704   6.088   8.610 -0.0656 -0.0866 -0.0448
  270loPI   C4A 4314   6.429   5.906   8.369 -0.1170 -0.4052 -0.1015
  270loPI   C5A 4315   6.398   5.870   8.026  0.0543 -0.2151 -0.0025
  270loPI   C6A 4316   6.484   5.825   7.618  0.0548  0.1759 -0.0721
  270loPI   C1B 4317   7.390   6.603   8.810 -0.1348  0.1710 -0.3047
  270loPI   C2B 4318   7.290   6.322   8.592  0.0854 -0.0022  0.0721
  270loPI   C3B 4319   7.260   6.173   8.180 -0.0921 -0.0698 -0.0413
  270loPI   C4B 4320   6.905   5.999   7.958  0.0175  0.3002 -0.0861
  271loPI    C1 4321   6.205   9.256  10.161 -0.0206  0.0430 -0.1526
  271loPI    C2 4322   5.838   9.170  10.028 -0.0398 -0.0079 -0.0675
  271loPI    C3 4323   5.927   9.120  10.414  0.0553  0.0096 -0.0870
  271loPI   PO4 4324   6.270   9.434   9.998 -0.1489  0.1187 -0.1891
  271loPI   GL1 4325   6.299   9.690   9.682  0.0535  0.3641  0.2458
  271loPI   GL2 4326   5.975   9.492   9.540 -0.1407 -0.2445 -0.1362
  271loPI   C1A 4327   6.576   9.401   9.466  0.1334 -0.1056  0.0197
  271loPI   C2A 4328   6.464   9.219   8.990  0.0722  0.0395  0.1010
  271loPI   C3A 4329   6.608   9.059   8.619 -0.0448  0.0108  0.0525
  271loPI   C4A 4330   6.609   9.045   8.200  0.1481 -0.1152 -0.4448
  271loPI   C5A 4331   6.307   9.208   7.809  0.0124  0.2144 -0.0282
  271loPI   C6A 4332   6.479   9.274   7.408  0.0667  0.2210  0.1985
  271loPI   C1B 4333   5.986   9.304   9.166  0.0175 -0.1665 -0.0466
  271loPI   C2B 4334   6.120   9.469   8.720  0.2850 -0.0376 -0.0051
  271loPI   C3B 4335   6.391   9.508   8.366 -0.2545 -0.1255 -0.1211
  271loPI   C4B 4336   6.581   9.755   8.000 -0.0240  0.1697 -0.0660
  272loPI    C1 4337  15.449  14.945  10.812  0.0279 -0.0352 -0.1327
  272loPI    C2 4338  15.571  15.030  11.183  0.3321 -0.0004 -0.2381
  272loPI    C3 4339  15.397  14.679  11.106  0.2404  0.0044 -0.0574
  272loPI   PO4 4340  15.699  15.043  10.724 -0.0606 -0.0808  0.0651
  272loPI   GL1 4341  15.838  15.058  10.294  0.1881  0.0363 -0.1675
  272loPI   GL2 4342  15.647  14.815  10.295 -0.0740 -0.0430  0.1583
  272loPI   C1A 4343  15.683  15.184   9.889 -0.3651 -0.1324  0.1566
  272loPI   C2A 4344  15.681  15.194   9.365  0.0604 -0.0037  0.1362
  272loPI   C3A 4345  15.717  15.168   8.903 -0.2375  0.0651 -0.3712
  272loPI   C4A 4346  15.768  15.075   8.466 -0.1718 -0.1886 -0.2246
  272loPI   C5A 4347  15.891  14.922   8.135 -0.1733 -0.0002 -0.0473
  272loPI   C6A 4348  16.277  14.686   7.996  0.1804  0.2106  0.0840
  272loPI   C1B 4349  15.888  14.634   9.940  0.1010  0.4693  0.0023
  272loPI   C2B 4350  15.894  14.753   9.544  0.2539  0.1781  0.0382
  272loPI   C3B 4351  15.870  14.710   9.065  0.1737  0.2067 -0.1651
  272loPI   C4B 4352  15.920  14.585   8.588 -0.1324  0.0271 -0.0548
  273loPI    C1 4353  12.242   6.845  10.793  0.0852 -0.0114 -0.0449
  273loPI    C2 4354  11.940   7.036  10.974  0.1570  0.1296 -0.0722
  273loPI    C3 4355  12.090   6.701  11.134 -0.2491 -0.1418 -0.2438
  273loPI   PO4 4356  12.142   6.832  10.466 -0.0855 -0.0365 -0.1446
  273loPI   GL1 4357  12.138   6.573  10.135  0.1041  0.0451 -0.0613
  273loPI   GL2 4358  12.290   6.310  10.349 -0.1604 -0.1139  0.1378
  273loPI   C1A 4359  12.207   6.865   9.713  0.0493  0.2467 -0.1625
  273loPI   C2A 4360  12.237   6.769   9.266 -0.0856 -0.0208 -0.0724
  273loPI   C3A 4361  12.546   6.691   9.065 -0.1349 -0.0687 -0.1397
  273loPI   C4A 4362  12.968   6.835   9.023  0.2581  0.1476 -0.0452
  273loPI   C5A 4363  13.387   6.997   8.855 -0.3898  0.0646  0.0607
  273loPI   C6A 4364  13.401   6.930   8.444  0.0674  0.1010  0.5281
  273loPI   C1B 4365  12.362   6.050   9.972  0.2943 -0.0830  0.1589
  273loPI   C2B 4366  12.457   5.828   9.708  0.1457 -0.3555  0.0595
  273loPI   C3B 4367  12.511   5.780   9.279  0.0244 -0.0534  0.1139
  273loPI   C4B 4368  12.624   5.737   8.815 -0.0914 -0.1430  0.2759
  274loPI    C1 4369  17.044  12.326  10.274 -0.1351 -0.0733 -0.0442
  274loPI    C2 4370  16.909  12.522  10.596  0.2255 -0.0990  0.1278
  274loPI    C3 4371  17.060  12.154  10.635  0.4833 -0.0135 -0.0311
  274loPI   PO4 4372  17.095  12.401  10.080  0.2035  0.1670 -0.1767
  274loPI   GL1 4373  16.943  12.565   9.715  0.0215  0.1604 -0.0913
  274loPI   GL2 4374  16.820  12.334   9.660 -0.1506 -0.2698  0.0345
  274loPI   C1A 4375  17.242  12.619   9.390 -0.0512 -0.3541  0.1979
  274loPI   C2A 4376  17.123  12.575   8.926  0.0167 -0.0466  0.1013
  274loPI   C3A 4377  16.997  12.561   8.501 -0.1644  0.0969 -0.0248
  274loPI   C4A 4378  16.995  12.774   8.071 -0.0012  0.0373 -0.0204
  274loPI   C5A 4379  16.742  13.114   7.984  0.0652  0.2631  0.1409
  274loPI   C6A 4380  16.510  13.444   7.929  0.2469 -0.1979 -0.0103
  274loPI   C1B 4381  16.817  12.329   9.198 -0.1496  0.2278  0.0401
  274loPI   C2B 4382  16.823  12.196   8.782 -0.1309 -0.1712 -0.3115
  274loPI   C3B 4383  16.654  12.188   8.390 -0.1482 -0.2155  0.0486
  274loPI   C4B 4384  16.565  12.158   7.911  0.2547 -0.2125  0.0729
  275loPI    C1 4385   2.983  17.835  10.382 -0.0290  0.1507 -0.1792
  275loPI    C2 4386   3.316  18.057  10.373  0.0837 -0.0100 -0.0339
  275loPI    C3 4387   3.324  17.678  10.244 -0.0795  0.0313 -0.1695
  275loPI   PO4 4388   2.853  17.937  10.317 -0.1646 -0.2052  0.1589
  275loPI   GL1 4389   2.931  18.208   9.901  0.0123 -0.0919 -0.2555
  275loPI   GL2 4390   3.203  17.986   9.831  0.0956 -0.0667  0.2340
  275loPI   C1A 4391   2.647  18.313   9.579 -0.0153  0.1083 -0.0387
  275loPI   C2A 4392   2.402  18.169   9.199  0.0312 -0.1218  0.0992
  275loPI   C3A 4393   2.513  18.084   8.755  0.0684 -0.2670 -0.1553
  275loPI   C4A 4394   2.430  18.143   8.332 -0.3387  0.2182  0.2458
  275loPI   C5A 4395   2.761  18.351   8.231 -0.2938  0.0693 -0.0548
  275loPI   C6A 4396   3.210  18.278   8.226 -0.0286  0.2896 -0.0695
  275loPI   C1B 4397   3.277  18.052   9.465  0.1734  0.0269 -0.1894
  275loPI   C2B 4398   3.281  17.890   9.183 -0.1474 -0.0030 -0.2289
  275loPI   C3B 4399   3.371  17.743   8.807  0.1377  0.0464  0.0442
  275loPI   C4B 4400   3.325  17.821   8.381  0.2776  0.2651 -0.2148
  276loPI    C1 4401   9.007   6.365  10.120 -0.0420 -0.1391 -0.0027
  276loPI    C2 4402   9.037   6.251  10.502  0.1456  0.1920  0.0856
  276loPI    C3 4403   8.798   6.556  10.402 -0.0295  0.0016 -0.0876
  276loPI   PO4 4404   9.003   6.080  10.029 -0.2311  0.0609 -0.1801
  276loPI   GL1 4405   9.106   5.878   9.576  0.0102 -0.0177 -0.2547
  276loPI   GL2 4406   8.881   5.699   9.595 -0.1336 -0.3779  0.0992
  276loPI   C1A 4407   9.176   5.867   9.171  0.1890  0.0070  0.0488
  276loPI   C2A 4408   9.222   5.839   8.710  0.1145 -0.0854  0.1215
  276loPI   C3A 4409   9.333   5.828   8.249 -0.0391 -0.0173  0.0173
  276loPI   C4A 4410   9.566   6.104   7.855  0.2624  0.0285  0.3431
  276loPI   C5A 4411   9.434   6.470   7.702  0.3599 -0.0647  0.0461
  276loPI   C6A 4412   9.263   6.845   7.912 -0.0564  0.1323  0.0254
  276loPI   C1B 4413   8.751   5.532   9.325  0.1413  0.0189  0.2073
  276loPI   C2B 4414   8.894   5.447   8.924  0.3610 -0.1473  0.1922
  276loPI   C3B 4415   8.875   5.521   8.491  0.1882  0.1335  0.0768
  276loPI   C4B 4416   9.008   5.502   8.071 -0.0269 -0.2829 -0.0821
  277loPI    C1 4417   6.503  13.860  10.528 -0.0118  0.0125 -0.0019
  277loPI    C2 4418   6.177  13.801  10.753 -0.2307 -0.0123 -0.3191
  277loPI    C3 4419   6.334  14.168  10.720 -0.0928 -0.0387  0.0097
  277loPI   PO4 4420   6.478  13.725  10.297 -0.1640  0.1976 -0.2443
  277loPI   GL1 4421   6.764  13.471   9.972 -0.1819 -0.0352  0.2280
  277loPI   GL2 4422   6.819  13.740   9.831  0.0020  0.4147 -0.4447
  277loPI   C1A 4423   6.651  13.234   9.526  0.0898 -0.0683  0.1910
  277loPI   C2A 4424   6.632  13.218   9.128 -0.2385 -0.2625 -0.0316
  277loPI   C3A 4425   6.751  13.088   8.720  0.2472  0.0075  0.1665
  277loPI   C4A 4426   6.765  13.126   8.274 -0.3330 -0.1195 -0.0905
  277loPI   C5A 4427   6.575  13.149   7.898  0.0096 -0.0483 -0.1934
  277loPI   C6A 4428   6.572  13.174   7.513  0.2601  0.4098  0.1002
  277loPI   C1B 4429   6.846  14.079   9.577 -0.1603  0.1304  0.2437
  277loPI   C2B 4430   6.771  14.184   9.112 -0.0112  0.0307 -0.4758
  277loPI   C3B 4431   6.707  14.372   8.751 -0.0625  0.1106 -0.1769
  277loPI   C4B 4432   6.638  14.413   8.323 -0.0392  0.4947 -0.0677
  278loPI    C1 4433  12.258  16.715  10.550 -0.2226 -0.0448  0.1111
  278loPI    C2 4434  11.896  16.602  10.678 -0.2752 -0.0680 -0.0549
  278loPI    C3 4435  11.966  16.986  10.589 -0.1877 -0.0209  0.2075
  278loPI   PO4 4436  12.333  16.607  10.265 -0.1210  0.2562 -0.0635
  278loPI   GL1 4437  12.248  16.639   9.799  0.0053  0.2194  0.0725
  278loPI   GL2 4438  12.426  16.975   9.725 -0.0660 -0.1421 -0.1216
  278loPI   C1A 4439  12.406  16.484   9.476  0.1638 -0.0157  0.2376
  278loPI   C2A 4440  12.315  16.269   9.130 -0.1296  0.2677  0.0210
  278loPI   C3A 4441  12.373  16.079   8.710 -0.1524 -0.0217  0.0581
  278loPI   C4A 4442  12.627  16.012   8.282 -0.3760  0.1925 -0.1657
  278loPI   C5A 4443  12.843  16.224   7.860 -0.1370  0.0079 -0.1283
  278loPI   C6A 4444  12.960  15.999   7.473  0.2740 -0.0379  0.1386
  278loPI   C1B 4445  12.430  16.956   9.344  0.0079  0.0609  0.3801
  278loPI   C2B 4446  12.338  16.772   8.995  0.0736  0.2145 -0.0981
  278loPI   C3B 4447  12.336  16.905   8.556 -0.1467  0.2262 -0.3588
  278loPI   C4B 4448  12.591  17.037   8.193  0.0031 -0.2105 -0.1196
  279loPI    C1 4449   5.401  10.947  10.692  0.0549  0.1132 -0.0137
  279loPI    C2 4450   5.739  10.850  10.501  0.0134  0.0610 -0.0608
  279loPI    C3 4451   5.519  10.565  10.677  0.0580  0.1105  0.0760
  279loPI   PO4 4452   5.205  11.027  10.521  0.2059 -0.0635  0.2572
  279loPI   GL1 4453   5.236  11.111  10.062  0.0015 -0.1829  0.0874
  279loPI   GL2 4454   5.306  10.870   9.789 -0.3561 -0.1205  0.1079
  279loPI   C1A 4455   5.090  11.321   9.667  0.0625  0.0971  0.0579
  279loPI   C2A 4456   5.013  11.366   9.293 -0.1948 -0.3447 -0.0140
  279loPI   C3A 4457   4.870  11.641   8.914 -0.0867  0.0320  0.1696
  279loPI   C4A 4458   4.799  11.793   8.434 -0.0979  0.2796  0.2475
  279loPI   C5A 4459   4.534  12.047   8.207 -0.0049  0.0416  0.1209
  279loPI   C6A 4460   4.236  12.112   7.870  0.1606 -0.0078  0.4103
  279loPI   C1B 4461   5.326  10.950   9.326 -0.2190 -0.0782  0.1928
  279loPI   C2B 4462   5.123  11.028   8.859  0.3489  0.0752 -0.2473
  279loPI   C3B 4463   5.079  11.343   8.579  0.3740  0.4172  0.1957
  279loPI   C4B 4464   5.005  11.441   8.137 -0.2841  0.0171  0.0307
  280loPI    C1 4465   0.219  16.187  10.716  0.0201  0.0593 -0.0164
  280loPI    C2 4466   0.136  16.219  11.106  0.2293 -0.0240  0.0367
  280loPI    C3 4467   0.168  15.858  10.938  0.0499  0.0124 -0.0788
  280loPI   PO4 4468   0.040  16.334  10.608  0.2800 -0.1702  0.2141
  280loPI   GL1 4469   0.129  16.420  10.105  0.1699  0.2387  0.3062
  280loPI   GL2 4470   0.100  16.721   9.938 -0.3624  0.2039 -0.2828
  280loPI   C1A 4471   0.099  16.117   9.775 -0.2598 -0.0723  0.3432
  280loPI   C2A 4472   0.190  16.077   9.312 -0.2669 -0.2648  0.2704
  280loPI   C3A 4473   0.384  16.130   8.882 -0.0473 -0.2227 -0.1162
  280loPI   C4A 4474   0.263  16.130   8.471 -0.1236 -0.1091 -0.0536
  280loPI   C5A 4475  -0.016  16.038   8.090  0.0329  0.1567  0.3274
  280loPI   C6A 4476  -0.479  16.042   7.978  0.0595  0.0812 -0.0296
  280loPI   C1B 4477   0.195  16.952   9.632 -0.2348 -0.0346 -0.0030
  280loPI   C2B 4478   0.144  17.058   9.216  0.0748 -0.0058 -0.0345
  280loPI   C3B 4479   0.024  17.071   8.851  0.3373  0.0708 -0.0571
  280loPI   C4B 4480  -0.054  17.249   8.484 -0.0296 -0.2299  0.0261
  281loPI    C1 4481  17.569  14.218  10.550  0.3114 -0.0692  0.0203
  281loPI    C2 4482  17.599  13.961  10.854 -0.0539 -0.1798 -0.0319
  281loPI    C3 4483  17.458  14.329  10.918 -0.1165 -0.1980 -0.0642
  281loPI   PO4 4484  17.469  14.128  10.252 -0.0663 -0.0905 -0.0208
  281loPI   GL1 4485  17.362  14.223   9.863 -0.0588  0.3675  0.2272
  281loPI   GL2 4486  17.460  14.568   9.783  0.1568  0.1448 -0.0498
  281loPI   C1A 4487  17.103  14.169   9.642 -0.0292  0.1128  0.0343
  281loPI   C2A 4488  17.109  14.009   9.227  0.0805  0.0522 -0.0879
  281loPI   C3A 4489  17.123  14.015   8.876 -0.0297  0.4503  0.0449
  281loPI   C4A 4490  16.987  13.910   8.477  0.0736  0.0753  0.3129
  281loPI   C5A 4491  16.710  13.987   8.123  0.2204  0.2554 -0.2670
  281loPI   C6A 4492  16.435  14.241   7.989 -0.1384  0.1297 -0.1772
  281loPI   C1B 4493  17.362  14.484   9.365  0.3572 -0.0626 -0.1631
  281loPI   C2B 4494  17.369  14.462   8.933  0.0762  0.0619  0.1586
  281loPI   C3B 4495  17.372  14.512   8.479 -0.3549  0.1418 -0.1157
  281loPI   C4B 4496  17.276  14.399   8.033 -0.1259  0.1741 -0.2960
  282loPI    C1 4497  16.622  11.910  10.378  0.0110 -0.0206  0.1641
  282loPI    C2 4498  16.559  11.536  10.250  0.0043 -0.0333  0.2041
  282loPI    C3 4499  16.923  11.647  10.372  0.0849  0.0673 -0.1189
  282loPI   PO4 4500  16.315  12.010  10.273  0.2043  0.0363 -0.2555
  282loPI   GL1 4501  16.146  12.200   9.898  0.0573 -0.4310  0.0909
  282loPI   GL2 4502  16.003  11.968   9.752 -0.0515  0.1819  0.3993
  282loPI   C1A 4503  16.325  12.331   9.565 -0.2280 -0.2212  0.0332
  282loPI   C2A 4504  16.226  12.336   9.103 -0.1807  0.0010  0.0874
  282loPI   C3A 4505  16.222  12.306   8.655 -0.0197  0.1682 -0.1059
  282loPI   C4A 4506  16.195  12.253   8.252  0.2971  0.1940 -0.2443
  282loPI   C5A 4507  16.129  12.365   7.905 -0.0863  0.1526  0.1936
  282loPI   C6A 4508  15.998  12.487   7.543 -0.1924 -0.0755 -0.1370
  282loPI   C1B 4509  15.934  11.895   9.409  0.2177  0.0038  0.1123
  282loPI   C2B 4510  15.998  11.893   8.987  0.2243 -0.0391  0.1440
  282loPI   C3B 4511  15.865  11.835   8.565 -0.2003 -0.0268 -0.1883
  282loPI   C4B 4512  15.857  11.692   8.156 -0.3652 -0.1853  0.3871
  283loPI    C1 4513  12.377   2.899  10.935 -0.0640  0.1175  0.0812
  283loPI    C2 4514  12.665   3.068  11.155 -0.0370  0.2139 -0.0269
  283loPI    C3 4515  12.380   2.851  11.332  0.2563 -0.1146  0.0541
  283loPI   PO4 4516  12.505   2.865  10.698 -0.2123  0.3626  0.0135
  283loPI   GL1 4517  12.371   2.723  10.274  0.1796  0.0451 -0.1033
  283loPI   GL2 4518  12.223   2.405  10.110  0.0020 -0.1144 -0.0686
  283loPI   C1A 4519  12.396   2.853  10.007  0.0508  0.2579 -0.1628
  283loPI   C2A 4520  12.382   2.765   9.535 -0.2974 -0.2413  0.2051
  283loPI   C3A 4521  12.266   2.866   9.089 -0.0121 -0.0295  0.3249
  283loPI   C4A 4522  12.385   2.970   8.672 -0.2599  0.0862  0.0906
  283loPI   C5A 4523  12.290   3.346   8.382  0.1513  0.1235 -0.2233
  283loPI   C6A 4524  12.210   3.563   8.054  0.1783  0.2285 -0.2409
  283loPI   C1B 4525  11.978   2.509   9.705 -0.1784  0.2749  0.0190
  283loPI   C2B 4526  11.952   2.550   9.347 -0.2310  0.0356  0.1184
  283loPI   C3B 4527  11.832   2.491   9.038 -0.2374  0.0273 -0.2059
  283loPI   C4B 4528  11.884   2.718   8.678 -0.0607  0.3185 -0.1759
  284loPI    C1 4529  17.835  15.087  10.329 -0.3372 -0.0674 -0.2926
  284loPI    C2 4530  18.154  15.144  10.095 -0.3196 -0.0315 -0.2601
  284loPI    C3 4531  18.115  14.802  10.299 -0.1811  0.0596 -0.0781
  284loPI   PO4 4532  17.654  15.065  10.232  0.1220 -0.0897  0.2312
  284loPI   GL1 4533  17.650  15.174   9.858  0.0983 -0.2963  0.1488
  284loPI   GL2 4534  17.841  14.895   9.797  0.5006 -0.2069 -0.1485
  284loPI   C1A 4535  17.537  15.325   9.474 -0.0767 -0.1637  0.0530
  284loPI   C2A 4536  17.696  15.313   9.018  0.2345  0.1668  0.2469
  284loPI   C3A 4537  17.870  15.392   8.619 -0.0719  0.1456 -0.1703
  284loPI   C4A 4538  18.082  15.262   8.282  0.0668  0.1084 -0.0243
  284loPI   C5A 4539  18.339  15.134   7.860 -0.0443 -0.0490  0.0886
  284loPI   C6A 4540  18.781  15.082   7.768 -0.0744 -0.1211 -0.0973
  284loPI   C1B 4541  17.730  14.882   9.378 -0.1119 -0.0449  0.0100
  284loPI   C2B 4542  17.624  14.841   8.872  0.0926 -0.0335 -0.1645
  284loPI   C3B 4543  17.736  14.920   8.459 -0.1877 -0.3439 -0.2853
  284loPI   C4B 4544  17.814  15.047   7.913 -0.1474 -0.1468 -0.0769
  285loPI    C1 4545   7.638   3.983  10.536  0.0329 -0.0309  0.0526
  285loPI    C2 4546   7.608   3.651  10.314 -0.0462 -0.0439  0.0825
  285loPI    C3 4547   7.558   3.632  10.711  0.1256 -0.0259  0.1058
  285loPI   PO4 4548   7.483   4.102  10.362  0.1298 -0.0218  0.1595
  285loPI   GL1 4549   7.532   3.998   9.914 -0.0766  0.1661 -0.3300
  285loPI   GL2 4550   7.785   4.139   9.709 -0.0576  0.1044 -0.0057
  285loPI   C1A 4551   7.350   3.807   9.617  0.2086  0.3712 -0.1629
  285loPI   C2A 4552   7.374   3.736   9.096 -0.1618 -0.1702 -0.0012
  285loPI   C3A 4553   7.405   3.997   8.761 -0.0464 -0.1186  0.1078
  285loPI   C4A 4554   7.327   4.270   8.372 -0.0640  0.2850 -0.0033
  285loPI   C5A 4555   7.161   4.199   7.940 -0.1127 -0.2036  0.0804
  285loPI   C6A 4556   6.969   4.515   7.713 -0.0373  0.1513 -0.0087
  285loPI   C1B 4557   7.743   3.996   9.316  0.1146  0.1975 -0.1023
  285loPI   C2B 4558   7.837   4.155   8.970 -0.1064  0.2276 -0.2395
  285loPI   C3B 4559   7.838   4.391   8.495 -0.1028 -0.1295 -0.3028
  285loPI   C4B 4560   7.735   4.489   8.154  0.1417  0.0647 -0.0303
  286loPI    C1 4561   0.034   9.408  10.241  0.0032  0.1324 -0.2016
  286loPI    C2 4562  -0.346   9.400  10.116 -0.0241  0.1349 -0.1191
  286loPI    C3 4563  -0.261   9.512  10.490  0.0525  0.0690 -0.1164
  286loPI   PO4 4564   0.180   9.570  10.049  0.1287  0.0135 -0.2833
  286loPI   GL1 4565   0.458   9.761   9.821 -0.1292 -0.1001 -0.1703
  286loPI   GL2 4566   0.212   9.982   9.660  0.1000  0.0944 -0.1655
  286loPI   C1A 4567   0.408   9.685   9.298  0.0660 -0.1182 -0.0805
  286loPI   C2A 4568   0.398   9.675   8.855  0.0184  0.4149  0.1137
  286loPI   C3A 4569   0.215   9.718   8.468  0.2145  0.0426  0.1963
  286loPI   C4A 4570   0.312   9.594   8.096  0.2045 -0.0103 -0.0980
  286loPI   C5A 4571   0.687   9.578   7.889 -0.1161  0.1075  0.1821
  286loPI   C6A 4572   1.061   9.772   7.673  0.0204 -0.0339  0.0897
  286loPI   C1B 4573   0.164  10.102   9.184 -0.0265  0.2467 -0.1516
  286loPI   C2B 4574   0.221  10.142   8.778  0.1140 -0.1022  0.2141
  286loPI   C3B 4575   0.299  10.193   8.313 -0.1342  0.0295 -0.0544
  286loPI   C4B 4576   0.574  10.043   8.009 -0.1415 -0.1325 -0.0450
  287loPI    C1 4577  10.343   9.208  10.162  0.0322  0.1569  0.1767
  287loPI    C2 4578  10.250   8.877  10.366  0.0967 -0.0522 -0.1256
  287loPI    C3 4579  10.545   9.115  10.494 -0.1671  0.0696  0.2750
  287loPI   PO4 4580  10.167   9.311  10.085  0.0211 -0.3231  0.1766
  287loPI   GL1 4581  10.225   9.321   9.661 -0.0375 -0.0557  0.1141
  287loPI   GL2 4582   9.867   9.228   9.698  0.0151  0.2736  0.0866
  287loPI   C1A 4583  10.277   9.519   9.293  0.1650 -0.1522 -0.4138
  287loPI   C2A 4584  10.286   9.506   8.871 -0.1777 -0.3308 -0.1074
  287loPI   C3A 4585  10.208   9.734   8.513  0.1522  0.0893 -0.3338
  287loPI   C4A 4586  10.378   9.983   8.215  0.0168 -0.1944  0.0870
  287loPI   C5A 4587  10.482  10.419   8.111  0.0576  0.1447 -0.0534
  287loPI   C6A 4588  10.727  10.638   7.811  0.2768 -0.2148  0.1644
  287loPI   C1B 4589   9.930   9.146   9.307 -0.0004 -0.3199 -0.0418
  287loPI   C2B 4590   9.935   9.091   8.918 -0.2030 -0.1409  0.0399
  287loPI   C3B 4591   9.921   8.838   8.538  0.0623  0.1210 -0.1545
  287loPI   C4B 4592   9.635   8.759   8.302  0.2222  0.3070 -0.1419
  288loPI    C1 4593  17.611  17.829  11.105 -0.0786  0.3219  0.0793
  288loPI    C2 4594  17.912  17.582  11.013 -0.2696  0.0412  0.1966
  288loPI    C3 4595  17.862  17.705  11.391 -0.1742  0.2638  0.1384
  288loPI   PO4 4596  17.443  17.827  10.869 -0.0715  0.0574  0.1617
  288loPI   GL1 4597  17.462  18.023  10.427 -0.3036 -0.1991 -0.0841
  288loPI   GL2 4598  17.697  18.309  10.287  0.1006  0.3412 -0.1361
  288loPI   C1A 4599  17.181  18.055  10.156 -0.0112  0.0603  0.1006
  288loPI   C2A 4600  17.086  18.123   9.688  0.0751 -0.1151  0.2695
  288loPI   C3A 4601  16.944  18.257   9.275  0.1239  0.0980 -0.0135
  288loPI   C4A 4602  16.898  18.355   8.864 -0.0114  0.1263 -0.0451
  288loPI   C5A 4603  16.943  18.358   8.439 -0.0349  0.1495  0.4211
  288loPI   C6A 4604  16.769  18.389   8.208 -0.0706 -0.0571  0.1874
  288loPI   C1B 4605  17.458  18.453   9.977  0.1954  0.1234 -0.1839
  288loPI   C2B 4606  17.436  18.591   9.556  0.3587 -0.2212  0.0031
  288loPI   C3B 4607  17.290  18.614   9.154  0.1646  0.1311  0.0916
  288loPI   C4B 4608  17.230  18.735   8.707  0.0578 -0.3602  0.1442
  289loPI    C1 4609   0.607   0.329  10.234  0.1164 -0.0153 -0.1240
  289loPI    C2 4610   0.260   0.242  10.412  0.1118 -0.0877 -0.1678
  289loPI    C3 4611   0.605   0.136  10.584  0.1286  0.3584  0.0866
  289loPI   PO4 4612   0.544   0.426  10.023 -0.4034 -0.1240  0.1718
  289loPI   GL1 4613   0.620   0.321   9.656 -0.0757  0.0038 -0.0676
  289loPI   GL2 4614   0.670   0.678   9.656 -0.0569 -0.0441 -0.1441
  289loPI   C1A 4615   0.674   0.302   9.222  0.2878 -0.0560  0.2159
  289loPI   C2A 4616   0.737   0.133   8.852 -0.1600  0.0769  0.2839
  289loPI   C3A 4617   0.632   0.164   8.422 -0.2984 -0.2951 -0.0807
  289loPI   C4A 4618   0.385   0.117   7.962 -0.0205  0.1028 -0.2683
  289loPI   C5A 4619   0.473   0.140   7.538  0.1276  0.2070  0.1074
  289loPI   C6A 4620   0.583   0.014   7.156 -0.0508  0.1558  0.2395
  289loPI   C1B 4621   0.690   0.768   9.266 -0.1398 -0.1252  0.1281
  289loPI   C2B 4622   0.742   0.673   8.953 -0.0844 -0.1240 -0.0560
  289loPI   C3B 4623   0.707   0.699   8.537 -0.1771 -0.1092 -0.0918
  289loPI   C4B 4624   0.738   0.478   8.112  0.1166  0.0102 -0.0302
  290loPI    C1 4625  16.223   7.421  10.375  0.0526 -0.1243  0.0610
  290loPI    C2 4626  16.350   7.214  10.693  0.1102 -0.0557  0.0826
  290loPI    C3 4627  16.226   7.592  10.736 -0.1304 -0.1307  0.0668
  290loPI   PO4 4628  16.366   7.482  10.184 -0.1021  0.1327 -0.3911
  290loPI   GL1 4629  16.443   7.601   9.906 -0.4413 -0.2851  0.2342
  290loPI   GL2 4630  16.727   7.718   9.738  0.0012 -0.1355  0.1888
  290loPI   C1A 4631  16.158   7.382   9.590  0.1703 -0.1159 -0.0016
  290loPI   C2A 4632  16.037   7.391   9.185  0.2838 -0.2851 -0.3387
  290loPI   C3A 4633  15.682   7.635   8.853  0.1787 -0.1318 -0.2885
  290loPI   C4A 4634  15.792   7.743   8.471  0.3685 -0.0347  0.2078
  290loPI   C5A 4635  16.148   7.937   8.275 -0.1319 -0.0251 -0.1923
  290loPI   C6A 4636  16.567   8.179   8.140 -0.2240  0.3970 -0.1373
  290loPI   C1B 4637  16.560   7.604   9.252 -0.1695 -0.0324 -0.3878
  290loPI   C2B 4638  16.601   7.599   8.880  0.0568  0.3149 -0.0953
  290loPI   C3B 4639  16.620   7.620   8.467  0.1606  0.0858 -0.0605
  290loPI   C4B 4640  16.544   7.666   8.078  0.0208 -0.2218 -0.1143
  291loPI    C1 4641   1.692   7.374  10.264  0.0925  0.0328  0.0319
  291loPI    C2 4642   1.363   7.250  10.455 -0.0576  0.3367 -0.0216
  291loPI    C3 4643   1.724   7.191  10.618 -0.1312 -0.0484  0.0120
  291loPI   PO4 4644   1.635   7.283   9.968  0.0221  0.0524  0.2805
  291loPI   GL1 4645   1.343   7.187   9.626 -0.2153 -0.0006 -0.0475
  291loPI   GL2 4646   1.061   7.283   9.449  0.1339 -0.0311 -0.1533
  291loPI   C1A 4647   1.480   7.315   9.208 -0.1708  0.0762 -0.0540
  291loPI   C2A 4648   1.426   7.388   8.793 -0.1181  0.0391 -0.2032
  291loPI   C3A 4649   1.449   7.416   8.393  0.2088 -0.3537  0.1158
  291loPI   C4A 4650   1.662   7.488   7.980 -0.0937  0.0627 -0.1645
  291loPI   C5A 4651   1.825   7.714   7.742 -0.0154 -0.1769 -0.0157
  291loPI   C6A 4652   1.927   8.106   7.691  0.0816 -0.0134  0.0386
  291loPI   C1B 4653   0.969   7.231   9.025 -0.2632 -0.1410 -0.1713
  291loPI   C2B 4654   0.930   7.392   8.565 -0.1385  0.1542 -0.1327
  291loPI   C3B 4655   0.732   7.467   8.154 -0.0444 -0.1392 -0.1793
  291loPI   C4B 4656   0.265   7.441   8.163  0.0368  0.0191 -0.0886
  292loPI    C1 4657   2.348  10.849  10.296  0.0319  0.1890  0.0244
  292loPI    C2 4658   2.481  11.099  10.579 -0.1068  0.0671  0.2001
  292loPI    C3 4659   2.494  10.704  10.639 -0.1375  0.0404  0.0349
  292loPI   PO4 4660   2.069  11.013  10.155  0.1231 -0.0722  0.0745
  292loPI   GL1 4661   2.017  11.354   9.926 -0.0686  0.0327  0.2873
  292loPI   GL2 4662   1.801  11.617   9.767  0.0698  0.0249  0.1871
  292loPI   C1A 4663   2.413  11.461   9.634  0.0107  0.1433 -0.1960
  292loPI   C2A 4664   2.443  11.699   9.177  0.0390  0.0770 -0.1222
  292loPI   C3A 4665   2.672  11.517   8.751  0.0377 -0.0190 -0.0666
  292loPI   C4A 4666   2.540  11.393   8.337  0.1292  0.0831 -0.0226
  292loPI   C5A 4667   2.351  11.323   7.962 -0.5226 -0.0797 -0.0921
  292loPI   C6A 4668   2.150  11.209   7.620  0.1342 -0.2604 -0.0576
  292loPI   C1B 4669   1.960  11.489   9.330  0.2153  0.1630 -0.1502
  292loPI   C2B 4670   2.085  11.627   8.807 -0.0747 -0.2865  0.4255
  292loPI   C3B 4671   2.040  11.609   8.352 -0.0345  0.0466 -0.0535
  292loPI   C4B 4672   1.805  11.502   7.903  0.0904  0.1598  0.0315
  293loPI    C1 4673  15.326  17.292  10.766 -0.1465 -0.1001  0.2202
  293loPI    C2 4674  15.347  17.213  11.158  0.1403 -0.1362  0.1999
  293loPI    C3 4675  15.377  16.916  10.891  0.1282 -0.0897  0.1469
  293loPI   PO4 4676  15.095  17.409  10.731  0.1221 -0.3157 -0.1273
  293loPI   GL1 4677  15.027  17.512  10.361 -0.0025  0.3411  0.1283
  293loPI   GL2 4678  14.681  17.587  10.368 -0.1326  0.0174 -0.0791
  293loPI   C1A 4679  15.133  17.626   9.959 -0.1424 -0.0709 -0.0806
  293loPI   C2A 4680  15.055  17.386   9.651  0.3315 -0.1036  0.3409
  293loPI   C3A 4681  14.942  17.324   9.224 -0.0027 -0.3449  0.0920
  293loPI   C4A 4682  14.476  17.319   9.024 -0.0476  0.0039  0.1642
  293loPI   C5A 4683  14.218  17.343   8.759 -0.0127  0.3407  0.1262
  293loPI   C6A 4684  14.073  17.176   8.402  0.2672  0.0353  0.3576
  293loPI   C1B 4685  14.580  17.572   9.927 -0.0013 -0.2860 -0.3714
  293loPI   C2B 4686  14.684  17.708   9.463  0.0443 -0.3925  0.0658
  293loPI   C3B 4687  14.520  17.815   9.129 -0.3763  0.1574 -0.0089
  293loPI   C4B 4688  14.644  18.031   8.709  0.0455 -0.0959 -0.1193
  294loPI    C1 4689   4.079   1.706  10.616 -0.1524 -0.2282  0.0697
  294loPI    C2 4690   4.330   1.595  10.907 -0.0961 -0.0767  0.0800
  294loPI    C3 4691   4.253   1.983  10.846 -0.1689 -0.1118 -0.0564
  294loPI   PO4 4692   4.133   1.612  10.330  0.1089  0.0685 -0.2050
  294loPI   GL1 4693   4.143   1.296   9.960 -0.2147  0.0176  0.1281
  294loPI   GL2 4694   4.080   1.107  10.180  0.3612  0.0732  0.0102
  294loPI   C1A 4695   4.204   1.159   9.494 -0.2574  0.1131  0.0960
  294loPI   C2A 4696   4.122   1.122   9.062  0.1798  0.0022 -0.0051
  294loPI   C3A 4697   4.014   1.159   8.564 -0.2526  0.3017 -0.2015
  294loPI   C4A 4698   3.618   1.298   8.463 -0.1068 -0.2156  0.1310
  294loPI   C5A 4699   3.302   1.400   8.217 -0.3200 -0.1275  0.2921
  294loPI   C6A 4700   3.215   1.303   7.819 -0.1027 -0.0750 -0.2213
  294loPI   C1B 4701   3.698   1.201   9.965  0.0049 -0.3899  0.1526
  294loPI   C2B 4702   3.678   1.202   9.572  0.0724 -0.1240 -0.2133
  294loPI   C3B 4703   3.802   1.402   9.344 -0.0481 -0.1023  0.3350
  294loPI   C4B 4704   3.942   1.844   9.185 -0.0393  0.0527 -0.0398
  295loPI    C1 4705   0.442   1.500  11.001 -0.1225  0.2543  0.1030
  295loPI    C2 4706   0.820   1.633  11.003 -0.0376  0.0157  0.1885
  295loPI    C3 4707   0.562   1.761  11.280 -0.0515  0.2655  0.0623
  295loPI   PO4 4708   0.380   1.524  10.621 -0.0584 -0.0378  0.0671
  295loPI   GL1 4709   0.314   1.612  10.164 -0.0137  0.0703 -0.2563
  295loPI   GL2 4710   0.081   1.944  10.015  0.0682  0.1548  0.1465
  295loPI   C1A 4711   0.573   1.758   9.807  0.0216 -0.0257 -0.0329
  295loPI   C2A 4712   0.537   1.741   9.360  0.0181  0.0091 -0.1969
  295loPI   C3A 4713   0.493   1.683   8.887  0.1420 -0.0241 -0.2009
  295loPI   C4A 4714   0.540   1.563   8.476  0.3891 -0.2381 -0.1199
  295loPI   C5A 4715   0.607   1.405   8.134  0.0011 -0.1100 -0.1804
  295loPI   C6A 4716   0.784   1.098   7.869  0.0643  0.0486  0.1875
  295loPI   C1B 4717   0.094   1.926   9.532  0.3099  0.0443 -0.2307
  295loPI   C2B 4718   0.148   2.046   9.063  0.0987  0.0286 -0.0634
  295loPI   C3B 4719   0.096   2.067   8.604  0.1389 -0.0555 -0.1158
  295loPI   C4B 4720   0.278   2.040   8.143  0.0654  0.0818  0.1326
  296loPI    C1 4721  10.982   3.014  10.685 -0.0265  0.2484 -0.0294
  296loPI    C2 4722  10.804   3.084  11.036 -0.0478  0.1367 -0.0175
  296loPI    C3 4723  11.080   2.797  11.006 -0.1215  0.0753 -0.1159
  296loPI   PO4 4724  11.112   3.248  10.485  0.1966  0.0241 -0.5696
  296loPI   GL1 4725  11.136   3.336  10.021  0.1016  0.1332 -0.1730
  296loPI   GL2 4726  10.871   3.546  10.126 -0.1651 -0.0331  0.2341
  296loPI   C1A 4727  11.187   3.318   9.668  0.0101 -0.2949  0.1725
  296loPI   C2A 4728  11.193   3.333   9.172  0.0971  0.0991  0.2047
  296loPI   C3A 4729  11.211   3.148   8.842  0.1323 -0.3154  0.0597
  296loPI   C4A 4730  11.608   3.075   8.474  0.1238  0.1315  0.1282
  296loPI   C5A 4731  11.977   2.953   8.231 -0.2941 -0.2231  0.0046
  296loPI   C6A 4732  12.253   2.618   8.209  0.1991  0.1196  0.1467
  296loPI   C1B 4733  10.790   3.650   9.697 -0.0128 -0.0389 -0.4800
  296loPI   C2B 4734  10.700   3.579   9.333  0.0880  0.0874 -0.1061
  296loPI   C3B 4735  10.720   3.390   8.984  0.1095 -0.0067 -0.2006
  296loPI   C4B 4736  10.859   3.514   8.676 -0.2189 -0.0718 -0.1387
  297loPI    C1 4737  11.288   5.527  10.897  0.0757 -0.1321  0.1324
  297loPI    C2 4738  11.357   5.844  11.131  0.0129  0.0064 -0.0342
  297loPI    C3 4739  11.187   5.515  11.283 -0.1397  0.1400  0.0869
  297loPI   PO4 4740  11.195   5.574  10.645  0.1606 -0.1404  0.1366
  297loPI   GL1 4741  11.244   5.580  10.177  0.2117 -0.0994 -0.0438
  297loPI   GL2 4742  11.615   5.656  10.118  0.2769  0.0844 -0.0379
  297loPI   C1A 4743  11.193   5.787   9.807 -0.2908  0.1661  0.0262
  297loPI   C2A 4744  11.218   5.776   9.363 -0.0493 -0.1570 -0.0271
  297loPI   C3A 4745  11.202   5.718   8.889  0.1178  0.1495 -0.0020
  297loPI   C4A 4746  11.282   5.677   8.445 -0.0621  0.1804  0.2511
  297loPI   C5A 4747  11.108   5.527   8.037 -0.3603 -0.0490 -0.0606
  297loPI   C6A 4748  10.876   5.240   7.897 -0.2485 -0.2154 -0.0116
  297loPI   C1B 4749  11.664   5.661   9.629 -0.2161  0.2731 -0.1628
  297loPI   C2B 4750  11.696   5.583   9.146  0.1271  0.0501  0.0012
  297loPI   C3B 4751  11.664   5.471   8.698 -0.1383 -0.0112 -0.1704
  297loPI   C4B 4752  11.670   5.245   8.323  0.0273 -0.0403 -0.1787
  298loPI    C1 4753   2.141  12.270  10.225 -0.0191  0.1734 -0.0383
  298loPI    C2 4754   2.517  12.387  10.294  0.1301 -0.1574 -0.2602
  298loPI    C3 4755   2.354  12.099  10.518 -0.0390  0.0732 -0.0818
  298loPI   PO4 4756   1.983  12.515  10.208  0.0400 -0.1643  0.1602
  298loPI   GL1 4757   1.975  12.747   9.823  0.0354 -0.1232 -0.1739
  298loPI   GL2 4758   1.874  13.039   9.663 -0.1847  0.2684 -0.0542
  298loPI   C1A 4759   2.061  12.502   9.455  0.0455 -0.1645 -0.0320
  298loPI   C2A 4760   1.925  12.516   9.041 -0.1783  0.1466 -0.0390
  298loPI   C3A 4761   1.679  12.580   8.674 -0.1333 -0.0957  0.2153
  298loPI   C4A 4762   1.832  12.485   8.148  0.2832 -0.0273 -0.1359
  298loPI   C5A 4763   1.979  12.461   7.729 -0.1478  0.1729  0.1423
  298loPI   C6A 4764   2.031  12.250   7.471 -0.3559  0.1340  0.1539
  298loPI   C1B 4765   1.525  13.239   9.411  0.1473 -0.1370 -0.0918
  298loPI   C2B 4766   1.553  13.246   8.938 -0.1332 -0.0776 -0.0413
  298loPI   C3B 4767   1.491  13.114   8.506 -0.1768 -0.1078 -0.0315
  298loPI   C4B 4768   1.537  12.889   8.182  0.1829  0.0039  0.2073
  299loPI    C1 4769  12.370   4.903  10.706  0.0332 -0.0056 -0.0070
  299loPI    C2 4770  12.191   4.697  10.414  0.1225 -0.1281  0.0238
  299loPI    C3 4771  11.972   4.908  10.673  0.0269 -0.2226  0.0208
  299loPI   PO4 4772  12.602   5.105  10.625 -0.0832 -0.1476  0.0484
  299loPI   GL1 4773  12.702   5.191  10.228  0.2433  0.2570  0.0037
  299loPI   GL2 4774  12.626   4.830  10.217 -0.0964  0.0183  0.1361
  299loPI   C1A 4775  12.962   4.907   9.866  0.4774  0.2087  0.0648
  299loPI   C2A 4776  13.027   4.641   9.452 -0.1043 -0.2251  0.0998
  299loPI   C3A 4777  13.016   4.276   9.149  0.0295 -0.2102 -0.2104
  299loPI   C4A 4778  12.942   4.123   8.751  0.2550 -0.3778 -0.3340
  299loPI   C5A 4779  13.066   3.690   8.505  0.1215  0.0157  0.0795
  299loPI   C6A 4780  13.213   3.421   8.160  0.1972 -0.0991  0.2366
  299loPI   C1B 4781  12.434   4.769   9.835  0.1195  0.0165 -0.0425
  299loPI   C2B 4782  12.232   4.951   9.538 -0.2943  0.1318 -0.1063
  299loPI   C3B 4783  12.311   4.892   8.976 -0.0604 -0.0436 -0.3403
  299loPI   C4B 4784  12.516   4.856   8.580 -0.1381 -0.1175 -0.1903
  300loPI    C1 4785   9.533  12.994  10.322  0.1242  0.2870  0.1183
  300loPI    C2 4786   9.877  12.791  10.335 -0.0154  0.0281 -0.1198
  300loPI    C3 4787   9.610  12.751  10.630  0.0350  0.0074 -0.0768
  300loPI   PO4 4788   9.585  13.124  10.169  0.2639  0.2460 -0.0420
  300loPI   GL1 4789   9.576  13.374   9.821 -0.0826  0.0290  0.0775
  300loPI   GL2 4790   9.302  13.171   9.778  0.2316  0.1348  0.1033
  300loPI   C1A 4791   9.781  13.376   9.398 -0.0746 -0.0441  0.0736
  300loPI   C2A 4792   9.726  13.237   8.921  0.1897 -0.2126  0.1522
  300loPI   C3A 4793   9.688  13.256   8.411 -0.0727  0.3770 -0.4134
  300loPI   C4A 4794   9.875  13.381   8.020 -0.1926 -0.1870 -0.0148
  300loPI   C5A 4795  10.335  13.332   7.833 -0.1043 -0.1438 -0.3326
  300loPI   C6A 4796  10.571  13.009   7.731  0.0027  0.2792  0.0891
  300loPI   C1B 4797   9.336  13.088   9.344  0.0780  0.3170  0.2852
  300loPI   C2B 4798   9.270  12.912   8.937  0.3359  0.1751  0.0158
  300loPI   C3B 4799   9.255  12.971   8.559 -0.0606 -0.1388 -0.1705
  300loPI   C4B 4800   9.407  12.911   8.131 -0.2555 -0.0747 -0.0816
  301loPI    C1 4801  14.742   1.342  10.693 -0.1684 -0.1159  0.0041
  301loPI    C2 4802  14.645   1.048  10.947  0.1469 -0.1951  0.0368
  301loPI    C3 4803  14.931   1.310  11.045 -0.0231  0.0294 -0.0595
  301loPI   PO4 4804  14.758   1.256  10.448 -0.0298  0.1798  0.2907
  301loPI   GL1 4805  14.861   1.551  10.124 -0.1471 -0.1580 -0.1611
  301loPI   GL2 4806  15.168   1.361  10.163 -0.2420 -0.0052  0.1637
  301loPI   C1A 4807  14.800   1.436   9.689 -0.1868 -0.0224  0.0134
  301loPI   C2A 4808  14.760   1.473   9.338  0.1472 -0.0507  0.1121
  301loPI   C3A 4809  14.664   1.632   8.912  0.2664  0.0919  0.1248
  301loPI   C4A 4810  14.761   1.629   8.615  0.0697 -0.3344 -0.0936
  301loPI   C5A 4811  14.925   1.339   8.405  0.0663 -0.0117  0.0435
  301loPI   C6A 4812  14.898   1.126   8.090 -0.2430 -0.2889 -0.3592
  301loPI   C1B 4813  15.337   1.494   9.784  0.0758  0.1133  0.0938
  301loPI   C2B 4814  15.251   1.720   9.509 -0.0898  0.1920 -0.1986
  301loPI   C3B 4815  15.149   1.830   9.150  0.1274 -0.1859  0.6178
  301loPI   C4B 4816  15.119   2.029   8.768  0.1531  0.0970 -0.0165
  302loPI    C1 4817  15.885  16.069  10.531  0.1279 -0.1190 -0.0436
  302loPI    C2 4818  15.569  15.897  10.704  0.1873 -0.0787  0.1068
  302loPI    C3 4819  15.920  15.906  10.895  0.2115  0.1132  0.0548
  302loPI   PO4 4820  15.876  15.972  10.291 -0.0791 -0.1327  0.0825
  302loPI   GL1 4821  15.765  16.116   9.962 -0.0574 -0.1501 -0.0214
  302loPI   GL2 4822  15.928  16.344   9.818 -0.0459  0.1297 -0.0884
  302loPI   C1A 4823  15.728  15.966   9.506  0.0331 -0.0240 -0.1327
  302loPI   C2A 4824  15.850  16.026   9.114  0.3635  0.1827  0.1148
  302loPI   C3A 4825  15.888  15.971   8.682  0.1542 -0.1422 -0.0513
  302loPI   C4A 4826  15.649  15.636   8.458 -0.1629 -0.0988 -0.0112
  302loPI   C5A 4827  15.620  15.373   8.072  0.1856 -0.3033  0.0477
  302loPI   C6A 4828  15.544  15.089   7.710  0.0272 -0.1851 -0.1375
  302loPI   C1B 4829  16.074  16.475   9.394  0.1069 -0.0701 -0.3039
  302loPI   C2B 4830  16.157  16.547   8.933 -0.1714 -0.2161  0.1408
  302loPI   C3B 4831  15.923  16.646   8.548  0.0569 -0.0489  0.2517
  302loPI   C4B 4832  15.906  16.578   8.108  0.1899 -0.0032 -0.0279
  303loPI    C1 4833   0.392   9.043  10.362  0.0636 -0.1416  0.1507
  303loPI    C2 4834   0.785   9.025  10.437  0.1059  0.0242 -0.0241
  303loPI    C3 4835   0.579   9.356  10.527  0.0093 -0.0557  0.0502
  303loPI   PO4 4836   0.354   9.034  10.150 -0.0532  0.0117  0.0914
  303loPI   GL1 4837   0.279   9.108   9.770 -0.2096 -0.2550  0.0604
  303loPI   GL2 4838  -0.084   9.107   9.597  0.2484  0.0254  0.1215
  303loPI   C1A 4839   0.420   9.120   9.281  0.0739 -0.3245  0.0226
  303loPI   C2A 4840   0.403   9.159   8.828  0.1633 -0.2846 -0.1914
  303loPI   C3A 4841   0.127   8.981   8.528  0.1499 -0.1989 -0.3633
  303loPI   C4A 4842   0.101   8.911   8.142 -0.2613  0.0203  0.0783
  303loPI   C5A 4843   0.064   9.183   7.841  0.0371 -0.3858  0.4012
  303loPI   C6A 4844   0.013   9.563   7.584  0.1483  0.1794 -0.1478
  303loPI   C1B 4845  -0.135   8.976   9.274 -0.1988  0.1759  0.1846
  303loPI   C2B 4846  -0.091   8.737   8.909  0.2226 -0.3029  0.0307
  303loPI   C3B 4847   0.152   8.490   8.492  0.0038 -0.0241 -0.1057
  303loPI   C4B 4848   0.012   8.238   8.083  0.1274 -0.1586  0.4138
  304loPI    C1 4849   6.702   9.529  10.425  0.1632 -0.0189  0.0473
  304loPI    C2 4850   6.474   9.754  10.665  0.3434 -0.0292  0.2316
  304loPI    C3 4851   6.385   9.368  10.609  0.0842  0.0624 -0.0167
  304loPI   PO4 4852   6.887   9.813  10.279 -0.0116 -0.0650  0.0400
  304loPI   GL1 4853   7.149   9.828   9.868  0.0184  0.1036  0.1059
  304loPI   GL2 4854   7.153   9.576   9.685  0.2148 -0.1194 -0.1388
  304loPI   C1A 4855   7.029  10.003   9.551 -0.0011 -0.0322 -0.0089
  304loPI   C2A 4856   6.864  10.047   9.064  0.0940  0.2239 -0.0985
  304loPI   C3A 4857   7.148   9.966   8.746  0.0486 -0.0916  0.0540
  304loPI   C4A 4858   7.298   9.800   8.394  0.2302  0.0389 -0.1394
  304loPI   C5A 4859   7.295   9.731   7.933 -0.1243 -0.4077  0.0420
  304loPI   C6A 4860   7.426   9.682   7.522  0.2035  0.1776 -0.0522
  304loPI   C1B 4861   7.002   9.614   9.262 -0.1504  0.2033 -0.0806
  304loPI   C2B 4862   6.875   9.535   8.790 -0.5831  0.1866 -0.1139
  304loPI   C3B 4863   6.890   9.433   8.255  0.1609 -0.1992 -0.0436
  304loPI   C4B 4864   6.841   9.373   7.840  0.1066  0.0118 -0.2926
  305loPI    C1 4865  13.740  16.901  10.461 -0.2423 -0.0384 -0.1830
  305loPI    C2 4866  13.617  16.559  10.293 -0.3509 -0.1920  0.2005
  305loPI    C3 4867  13.719  16.567  10.680 -0.1049  0.1564  0.1332
  305loPI   PO4 4868  13.831  17.052  10.345 -0.0713  0.0042  0.1888
  305loPI   GL1 4869  14.016  17.154   9.981 -0.0216 -0.0051 -0.0691
  305loPI   GL2 4870  14.246  16.994   9.944 -0.0758 -0.1855 -0.1341
  305loPI   C1A 4871  13.880  17.194   9.585 -0.2189  0.0965  0.0311
  305loPI   C2A 4872  13.941  17.221   9.143 -0.0814 -0.1740  0.0031
  305loPI   C3A 4873  13.800  17.110   8.843  0.0475 -0.0172 -0.0133
  305loPI   C4A 4874  13.885  16.777   8.808 -0.1380  0.0547  0.1070
  305loPI   C5A 4875  13.931  16.539   8.451 -0.1671 -0.1324 -0.0123
  305loPI   C6A 4876  14.034  16.709   8.123 -0.2310 -0.1523  0.1105
  305loPI   C1B 4877  14.188  16.830   9.477  0.0246 -0.1330  0.0300
  305loPI   C2B 4878  14.297  16.854   9.076 -0.1308 -0.3326 -0.1278
  305loPI   C3B 4879  14.369  16.846   8.621  0.1188 -0.1306 -0.0911
  305loPI   C4B 4880  14.556  16.541   8.383 -0.0461  0.3515  0.0620
  306loPI    C1 4881  14.472   4.285  10.812  0.0475  0.1620  0.0406
  306loPI    C2 4882  14.334   4.591  11.030  0.2050  0.2195  0.0608
  306loPI    C3 4883  14.728   4.536  10.989  0.1777  0.2027 -0.2004
  306loPI   PO4 4884  14.429   4.310  10.575  0.1757  0.0192 -0.0097
  306loPI   GL1 4885  14.632   4.328  10.180  0.4646 -0.1828  0.2546
  306loPI   GL2 4886  14.424   4.697  10.085  0.1090  0.1548  0.0100
  306loPI   C1A 4887  14.465   4.114   9.899  0.0100  0.0077  0.3095
  306loPI   C2A 4888  14.384   4.093   9.471  0.2285  0.0439 -0.0902
  306loPI   C3A 4889  14.414   4.116   9.097  0.0494  0.0917  0.2299
  306loPI   C4A 4890  14.205   4.276   8.685  0.3070 -0.1475 -0.0201
  306loPI   C5A 4891  13.991   4.314   8.276 -0.1019  0.0244  0.0760
  306loPI   C6A 4892  13.951   4.096   7.918 -0.0640 -0.0982 -0.2783
  306loPI   C1B 4893  14.517   4.639   9.694 -0.0524  0.0503  0.2345
  306loPI   C2B 4894  14.552   4.602   9.208  0.1490 -0.0405 -0.1987
  306loPI   C3B 4895  14.601   4.604   8.766  0.1907  0.2676  0.2325
  306loPI   C4B 4896  14.469   4.572   8.378  0.1309  0.4097 -0.0436
  307loPI    C1 4897  15.512  11.468  10.492  0.0260 -0.1289 -0.0260
  307loPI    C2 4898  15.312  11.462  10.838 -0.0418 -0.2005 -0.0662
  307loPI    C3 4899  15.590  11.743  10.772 -0.2396 -0.0033 -0.0721
  307loPI   PO4 4900  15.645  11.253  10.443  0.0516  0.2066  0.1987
  307loPI   GL1 4901  15.736  10.965  10.055 -0.3937  0.1533 -0.1718
  307loPI   GL2 4902  15.565  11.032   9.806  0.2627  0.2396 -0.3930
  307loPI   C1A 4903  15.988  11.031   9.649 -0.1461  0.1670  0.0169
  307loPI   C2A 4904  15.972  10.905   9.141  0.3078 -0.0211  0.0551
  307loPI   C3A 4905  15.823  10.858   8.722 -0.0646 -0.3701 -0.1902
  307loPI   C4A 4906  15.804  10.904   8.380 -0.1627 -0.2300  0.2138
  307loPI   C5A 4907  15.890  10.885   7.976 -0.1825 -0.0626 -0.1068
  307loPI   C6A 4908  16.162  10.804   7.635  0.3641 -0.0752 -0.0038
  307loPI   C1B 4909  15.500  10.976   9.391 -0.1357  0.3625  0.0645
  307loPI   C2B 4910  15.371  10.902   8.889 -0.0809 -0.0069  0.2823
  307loPI   C3B 4911  15.338  10.858   8.391 -0.2133 -0.0163 -0.3291
  307loPI   C4B 4912  15.374  10.915   7.989  0.1265 -0.2529  0.0509
  308loPI    C1 4913   2.476  16.694  10.396  0.1726  0.2465 -0.1501
  308loPI    C2 4914   2.856  16.814  10.431  0.1530  0.2944 -0.1014
  308loPI    C3 4915   2.654  16.692  10.754  0.2759 -0.1833 -0.1982
  308loPI   PO4 4916   2.329  16.821  10.216  0.1267  0.1441 -0.0855
  308loPI   GL1 4917   2.275  16.819   9.839  0.1191  0.0647 -0.0894
  308loPI   GL2 4918   2.270  16.480   9.776  0.1702 -0.0945 -0.0268
  308loPI   C1A 4919   2.276  17.020   9.520  0.1814  0.2218  0.2349
  308loPI   C2A 4920   2.127  17.066   9.101  0.0093  0.0670  0.3113
  308loPI   C3A 4921   2.182  17.092   8.650  0.2673  0.1137 -0.1389
  308loPI   C4A 4922   2.168  17.026   8.291 -0.1268 -0.3660 -0.1206
  308loPI   C5A 4923   1.983  17.182   7.986  0.0696 -0.2406  0.1633
  308loPI   C6A 4924   1.611  17.312   7.750  0.0893 -0.1179  0.0746
  308loPI   C1B 4925   2.098  16.561   9.458  0.1790  0.2213  0.2806
  308loPI   C2B 4926   2.082  16.577   9.014  0.1310 -0.0912 -0.0325
  308loPI   C3B 4927   2.174  16.519   8.568  0.1081  0.4142 -0.1112
  308loPI   C4B 4928   2.361  16.593   8.155  0.2800  0.0445  0.3189
  309loPI    C1 4929   6.892  13.426  10.453 -0.1347 -0.0643 -0.1028
  309loPI    C2 4930   7.163  13.166  10.314 -0.0410 -0.0126 -0.0186
  309loPI    C3 4931   7.230  13.360  10.657 -0.2120 -0.0429  0.0332
  309loPI   PO4 4932   6.693  13.244  10.448  0.2213  0.3364 -0.1338
  309loPI   GL1 4933   6.683  13.002  10.135 -0.0291  0.2074  0.0045
  309loPI   GL2 4934   6.395  12.684  10.080  0.0402  0.0572  0.1422
  309loPI   C1A 4935   7.017  12.953   9.804 -0.4332 -0.0509  0.0906
  309loPI   C2A 4936   7.052  12.915   9.409 -0.2093  0.1160  0.0374
  309loPI   C3A 4937   7.073  12.858   9.028 -0.1662  0.0992  0.1685
  309loPI   C4A 4938   7.049  12.727   8.545  0.2730 -0.1269 -0.0806
  309loPI   C5A 4939   6.835  12.614   8.089 -0.0647 -0.2638  0.1939
  309loPI   C6A 4940   6.531  12.279   7.948 -0.0377  0.2539 -0.4012
  309loPI   C1B 4941   6.565  12.733   9.678 -0.1387 -0.1271  0.1469
  309loPI   C2B 4942   6.607  12.723   9.195  0.0415  0.0669  0.1057
  309loPI   C3B 4943   6.630  12.601   8.827 -0.3417 -0.4281 -0.0717
  309loPI   C4B 4944   6.461  12.708   8.417  0.4023  0.1540  0.1814
  310loPI    C1 4945  16.087   3.274  10.582  0.1630 -0.3539 -0.0988
  310loPI    C2 4946  16.483   3.215  10.576  0.2253  0.0114  0.1113
  310loPI    C3 4947  16.302   3.322  10.916 -0.0169  0.0906 -0.0398
  310loPI   PO4 4948  16.009   3.433  10.450  0.1383 -0.1070  0.3744
  310loPI   GL1 4949  16.167   3.572  10.144 -0.0807  0.0566  0.2058
  310loPI   GL2 4950  16.105   3.839  10.199  0.1437 -0.0479 -0.1634
  310loPI   C1A 4951  15.894   3.602   9.830 -0.1069 -0.1643 -0.0717
  310loPI   C2A 4952  15.844   3.722   9.503  0.1761 -0.0180  0.1393
  310loPI   C3A 4953  15.741   3.744   9.045 -0.6533 -0.0984  0.1061
  310loPI   C4A 4954  15.854   3.740   8.676  0.1773  0.3397 -0.0319
  310loPI   C5A 4955  15.864   3.644   8.273 -0.0874 -0.2061  0.1675
  310loPI   C6A 4956  15.730   3.540   7.820 -0.0671  0.0219  0.3441
  310loPI   C1B 4957  16.355   3.859   9.773  0.2494  0.5374 -0.0002
  310loPI   C2B 4958  16.257   3.940   9.309  0.2327  0.2828 -0.0819
  310loPI   C3B 4959  16.325   4.033   8.825 -0.0720  0.2531  0.0877
  310loPI   C4B 4960  16.286   3.925   8.414  0.4103 -0.0339  0.0916
  311loPI    C1 4961   8.987   4.107  10.570 -0.0632 -0.2551 -0.0539
  311loPI    C2 4962   9.168   3.944  10.887 -0.0771 -0.0079  0.0836
  311loPI    C3 4963   8.927   4.259  10.935 -0.2166 -0.0763 -0.1521
  311loPI   PO4 4964   9.069   3.881  10.386 -0.1085 -0.0470  0.0738
  311loPI   GL1 4965   9.240   3.617  10.020  0.0878 -0.1578 -0.0756
  311loPI   GL2 4966   8.891   3.459  10.166 -0.2046 -0.1210 -0.0782
  311loPI   C1A 4967   9.445   3.632   9.594  0.0792  0.1267  0.0977
  311loPI   C2A 4968   9.331   3.574   9.120 -0.2695 -0.1480  0.0473
  311loPI   C3A 4969   9.425   3.488   8.777 -0.0541 -0.3324  0.1369
  311loPI   C4A 4970   9.440   3.372   8.379 -0.1948 -0.2821  0.2233
  311loPI   C5A 4971   9.369   3.663   8.081 -0.2610  0.2147  0.0542
  311loPI   C6A 4972   9.133   4.064   8.030  0.0420  0.2475 -0.0030
  311loPI   C1B 4973   8.979   3.265   9.719  0.1133  0.1535 -0.0795
  311loPI   C2B 4974   9.006   3.211   9.245 -0.1500  0.0052 -0.0475
  311loPI   C3B 4975   9.014   3.183   8.892  0.0182  0.2453  0.1140
  311loPI   C4B 4976   9.009   3.116   8.494 -0.1244 -0.2444 -0.1690
  312loPI    C1 4977   0.021   8.346  10.191  0.2708  0.2592 -0.0902
  312loPI    C2 4978   0.013   8.703  10.010  0.0037  0.3596  0.1113
  312loPI    C3 4979  -0.020   8.680  10.408  0.0995  0.1129  0.1071
  312loPI   PO4 4980   0.179   8.155   9.947 -0.0978  0.2756  0.2016
  312loPI   GL1 4981   0.448   8.289   9.700 -0.0626 -0.0271  0.4577
  312loPI   GL2 4982   0.521   8.575   9.845 -0.1163 -0.2826 -0.5187
  312loPI   C1A 4983   0.299   8.000   9.311  0.0386  0.1825  0.0408
  312loPI   C2A 4984   0.068   7.893   9.111 -0.1930 -0.0055 -0.0678
  312loPI   C3A 4985  -0.170   7.735   8.813 -0.1234  0.0589 -0.1299
  312loPI   C4A 4986  -0.219   7.854   8.328  0.2888 -0.1227 -0.0903
  312loPI   C5A 4987  -0.314   7.733   7.937 -0.2568 -0.1000  0.0780
  312loPI   C6A 4988  -0.425   7.487   7.570 -0.0084 -0.1558 -0.2893
  312loPI   C1B 4989   0.248   8.636   9.479  0.1920 -0.0007 -0.0026
  312loPI   C2B 4990   0.314   8.492   9.056  0.2442 -0.0059  0.2436
  312loPI   C3B 4991   0.365   8.143   8.789  0.0976  0.0734 -0.1875
  312loPI   C4B 4992   0.199   7.909   8.565 -0.1008 -0.0432  0.1027
  313loPI    C1 4993   0.010  13.007  10.118 -0.1317  0.0928 -0.0026
  313loPI    C2 4994   0.183  13.077  10.472 -0.1899 -0.1426  0.0738
  313loPI    C3 4995   0.135  12.701  10.343 -0.0567 -0.0546 -0.2417
  313loPI   PO4 4996  -0.169  13.269  10.154  0.1925 -0.0728 -0.0849
  313loPI   GL1 4997  -0.232  13.546   9.891 -0.1471 -0.0746 -0.2251
  313loPI   GL2 4998  -0.038  13.785   9.683  0.0290 -0.1750  0.0100
  313loPI   C1A 4999  -0.481  13.461   9.520 -0.0144 -0.0176  0.0924
  313loPI   C2A 5000  -0.476  13.438   9.083  0.0750 -0.1925  0.2125
  313loPI   C3A 5001  -0.569  13.580   8.689 -0.0587 -0.0905  0.0034
  313loPI   C4A 5002  -0.463  13.504   8.308  0.1335  0.1844 -0.2300
  313loPI   C5A 5003  -0.736  13.508   7.932  0.0515 -0.2812 -0.0727
  313loPI   C6A 5004  -0.693  13.244   7.514  0.1525  0.2453 -0.0058
  313loPI   C1B 5005  -0.179  13.819   9.254 -0.0350 -0.0533  0.4947
  313loPI   C2B 5006  -0.180  13.955   8.882 -0.4306 -0.1708 -0.1972
  313loPI   C3B 5007  -0.242  13.952   8.468 -0.1978 -0.3268 -0.1272
  313loPI   C4B 5008  -0.229  14.004   7.937 -0.0315  0.3254  0.3444
  314loPI    C1 5009   9.354  13.823  10.070  0.0834 -0.1078  0.0464
  314loPI    C2 5010   9.290  14.088  10.362 -0.0913 -0.0701 -0.0249
  314loPI    C3 5011   9.542  14.176  10.064  0.0966 -0.1135  0.1192
  314loPI   PO4 5012   9.115  13.736  10.089  0.1285 -0.0076  0.0694
  314loPI   GL1 5013   8.994  13.561   9.722 -0.3840  0.0185 -0.0530
  314loPI   GL2 5014   8.873  13.330   9.840 -0.1836  0.1878  0.2436
  314loPI   C1A 5015   8.738  13.649   9.318 -0.2276 -0.0976 -0.2062
  314loPI   C2A 5016   8.671  13.536   8.886 -0.0555 -0.1088 -0.0243
  314loPI   C3A 5017   8.640  13.588   8.472  0.0835  0.0202  0.0161
  314loPI   C4A 5018   8.742  13.561   8.057  0.2133 -0.1089 -0.1742
  314loPI   C5A 5019   9.089  13.540   7.833 -0.1143 -0.2025  0.0665
  314loPI   C6A 5020   9.416  13.262   7.809 -0.1569  0.0749 -0.1075
  314loPI   C1B 5021   8.887  13.177   9.451 -0.1450  0.0208 -0.2704
  314loPI   C2B 5022   8.813  13.062   8.927 -0.0729 -0.1470  0.2086
  314loPI   C3B 5023   8.601  13.044   8.461 -0.0866 -0.0713 -0.1882
  314loPI   C4B 5024   8.292  12.966   8.117 -0.0989  0.0557  0.0364
  315loPI    C1 5025   1.937  11.621  10.341 -0.0408 -0.0452  0.1731
  315loPI    C2 5026   2.317  11.625  10.465  0.0212 -0.0632 -0.0143
  315loPI    C3 5027   2.054  11.378  10.637  0.1379 -0.1866 -0.0109
  315loPI   PO4 5028   1.849  11.843  10.325  0.1966 -0.0163  0.0112
  315loPI   GL1 5029   1.581  12.118  10.092 -0.1098  0.2418  0.0633
  315loPI   GL2 5030   1.806  12.120   9.814 -0.1271 -0.0820 -0.0086
  315loPI   C1A 5031   1.386  11.888   9.683 -0.3171 -0.2165 -0.2352
  315loPI   C2A 5032   1.535  11.722   9.301  0.1032  0.0168 -0.2567
  315loPI   C3A 5033   1.630  11.609   8.956 -0.0601  0.0276 -0.1545
  315loPI   C4A 5034   1.629  11.241   8.532 -0.0488 -0.1107  0.0187
  315loPI   C5A 5035   1.435  11.270   8.140 -0.1052  0.1311  0.0484
  315loPI   C6A 5036   1.296  11.276   7.725  0.1896 -0.5288 -0.1911
  315loPI   C1B 5037   1.615  12.231   9.422  0.1311 -0.2543  0.0036
  315loPI   C2B 5038   1.381  12.286   8.973 -0.0219  0.1863 -0.2401
  315loPI   C3B 5039   1.276  12.262   8.574 -0.0940  0.0030  0.2088
  315loPI   C4B 5040   1.346  12.361   8.052 -0.2542 -0.1156 -0.3777
  316loPI    C1 5041   2.041   2.418  10.675 -0.0473  0.0004  0.0192
  316loPI    C2 5042   1.919   2.345  11.049 -0.0976  0.0887  0.0201
  316loPI    C3 5043   2.272   2.523  10.984 -0.2154  0.3330  0.0360
  316loPI   PO4 5044   1.823   2.453  10.507  0.4396 -0.0552  0.0479
  316loPI   GL1 5045   1.645   2.376  10.110  0.1602 -0.3012  0.1356
  316loPI   GL2 5046   1.916   2.603   9.900 -0.1097 -0.0115 -0.0914
  316loPI   C1A 5047   1.472   2.604   9.723  0.0879 -0.2506  0.1867
  316loPI   C2A 5048   1.409   2.700   9.296 -0.1914 -0.4227 -0.0232
  316loPI   C3A 5049   1.415   2.671   8.870  0.0925  0.0004  0.0526
  316loPI   C4A 5050   1.622   2.555   8.443 -0.0311 -0.2553  0.0183
  316loPI   C5A 5051   1.599   2.400   7.973  0.0428 -0.1099  0.2185
  316loPI   C6A 5052   1.487   2.335   7.656 -0.4022  0.2715  0.0082
  316loPI   C1B 5053   1.942   2.700   9.518 -0.1256 -0.0878 -0.2127
  316loPI   C2B 5054   1.937   2.820   9.036  0.0416  0.2208  0.0121
  316loPI   C3B 5055   1.912   2.919   8.593 -0.3200  0.0209 -0.1202
  316loPI   C4B 5056   2.097   2.699   8.199  0.0080  0.0476  0.0817
  317loPI    C1 5057  15.151   9.012  10.490  0.0329  0.1442 -0.0137
  317loPI    C2 5058  15.543   9.079  10.529  0.0277  0.3220 -0.2444
  317loPI    C3 5059  15.280   9.333  10.692  0.0063  0.1694 -0.0364
  317loPI   PO4 5060  15.089   8.962  10.213 -0.1947  0.0245 -0.0406
  317loPI   GL1 5061  15.097   9.025   9.759  0.0660  0.2524  0.0537
  317loPI   GL2 5062  14.908   8.668   9.742  0.1731 -0.0827  0.2239
  317loPI   C1A 5063  15.427   8.871   9.384  0.1271  0.1484  0.0489
  317loPI   C2A 5064  15.408   9.081   8.952  0.1726 -0.2517 -0.1671
  317loPI   C3A 5065  15.391   9.027   8.595  0.0942 -0.3535 -0.1579
  317loPI   C4A 5066  15.165   9.095   8.372  0.1981 -0.1358  0.1342
  317loPI   C5A 5067  14.883   9.415   8.128  0.1450  0.1471 -0.0159
  317loPI   C6A 5068  15.011   9.787   7.921  0.3225 -0.0936  0.2423
  317loPI   C1B 5069  14.951   8.701   9.309 -0.0612  0.0062 -0.0311
  317loPI   C2B 5070  14.927   8.777   8.894  0.2478  0.1534  0.3488
  317loPI   C3B 5071  14.815   8.730   8.517  0.0892 -0.2023  0.1140
  317loPI   C4B 5072  14.799   8.672   8.055  0.3280  0.0635 -0.1102
  318loPI    C1 5073   7.140  11.545  10.500  0.1852  0.0820 -0.1367
  318loPI    C2 5074   7.126  11.832  10.778 -0.1198  0.0188 -0.0835
  318loPI    C3 5075   7.003  11.462  10.866  0.2392 -0.1237 -0.1619
  318loPI   PO4 5076   7.006  11.612  10.307 -0.0783  0.1718  0.1460
  318loPI   GL1 5077   6.797  11.449   9.943  0.2791  0.0747  0.0171
  318loPI   GL2 5078   6.492  11.554  10.092  0.0301  0.1281 -0.0942
  318loPI   C1A 5079   6.733  11.444   9.435  0.1366  0.2209  0.0938
  318loPI   C2A 5080   6.683  11.340   9.008  0.2857 -0.1243 -0.2317
  318loPI   C3A 5081   6.586  11.280   8.616 -0.3450  0.0908 -0.1916
  318loPI   C4A 5082   6.659  11.252   8.291  0.2024 -0.1718 -0.0467
  318loPI   C5A 5083   6.656  11.174   7.840  0.1164 -0.3129 -0.1448
  318loPI   C6A 5084   6.527  11.369   7.549 -0.1324 -0.0781  0.1497
  318loPI   C1B 5085   6.407  11.697   9.665  0.1286 -0.1322 -0.1680
  318loPI   C2B 5086   6.367  11.714   9.282 -0.1364  0.2396  0.2958
  318loPI   C3B 5087   6.339  11.672   8.837 -0.0598  0.1445 -0.1442
  318loPI   C4B 5088   6.315  11.717   8.442  0.0100  0.0506 -0.3492
  319loPI    C1 5089  11.139  15.131  10.402 -0.1892  0.1461 -0.1474
  319loPI    C2 5090  10.933  14.804  10.504  0.2930 -0.0581  0.2104
  319loPI    C3 5091  10.925  15.128  10.739  0.1124  0.0577  0.0476
  319loPI   PO4 5092  11.389  15.029  10.222  0.1088 -0.0182  0.0991
  319loPI   GL1 5093  11.478  15.129   9.804 -0.1303 -0.0437 -0.1862
  319loPI   GL2 5094  11.744  15.437   9.728 -0.3463  0.0251 -0.1215
  319loPI   C1A 5095  11.378  15.037   9.313 -0.0490 -0.2304  0.1294
  319loPI   C2A 5096  11.291  14.997   8.948 -0.1015  0.0722 -0.2208
  319loPI   C3A 5097  11.337  15.174   8.601  0.2017 -0.1209  0.0307
  319loPI   C4A 5098  11.357  15.131   8.168  0.1137  0.0127  0.2119
  319loPI   C5A 5099  11.612  14.783   7.964 -0.0184  0.1629 -0.0918
  319loPI   C6A 5100  12.018  14.592   8.021  0.1886 -0.1265  0.0119
  319loPI   C1B 5101  11.626  15.519   9.266  0.2392  0.0613 -0.0197
  319loPI   C2B 5102  11.302  15.500   9.008 -0.0173  0.0224  0.1167
  319loPI   C3B 5103  11.254  15.715   8.677  0.0029 -0.0988 -0.1215
  319loPI   C4B 5104  11.079  16.022   8.334 -0.1780  0.1954  0.0370
  320loPI    C1 5105  12.574   5.935  10.872 -0.0724 -0.0024 -0.0094
  320loPI    C2 5106  12.776   5.590  10.892  0.2145  0.1740  0.1997
  320loPI    C3 5107  12.685   5.788  11.227 -0.0065  0.2698  0.0849
  320loPI   PO4 5108  12.674   6.063  10.625 -0.2240  0.0676  0.3245
  320loPI   GL1 5109  12.823   6.167  10.213 -0.0219 -0.0256  0.0479
  320loPI   GL2 5110  13.018   6.447  10.144  0.1720  0.1293  0.2673
  320loPI   C1A 5111  12.874   6.111   9.787 -0.0585 -0.1891  0.0804
  320loPI   C2A 5112  12.797   6.387   9.455  0.0789  0.1423 -0.2362
  320loPI   C3A 5113  12.924   6.361   8.999  0.1242  0.0698 -0.2070
  320loPI   C4A 5114  12.945   6.530   8.608  0.4479  0.0986  0.1577
  320loPI   C5A 5115  13.289   6.358   8.274 -0.2070  0.2288  0.1339
  320loPI   C6A 5116  13.730   6.492   8.237 -0.0692 -0.3322 -0.3445
  320loPI   C1B 5117  13.049   6.742   9.819 -0.1392  0.0361 -0.0260
  320loPI   C2B 5118  13.241   6.709   9.415  0.1697  0.1323 -0.0129
  320loPI   C3B 5119  13.396   6.538   9.164 -0.0929  0.1516  0.1801
  320loPI   C4B 5120  13.554   6.456   8.749  0.3586 -0.1550 -0.1228
  321loPI    C1 5121   7.606   2.892  10.531 -0.2838  0.0822 -0.1303
  321loPI    C2 5122   7.885   3.102  10.336 -0.0372 -0.0973  0.0240
  321loPI    C3 5123   7.808   3.180  10.721 -0.3151  0.0585 -0.0609
  321loPI   PO4 5124   7.426   2.930  10.252  0.0798  0.2466 -0.0898
  321loPI   GL1 5125   7.373   2.673   9.907  0.1247  0.2159 -0.1587
  321loPI   GL2 5126   7.648   2.869   9.742 -0.3349  0.0866 -0.1421
  321loPI   C1A 5127   7.457   2.390   9.566  0.0608  0.1092 -0.1591
  321loPI   C2A 5128   7.351   2.120   9.381  0.1308 -0.3900  0.1891
  321loPI   C3A 5129   7.257   2.002   9.028  0.0119  0.1576 -0.0056
  321loPI   C4A 5130   7.146   2.055   8.648 -0.1525  0.0183 -0.3771
  321loPI   C5A 5131   6.980   1.885   8.301 -0.1837 -0.0008 -0.0885
  321loPI   C6A 5132   6.810   1.724   7.946 -0.0913 -0.0639 -0.0234
  321loPI   C1B 5133   7.734   2.797   9.294 -0.1389 -0.0167 -0.1197
  321loPI   C2B 5134   7.695   2.772   8.777 -0.1203 -0.0166 -0.0290
  321loPI   C3B 5135   7.547   3.004   8.455  0.2458 -0.2276  0.1602
  321loPI   C4B 5136   7.387   3.138   8.058 -0.0194 -0.2027  0.1425
  322loPI    C1 5137   6.740   6.260  10.360 -0.1937  0.1996 -0.1314
  322loPI    C2 5138   7.049   6.035  10.242 -0.1817  0.1221  0.0442
  322loPI    C3 5139   7.090   6.283  10.553 -0.3500 -0.0277  0.1880
  322loPI   PO4 5140   6.627   6.349  10.156 -0.2685 -0.0221  0.0631
  322loPI   GL1 5141   6.818   6.350   9.679  0.0020 -0.4399  0.6020
  322loPI   GL2 5142   6.905   6.612   9.437  0.4850  0.1682 -0.1593
  322loPI   C1A 5143   6.597   6.067   9.399 -0.0877 -0.0800  0.2858
  322loPI   C2A 5144   6.415   5.957   9.100  0.0401 -0.1704  0.0099
  322loPI   C3A 5145   6.104   5.880   8.764 -0.0826 -0.1048 -0.0839
  322loPI   C4A 5146   5.988   6.057   8.458 -0.2039 -0.3767  0.1754
  322loPI   C5A 5147   5.577   6.059   8.145 -0.1169 -0.1268 -0.0259
  322loPI   C6A 5148   5.283   6.412   8.052  0.0375 -0.0059  0.2047
  322loPI   C1B 5149   6.835   6.564   9.049 -0.0388 -0.0792 -0.0727
  322loPI   C2B 5150   6.894   6.551   8.720  0.2447 -0.2929 -0.1960
  322loPI   C3B 5151   6.852   6.551   8.321 -0.0330 -0.0024  0.2937
  322loPI   C4B 5152   6.768   6.454   7.837  0.1626 -0.2128  0.3932
  323loPI    C1 5153   2.908   9.677  10.337 -0.0570  0.0942 -0.0723
  323loPI    C2 5154   3.081   9.851  10.021  0.1068 -0.0953 -0.0891
  323loPI    C3 5155   3.195   9.950  10.392  0.3083 -0.2754 -0.1015
  323loPI   PO4 5156   2.913   9.403  10.171 -0.0084 -0.0857  0.1120
  323loPI   GL1 5157   3.015   9.444   9.754  0.1328  0.0611  0.1342
  323loPI   GL2 5158   2.748   9.653   9.732  0.2188  0.0477  0.1563
  323loPI   C1A 5159   3.161   9.216   9.385  0.1047 -0.0090  0.2495
  323loPI   C2A 5160   3.256   9.169   8.882 -0.2469  0.0793  0.2230
  323loPI   C3A 5161   3.234   9.229   8.426 -0.2577  0.0414 -0.0829
  323loPI   C4A 5162   3.060   8.972   8.113 -0.1782 -0.1579  0.0009
  323loPI   C5A 5163   2.826   9.121   7.765 -0.2107  0.1490 -0.1736
  323loPI   C6A 5164   2.510   9.419   7.801  0.3211  0.1160  0.1076
  323loPI   C1B 5165   2.684   9.561   9.337 -0.1312  0.0348  0.3828
  323loPI   C2B 5166   2.786   9.462   8.989 -0.3180 -0.1552 -0.2598
  323loPI   C3B 5167   2.815   9.467   8.583  0.0082  0.2114  0.0194
  323loPI   C4B 5168   2.912   9.490   8.133  0.2980 -0.1569 -0.0289
  324loPI    C1 5169   0.387   1.983  10.488 -0.0533  0.1718 -0.0711
  324loPI    C2 5170   0.348   1.968  10.885  0.1878  0.0375 -0.0506
  324loPI    C3 5171   0.711   2.008  10.721  0.0850  0.1385 -0.2568
  324loPI   PO4 5172   0.178   2.201  10.431  0.1435 -0.2095  0.1225
  324loPI   GL1 5173   0.201   2.462  10.137  0.3792 -0.2150 -0.2425
  324loPI   GL2 5174   0.067   2.621  10.240  0.1791 -0.1018  0.1360
  324loPI   C1A 5175   0.168   2.419   9.708  0.2473  0.0279 -0.2120
  324loPI   C2A 5176   0.093   2.541   9.301 -0.0832 -0.1927 -0.1716
  324loPI   C3A 5177   0.099   2.541   8.911 -0.0444  0.4107 -0.2871
  324loPI   C4A 5178   0.162   2.608   8.435 -0.0431 -0.0552 -0.1891
  324loPI   C5A 5179   0.002   2.510   7.903 -0.1250  0.5148  0.0889
  324loPI   C6A 5180   0.251   2.062   7.664 -0.3315  0.2158  0.0867
  324loPI   C1B 5181   0.236   2.944  10.026  0.0620 -0.0316 -0.0902
  324loPI   C2B 5182   0.283   3.387   9.882 -0.0652  0.0128  0.0677
  324loPI   C3B 5183   0.254   3.583   9.502  0.0157  0.0535  0.0015
  324loPI   C4B 5184   0.223   3.584   9.079 -0.4119 -0.0124 -0.1035
  325loPI    C1 5185  10.755   2.212  10.772  0.1724  0.1364  0.0563
  325loPI    C2 5186  10.378   2.128  10.872  0.1823 -0.3001 -0.2434
  325loPI    C3 5187  10.654   2.179  11.157 -0.1098  0.0903 -0.0199
  325loPI   PO4 5188  10.823   2.064  10.605 -0.3777 -0.1242 -0.1836
  325loPI   GL1 5189  10.883   2.082  10.228  0.3408 -0.0293 -0.0656
  325loPI   GL2 5190  11.198   2.147  10.157 -0.2317  0.0732 -0.1174
  325loPI   C1A 5191  10.901   1.953   9.835  0.0610  0.2121  0.0957
  325loPI   C2A 5192  10.981   2.002   9.405 -0.0861  0.2219  0.1721
  325loPI   C3A 5193  10.904   1.787   8.967 -0.0308  0.0110  0.2442
  325loPI   C4A 5194  11.163   1.812   8.572 -0.1008  0.0729 -0.0502
  325loPI   C5A 5195  11.268   2.200   8.386  0.1721 -0.0013 -0.1970
  325loPI   C6A 5196  11.604   2.518   8.260  0.1789 -0.1474  0.0929
  325loPI   C1B 5197  11.390   1.812   9.941  0.2732  0.0172  0.1585
  325loPI   C2B 5198  11.409   1.760   9.519 -0.1607 -0.0850 -0.0837
  325loPI   C3B 5199  11.401   1.578   9.070 -0.0654  0.0217  0.1598
  325loPI   C4B 5200  11.650   1.310   8.927  0.0421 -0.0806  0.1874
  326loPI    C1 5201   5.957  17.395  10.253  0.0131 -0.1105 -0.0930
  326loPI    C2 5202   5.641  17.499  10.476  0.0555  0.0476 -0.1048
  326loPI    C3 5203   5.742  17.113  10.439 -0.1078 -0.0002 -0.0633
  326loPI   PO4 5204   6.125  17.620  10.237 -0.2051 -0.3124 -0.0397
  326loPI   GL1 5205   6.398  17.748  10.072 -0.1320  0.2094 -0.0225
  326loPI   GL2 5206   6.648  18.007  10.112  0.0218  0.1133  0.1458
  326loPI   C1A 5207   6.696  17.494   9.855 -0.4121  0.0563 -0.0346
  326loPI   C2A 5208   6.506  17.340   9.433  0.1899 -0.1134  0.1211
  326loPI   C3A 5209   6.117  17.168   9.238 -0.0958 -0.1458 -0.2844
  326loPI   C4A 5210   5.704  17.118   9.183  0.0865  0.1310  0.0011
  326loPI   C5A 5211   5.398  17.265   8.980 -0.1898  0.0833  0.1769
  326loPI   C6A 5212   5.338  17.671   8.710 -0.0594  0.0153 -0.2068
  326loPI   C1B 5213   6.801  18.317   9.829 -0.1131  0.1092 -0.1601
  326loPI   C2B 5214   6.903  18.682   9.564  0.0477 -0.0616 -0.0685
  326loPI   C3B 5215   6.896  18.776   9.249  0.2317 -0.1143 -0.2256
  326loPI   C4B 5216   6.806  18.813   8.772  0.0107  0.0347  0.1069
  327loPI    C1 5217   8.132   8.531   9.757 -0.1610  0.0649  0.2753
  327loPI    C2 5218   7.752   8.649   9.801 -0.2915 -0.1821 -0.1317
  327loPI    C3 5219   7.838   8.330   9.575  0.1531 -0.1883  0.0353
  327loPI   PO4 5220   8.262   8.853   9.689  0.0314  0.1950  0.3152
  327loPI   GL1 5221   8.530   9.021   9.356 -0.1891  0.4005 -0.0371
  327loPI   GL2 5222   8.655   8.789   9.295 -0.0464 -0.0450 -0.1658
  327loPI   C1A 5223   8.341   9.025   8.911  0.3713 -0.2718 -0.1193
  327loPI   C2A 5224   8.309   8.908   8.469  0.1929 -0.0681 -0.0198
  327loPI   C3A 5225   8.081   8.573   8.221  0.0033  0.0524  0.1782
  327loPI   C4A 5226   7.808   8.314   8.107 -0.1184 -0.0918 -0.2063
  327loPI   C5A 5227   7.686   7.938   7.867 -0.3756 -0.3170  0.3282
  327loPI   C6A 5228   7.485   7.718   8.098 -0.1397  0.1616 -0.0427
  327loPI   C1B 5229   8.597   8.641   8.903  0.0589  0.2319  0.0347
  327loPI   C2B 5230   8.578   8.412   8.468  0.1959  0.0771 -0.1947
  327loPI   C3B 5231   8.340   8.100   8.234  0.1452 -0.0167 -0.3287
  327loPI   C4B 5232   8.205   7.800   7.907 -0.0480  0.2776  0.0184
  328loPI    C1 5233  18.041   5.227  10.540 -0.0238 -0.2961  0.0783
  328loPI    C2 5234  17.799   5.126  10.841 -0.1701  0.1243  0.1082
  328loPI    C3 5235  17.798   5.501  10.701 -0.0373 -0.0429 -0.3568
  328loPI   PO4 5236  18.001   5.034  10.366  0.2635  0.0243 -0.2013
  328loPI   GL1 5237  18.062   4.986  10.088 -0.3118  0.1308  0.0313
  328loPI   GL2 5238  18.406   4.877   9.971 -0.1079 -0.5095 -0.0114
  328loPI   C1A 5239  18.140   4.961   9.570 -0.0315 -0.0071  0.1169
  328loPI   C2A 5240  18.090   4.919   9.142  0.2895  0.3740  0.0552
  328loPI   C3A 5241  18.165   4.911   8.686 -0.0191  0.0785 -0.0077
  328loPI   C4A 5242  18.135   4.887   8.271 -0.5201 -0.0334  0.0104
  328loPI   C5A 5243  18.475   4.719   8.119  0.0164 -0.0991  0.1501
  328loPI   C6A 5244  18.772   4.449   8.114  0.1026 -0.0430 -0.0281
  328loPI   C1B 5245  18.622   5.084   9.636  0.0552 -0.0800  0.1886
  328loPI   C2B 5246  18.538   5.111   9.240  0.0278 -0.0509 -0.0421
  328loPI   C3B 5247  18.585   5.109   8.737  0.1843  0.1168  0.2301
  328loPI   C4B 5248  18.557   5.212   8.298 -0.1289  0.0664  0.1596
  329loPI    C1 5249   4.844   1.614  10.050 -0.1988  0.2709  0.0020
  329loPI    C2 5250   4.968   1.992  10.013  0.2117  0.1499  0.0880
  329loPI    C3 5251   5.096   1.769  10.319  0.0923 -0.1056 -0.0449
  329loPI   PO4 5252   4.530   1.722  10.069  0.2808 -0.2617  0.1229
  329loPI   GL1 5253   4.134   1.755   9.760  0.0986 -0.0368 -0.1277
  329loPI   GL2 5254   3.782   1.775   9.677 -0.3971 -0.2885 -0.2435
  329loPI   C1A 5255   4.400   1.662   9.424 -0.1150 -0.1723 -0.0636
  329loPI   C2A 5256   4.417   1.507   9.133  0.1617  0.0957  0.2107
  329loPI   C3A 5257   4.092   1.626   8.796 -0.1197 -0.0548 -0.0927
  329loPI   C4A 5258   3.680   1.719   8.732  0.2061 -0.0002 -0.1260
  329loPI   C5A 5259   3.228   1.536   8.655 -0.0918  0.1684 -0.0203
  329loPI   C6A 5260   2.851   1.360   8.501  0.2184  0.1281 -0.3106
  329loPI   C1B 5261   3.468   1.958   9.403  0.1577 -0.0118  0.3099
  329loPI   C2B 5262   3.383   2.074   9.051 -0.0968 -0.1280 -0.1467
  329loPI   C3B 5263   3.299   2.181   8.691  0.2560  0.0002  0.0118
  329loPI   C4B 5264   3.038   2.345   8.317 -0.0734  0.0125 -0.1835
  330loPI    C1 5265   4.379   7.368   9.963 -0.0563  0.2305  0.0613
  330loPI    C2 5266   4.255   7.197  10.302 -0.0570 -0.0990 -0.1018
  330loPI    C3 5267   4.633   7.324  10.269  0.0064 -0.2713 -0.0544
  330loPI   PO4 5268   4.297   7.546   9.919 -0.2571 -0.2748  0.0849
  330loPI   GL1 5269   4.101   7.882   9.528 -0.0022 -0.0034 -0.1371
  330loPI   GL2 5270   4.364   7.946   9.422  0.1369 -0.0663 -0.0475
  330loPI   C1A 5271   4.212   7.518   9.287 -0.0916  0.2814  0.0954
  330loPI   C2A 5272   4.551   7.419   9.123 -0.1496  0.1729  0.1836
  330loPI   C3A 5273   4.480   7.365   8.668  0.0953 -0.1535  0.1026
  330loPI   C4A 5274   4.248   7.679   8.378 -0.1883 -0.0397  0.2455
  330loPI   C5A 5275   4.077   7.587   7.978  0.0168  0.0217  0.0441
  330loPI   C6A 5276   4.156   7.143   7.820  0.1330 -0.0179  0.0013
  330loPI   C1B 5277   4.231   7.947   8.990 -0.1676  0.1295  0.0991
  330loPI   C2B 5278   4.011   8.069   8.556 -0.3630 -0.4258 -0.6959
  330loPI   C3B 5279   3.950   8.023   8.126 -0.1779  0.1265 -0.0805
  330loPI   C4B 5280   3.820   7.896   7.664 -0.2386  0.1999  0.3851
  331loPI    C1 5281   6.213  10.921  10.289  0.1617  0.1505  0.0246
  331loPI    C2 5282   6.078  11.279  10.405 -0.0854  0.0108  0.1758
  331loPI    C3 5283   6.233  11.026  10.674 -0.1292 -0.0882  0.1084
  331loPI   PO4 5284   6.356  10.979  10.098 -0.0434 -0.1857  0.5215
  331loPI   GL1 5285   6.622  11.008   9.774 -0.0510 -0.0281 -0.0703
  331loPI   GL2 5286   6.854  10.947   9.739  0.0957  0.0865  0.0530
  331loPI   C1A 5287   6.488  10.833   9.341  0.1464 -0.0967 -0.0400
  331loPI   C2A 5288   6.354  10.843   8.918 -0.1619 -0.0037 -0.0605
  331loPI   C3A 5289   6.326  10.859   8.440  0.0129 -0.2006 -0.1231
  331loPI   C4A 5290   6.054  10.663   8.062 -0.0391 -0.0089 -0.0539
  331loPI   C5A 5291   6.096  10.545   7.637 -0.2330  0.1610  0.2666
  331loPI   C6A 5292   6.277  10.411   7.216 -0.1780  0.3293  0.1221
  331loPI   C1B 5293   7.025  10.893   9.329 -0.3202  0.2529  0.0170
  331loPI   C2B 5294   7.102  10.877   8.934  0.2469 -0.3361 -0.0019
  331loPI   C3B 5295   6.813  10.840   8.641  0.2037  0.1480  0.2739
  331loPI   C4B 5296   6.826  10.769   8.150 -0.1043 -0.0249 -0.0657
  332loPI    C1 5297   3.177   2.079  10.322 -0.0224 -0.0400  0.1321
  332loPI    C2 5298   3.272   2.450  10.437  0.0100 -0.0880  0.2618
  332loPI    C3 5299   2.968   2.258  10.612 -0.1391 -0.0458  0.0521
  332loPI   PO4 5300   3.111   2.037  10.005 -0.2325  0.1609 -0.0700
  332loPI   GL1 5301   2.746   1.949   9.715  0.0940 -0.1998 -0.1226
  332loPI   GL2 5302   2.520   1.985   9.480  0.0145 -0.2495  0.0936
  332loPI   C1A 5303   2.946   1.848   9.276 -0.2334  0.1032  0.1478
  332loPI   C2A 5304   2.802   1.752   8.878  0.0942 -0.0255  0.1191
  332loPI   C3A 5305   2.876   1.874   8.474  0.2433  0.0799 -0.0720
  332loPI   C4A 5306   3.365   1.899   8.273  0.0947 -0.2535 -0.0659
  332loPI   C5A 5307   3.780   1.707   8.173 -0.0272 -0.0310 -0.0436
  332loPI   C6A 5308   4.190   1.570   8.198 -0.2039 -0.1360  0.3957
  332loPI   C1B 5309   2.319   1.970   9.048  0.0009 -0.2286 -0.2923
  332loPI   C2B 5310   2.370   1.830   8.620 -0.0634  0.0500  0.0151
  332loPI   C3B 5311   2.373   1.846   8.234  0.0122  0.2631  0.2522
  332loPI   C4B 5312   2.139   1.448   7.995 -0.0120  0.0870  0.2769
  333loPI    C1 5313  17.087   0.221  11.199  0.0768 -0.0490 -0.0288
  333loPI    C2 5314  17.148  -0.174  11.224 -0.0299 -0.0601  0.0641
  333loPI    C3 5315  17.262   0.066  11.524 -0.1849 -0.0489  0.1151
  333loPI   PO4 5316  16.879   0.279  10.907 -0.1112 -0.4376 -0.0103
  333loPI   GL1 5317  16.651   0.357  10.498 -0.0786  0.1134 -0.1250
  333loPI   GL2 5318  16.797   0.613  10.522 -0.1292  0.0436 -0.0394
  333loPI   C1A 5319  16.830   0.151  10.124 -0.0785 -0.0161 -0.1367
  333loPI   C2A 5320  16.780   0.330   9.697 -0.0565 -0.0176  0.3566
  333loPI   C3A 5321  16.766   0.433   9.277 -0.1664 -0.0432 -0.3696
  333loPI   C4A 5322  16.751   0.539   8.832  0.1933 -0.0148  0.1394
  333loPI   C5A 5323  16.645   0.668   8.428 -0.0126  0.5852  0.1791
  333loPI   C6A 5324  16.321   0.602   8.081  0.1283  0.3764  0.0423
  333loPI   C1B 5325  17.082   0.640  10.024  0.1558  0.1890 -0.4532
  333loPI   C2B 5326  17.100   0.764   9.574 -0.1931  0.1862  0.0972
  333loPI   C3B 5327  17.093   0.805   9.070  0.0214  0.2272 -0.3243
  333loPI   C4B 5328  17.056   0.931   8.732 -0.1522 -0.1259 -0.1318
  334loPI    C1 5329   8.707   2.623  10.673 -0.1662  0.1608  0.2209
  334loPI    C2 5330   8.879   2.919  10.466  0.0006 -0.2267 -0.2115
  334loPI    C3 5331   8.930   2.897  10.862  0.3918  0.0452 -0.2404
  334loPI   PO4 5332   8.587   2.551  10.645 -0.1391 -0.2839 -0.0453
  334loPI   GL1 5333   8.364   2.591  10.263  0.1274  0.0049  0.0541
  334loPI   GL2 5334   8.377   2.245  10.157  0.3798 -0.2215  0.1471
  334loPI   C1A 5335   8.231   2.697   9.811 -0.2941 -0.0332  0.0398
  334loPI   C2A 5336   8.294   2.599   9.299 -0.0249 -0.0475 -0.1045
  334loPI   C3A 5337   8.180   2.626   8.924 -0.1268  0.2073 -0.1703
  334loPI   C4A 5338   8.053   2.751   8.420  0.1209 -0.1597  0.0677
  334loPI   C5A 5339   7.834   2.818   8.045  0.0655 -0.0155 -0.1446
  334loPI   C6A 5340   7.884   3.005   7.693  0.1441 -0.2369 -0.0194
  334loPI   C1B 5341   8.285   2.126   9.657 -0.1388 -0.0803 -0.4093
  334loPI   C2B 5342   8.269   1.952   9.228 -0.1375 -0.0974 -0.1238
  334loPI   C3B 5343   8.137   2.133   8.933 -0.0087 -0.2942 -0.0979
  334loPI   C4B 5344   8.073   1.983   8.497  0.0424  0.1860 -0.0390
  335loPI    C1 5345   0.109  12.168  10.528 -0.1062  0.3209  0.0403
  335loPI    C2 5346   0.390  11.911  10.649 -0.0678  0.2436 -0.2070
  335loPI    C3 5347   0.285  12.217  10.884  0.2532  0.2981 -0.1288
  335loPI   PO4 5348   0.155  12.167  10.250 -0.4503 -0.3263 -0.1167
  335loPI   GL1 5349   0.026  11.947   9.890  0.2507 -0.1377 -0.1204
  335loPI   GL2 5350   0.226  12.061   9.766  0.1517  0.0160 -0.0386
  335loPI   C1A 5351  -0.380  11.996   9.647 -0.0311  0.0737 -0.2755
  335loPI   C2A 5352  -0.364  12.103   9.284  0.0859  0.0025 -0.0050
  335loPI   C3A 5353  -0.451  12.144   8.795  0.1655 -0.0665 -0.1584
  335loPI   C4A 5354  -0.574  12.118   8.322  0.0124 -0.3076  0.1068
  335loPI   C5A 5355  -0.801  12.139   7.874  0.2553 -0.1382  0.0448
  335loPI   C6A 5356  -1.239  12.313   7.856  0.1068  0.0793 -0.3337
  335loPI   C1B 5357   0.127  11.895   9.331  0.2356  0.3464  0.2577
  335loPI   C2B 5358   0.090  12.019   8.929  0.2920 -0.1461 -0.1586
  335loPI   C3B 5359  -0.123  11.836   8.572  0.0241  0.0669  0.3083
  335loPI   C4B 5360  -0.282  11.415   8.537  0.0763  0.1753 -0.2513
  336loPI    C1 5361   5.255  12.662  10.480 -0.2353  0.0327 -0.1006
  336loPI    C2 5362   4.915  12.848  10.381 -0.1058  0.0822 -0.4651
  336loPI    C3 5363   5.163  13.013  10.649 -0.3542  0.0576 -0.2165
  336loPI   PO4 5364   5.365  12.587  10.278 -0.1809  0.2784  0.1238
  336loPI   GL1 5365   5.714  12.772  10.035  0.1792 -0.0495 -0.0044
  336loPI   GL2 5366   5.906  12.543  10.042  0.0729 -0.2871 -0.1015
  336loPI   C1A 5367   5.539  12.713   9.626 -0.0452 -0.1224  0.0376
  336loPI   C2A 5368   5.719  12.717   9.224  0.0099  0.1344  0.0098
  336loPI   C3A 5369   5.779  12.769   8.772  0.1965  0.0061  0.1731
  336loPI   C4A 5370   5.891  12.621   8.377  0.0074 -0.0518  0.3071
  336loPI   C5A 5371   5.824  12.681   7.907  0.0800 -0.0464 -0.2052
  336loPI   C6A 5372   5.679  12.520   7.487 -0.2295 -0.2034  0.0676
  336loPI   C1B 5373   6.028  12.542   9.735 -0.0349  0.1443  0.1020
  336loPI   C2B 5374   6.110  12.424   9.183  0.1940 -0.0844 -0.1045
  336loPI   C3B 5375   6.137  12.263   8.773  0.1104  0.2441  0.3237
  336loPI   C4B 5376   6.160  12.235   8.276  0.2286  0.3722 -0.1286
  337loPI    C1 5377   9.166   4.650  10.566 -0.0956  0.0747 -0.1430
  337loPI    C2 5378   9.151   5.029  10.691 -0.0922 -0.0107  0.1238
  337loPI    C3 5379   8.924   4.752  10.868 -0.1194 -0.1283 -0.0920
  337loPI   PO4 5380   9.149   4.719  10.292 -0.0126  0.1669 -0.1392
  337loPI   GL1 5381   9.353   4.818   9.861 -0.2232  0.0821  0.3448
  337loPI   GL2 5382   9.556   4.919   9.777  0.1566 -0.0532 -0.1071
  337loPI   C1A 5383   9.211   4.577   9.484 -0.2736  0.2881 -0.1015
  337loPI   C2A 5384   9.268   4.457   9.117 -0.3851 -0.1919  0.1457
  337loPI   C3A 5385   9.279   4.486   8.737  0.1958 -0.1696  0.0193
  337loPI   C4A 5386   9.235   4.423   8.355  0.1857 -0.1507  0.3878
  337loPI   C5A 5387   9.041   4.586   7.983  0.1178  0.0483  0.2922
  337loPI   C6A 5388   8.823   4.982   7.861  0.0868  0.0992 -0.0276
  337loPI   C1B 5389   9.636   4.980   9.395  0.0984  0.1920 -0.1789
  337loPI   C2B 5390   9.628   4.829   8.925  0.1057 -0.0985 -0.0829
  337loPI   C3B 5391   9.604   4.795   8.554 -0.2044  0.1007 -0.0378
  337loPI   C4B 5392   9.558   4.625   8.071  0.1228  0.0054 -0.2150
  338loPI    C1 5393  11.453   4.607  10.969  0.0798 -0.1545  0.2520
  338loPI    C2 5394  11.819   4.727  11.078  0.0073  0.1261  0.1938
  338loPI    C3 5395  11.527   4.704  11.350 -0.0017  0.1699  0.1878
  338loPI   PO4 5396  11.427   4.725  10.578  0.0001  0.0569  0.0024
  338loPI   GL1 5397  11.651   4.768  10.197 -0.0076 -0.2178  0.2089
  338loPI   GL2 5398  11.879   4.925  10.119  0.1194 -0.1353 -0.0510
  338loPI   C1A 5399  11.589   4.717   9.696  0.0065  0.2535  0.3358
  338loPI   C2A 5400  11.561   4.614   9.216  0.0732 -0.0493 -0.0793
  338loPI   C3A 5401  11.432   4.577   8.847  0.0086  0.0832 -0.1051
  338loPI   C4A 5402  11.380   4.728   8.410 -0.0557  0.1600  0.0634
  338loPI   C5A 5403  11.356   4.904   8.063  0.0873 -0.0281  0.1766
  338loPI   C6A 5404  11.447   5.191   7.797  0.1671  0.0838 -0.2133
  338loPI   C1B 5405  11.816   5.200   9.817 -0.4822 -0.0106  0.1244
  338loPI   C2B 5406  11.778   5.024   9.355  0.1246 -0.0089  0.1779
  338loPI   C3B 5407  11.819   5.056   9.003  0.1926 -0.0220  0.1841
  338loPI   C4B 5408  11.923   4.888   8.619 -0.1609 -0.1769 -0.0626
  339loPI    C1 5409   6.679  10.769  10.442 -0.0326 -0.1028  0.3352
  339loPI    C2 5410   6.721  11.166  10.423 -0.0252 -0.1198 -0.1184
  339loPI    C3 5411   6.825  10.969  10.755  0.2006  0.2283  0.0229
  339loPI   PO4 5412   6.819  10.727  10.188  0.1807 -0.1121 -0.0884
  339loPI   GL1 5413   6.808  10.348   9.905 -0.2757  0.2169 -0.0109
  339loPI   GL2 5414   6.666  10.116   9.869 -0.1055  0.0141 -0.2181
  339loPI   C1A 5415   6.755  10.481   9.507 -0.0313 -0.0124 -0.0526
  339loPI   C2A 5416   6.735  10.524   9.022  0.0766 -0.1007 -0.0599
  339loPI   C3A 5417   7.023  10.429   8.746 -0.1194 -0.2682  0.3423
  339loPI   C4A 5418   7.214  10.328   8.363  0.1552 -0.0716  0.3915
  339loPI   C5A 5419   7.539  10.166   8.018  0.0677 -0.0488  0.1279
  339loPI   C6A 5420   8.006  10.250   7.732 -0.0480  0.1825  0.2982
  339loPI   C1B 5421   6.476  10.048   9.447  0.0893 -0.0760 -0.2625
  339loPI   C2B 5422   6.466   9.746   9.066  0.3208  0.0553  0.0271
  339loPI   C3B 5423   6.562   9.905   8.690 -0.1221  0.0570  0.0444
  339loPI   C4B 5424   6.782  10.012   8.373  0.0192 -0.0280 -0.1415
  340loPI    C1 5425   4.386  10.215  10.074  0.0386  0.0861  0.1569
  340loPI    C2 5426   4.399  10.614  10.092 -0.1284  0.0953  0.0834
  340loPI    C3 5427   4.247  10.405  10.397  0.0985  0.0791  0.1871
  340loPI   PO4 5428   4.603  10.152   9.985 -0.1753 -0.1270 -0.1980
  340loPI   GL1 5429   4.617   9.910   9.691  0.0450 -0.2446  0.4342
  340loPI   GL2 5430   4.332   9.929   9.469  0.3117  0.0977 -0.2731
  340loPI   C1A 5431   4.758  10.045   9.324 -0.0129 -0.0008 -0.4462
  340loPI   C2A 5432   4.790  10.077   8.946 -0.1499  0.1245  0.1127
  340loPI   C3A 5433   4.880  10.044   8.496 -0.1116  0.1025 -0.0460
  340loPI   C4A 5434   4.879  10.253   8.025 -0.1912  0.2807  0.1075
  340loPI   C5A 5435   4.661  10.375   7.644  0.0521  0.1185  0.0741
  340loPI   C6A 5436   4.698  10.529   7.317 -0.1499 -0.1458 -0.2102
  340loPI   C1B 5437   4.269   9.964   9.108 -0.1497  0.0034 -0.0168
  340loPI   C2B 5438   4.218   9.892   8.600 -0.3116 -0.2934 -0.0469
  340loPI   C3B 5439   4.519   9.816   8.288  0.2046 -0.0272 -0.1074
  340loPI   C4B 5440   4.648   9.835   7.874 -0.4187 -0.2539 -0.0329
  341loPI    C1 5441  16.769  13.949  10.789  0.1559  0.0134  0.1338
  341loPI    C2 5442  17.065  14.102  10.568  0.1229 -0.0837  0.0218
  341loPI    C3 5443  17.130  14.007  10.951  0.1659  0.1328  0.0694
  341loPI   PO4 5444  16.579  14.076  10.709 -0.0843 -0.0321 -0.0648
  341loPI   GL1 5445  16.586  14.236  10.326 -0.0625 -0.2102 -0.0283
  341loPI   GL2 5446  16.448  14.585  10.213 -0.1060 -0.0397 -0.2755
  341loPI   C1A 5447  16.818  14.450   9.957  0.2758 -0.2750  0.1635
  341loPI   C2A 5448  16.855  14.597   9.473  0.3102 -0.3228 -0.0299
  341loPI   C3A 5449  16.822  14.603   9.077  0.1345  0.0078  0.2325
  341loPI   C4A 5450  16.902  14.412   8.721 -0.2338  0.1533 -0.0423
  341loPI   C5A 5451  16.936  14.637   8.273 -0.0534 -0.0024  0.2678
  341loPI   C6A 5452  17.015  14.710   7.752  0.0278 -0.1530 -0.0794
  341loPI   C1B 5453  16.326  14.724   9.745  0.0821 -0.1518  0.3013
  341loPI   C2B 5454  16.350  14.649   9.358 -0.0832  0.2395  0.0309
  341loPI   C3B 5455  16.335  14.569   8.932 -0.1193  0.1135  0.0313
  341loPI   C4B 5456  16.426  14.537   8.476  0.0078  0.0439  0.0854
  342loPI    C1 5457   8.598  13.069  10.256 -0.2346 -0.0203  0.1524
  342loPI    C2 5458   8.516  12.865  10.591 -0.2115 -0.1522  0.0786
  342loPI    C3 5459   8.667  13.235  10.613 -0.4379 -0.0660  0.2146
  342loPI   PO4 5460   8.459  13.059  10.086  0.0105  0.0991 -0.0654
  342loPI   GL1 5461   8.406  13.378   9.829  0.1854 -0.0449  0.3346
  342loPI   GL2 5462   8.424  13.671   9.662 -0.0612  0.2677  0.1826
  342loPI   C1A 5463   8.431  13.258   9.350  0.0180 -0.1908  0.0291
  342loPI   C2A 5464   8.306  13.187   8.917 -0.2492 -0.0812  0.0268
  342loPI   C3A 5465   8.087  12.978   8.624 -0.2463 -0.2031  0.0405
  342loPI   C4A 5466   7.685  12.751   8.496 -0.1742 -0.0919  0.0874
  342loPI   C5A 5467   7.398  12.859   8.157 -0.1155  0.0431  0.0332
  342loPI   C6A 5468   7.061  12.952   7.816  0.1770  0.2057 -0.0118
  342loPI   C1B 5469   8.242  13.709   9.236 -0.1234 -0.0039  0.1157
  342loPI   C2B 5470   8.189  13.634   8.790  0.3703  0.4517 -0.1044
  342loPI   C3B 5471   8.166  13.393   8.380 -0.0776  0.1825  0.0513
  342loPI   C4B 5472   8.100  13.525   7.973  0.0097  0.0358 -0.0041
  343loPI    C1 5473  16.301  16.279  10.675 -0.1784  0.1871  0.0466
  343loPI    C2 5474  16.608  16.393  10.904 -0.2069 -0.0923  0.2293
  343loPI    C3 5475  16.415  16.052  10.984 -0.3358 -0.1008 -0.1017
  343loPI   PO4 5476  16.335  16.346  10.507  0.0252  0.0516 -0.0992
  343loPI   GL1 5477  16.442  16.237  10.150 -0.0154  0.0006  0.0005
  343loPI   GL2 5478  16.375  15.990  10.070 -0.2305  0.1999  0.0499
  343loPI   C1A 5479  16.497  16.385   9.764  0.0785  0.1940 -0.2875
  343loPI   C2A 5480  16.600  16.423   9.358 -0.1781  0.1571  0.2576
  343loPI   C3A 5481  16.732  16.422   8.914  0.2909 -0.1310  0.0906
  343loPI   C4A 5482  16.718  16.289   8.433 -0.2743 -0.1196 -0.2628
  343loPI   C5A 5483  16.617  16.046   8.087 -0.1452  0.1705  0.2848
  343loPI   C6A 5484  16.617  15.718   7.748  0.3671  0.0759  0.1115
  343loPI   C1B 5485  16.212  16.031   9.577 -0.1661 -0.0142  0.0911
  343loPI   C2B 5486  16.377  15.978   9.161 -0.2325  0.0611 -0.0014
  343loPI   C3B 5487  16.439  16.003   8.700 -0.1303  0.0132 -0.0498
  343loPI   C4B 5488  16.233  16.296   8.404  0.1125  0.3036  0.0531
  344loPI    C1 5489   2.640  10.119  10.054 -0.1657 -0.0554 -0.1432
  344loPI    C2 5490   2.451  10.360  10.312 -0.1226 -0.1097 -0.0603
  344loPI    C3 5491   2.513   9.976  10.405  0.1290 -0.0650 -0.0377
  344loPI   PO4 5492   2.449  10.054   9.796 -0.1385  0.0692  0.4332
  344loPI   GL1 5493   2.461  10.325   9.520  0.0986  0.1084  0.1106
  344loPI   GL2 5494   2.128  10.478   9.444 -0.2831 -0.0364  0.0096
  344loPI   C1A 5495   2.710  10.168   9.239  0.1474  0.0159 -0.1717
  344loPI   C2A 5496   2.881   9.940   8.881  0.1574  0.1737  0.3009
  344loPI   C3A 5497   3.010  10.015   8.486  0.0620 -0.0233  0.2766
  344loPI   C4A 5498   3.091  10.074   7.989  0.0954 -0.1799  0.0372
  344loPI   C5A 5499   3.227  10.051   7.545  0.0736 -0.0204  0.0755
  344loPI   C6A 5500   3.348  10.008   7.118 -0.0047  0.3105 -0.1496
  344loPI   C1B 5501   2.289  10.446   9.048 -0.0481  0.0054 -0.1434
  344loPI   C2B 5502   2.275  10.626   8.710 -0.0164  0.3701 -0.1989
  344loPI   C3B 5503   2.104  10.557   8.227 -0.0897  0.0898 -0.3434
  344loPI   C4B 5504   1.780  10.410   7.975 -0.1245  0.0514  0.0733
  345loPI    C1 5505  18.023   3.048  10.756 -0.0976 -0.0340  0.2203
  345loPI    C2 5506  17.792   2.761  10.600  0.0007 -0.0200  0.0456
  345loPI    C3 5507  17.748   2.868  10.983 -0.3227  0.0247 -0.0013
  345loPI   PO4 5508  18.029   3.167  10.508 -0.0414  0.2629 -0.1570
  345loPI   GL1 5509  17.849   3.160  10.195  0.1925 -0.0003  0.0589
  345loPI   GL2 5510  17.559   2.975  10.201 -0.3541  0.1672 -0.0851
  345loPI   C1A 5511  18.078   3.273   9.946  0.0355 -0.1162  0.2328
  345loPI   C2A 5512  18.025   3.335   9.555  0.2907  0.2826 -0.0387
  345loPI   C3A 5513  18.024   3.307   9.174  0.0488 -0.0637 -0.0904
  345loPI   C4A 5514  17.977   3.368   8.821 -0.0738 -0.1022  0.0404
  345loPI   C5A 5515  18.022   3.280   8.355 -0.0183 -0.2126  0.2569
  345loPI   C6A 5516  17.931   2.872   8.171 -0.1489 -0.1025  0.1540
  345loPI   C1B 5517  17.601   3.114   9.814 -0.1651 -0.0770 -0.1796
  345loPI   C2B 5518  17.562   3.146   9.482 -0.3639 -0.0686  0.2438
  345loPI   C3B 5519  17.467   3.111   9.069  0.1680  0.3786  0.0309
  345loPI   C4B 5520  17.568   3.201   8.577 -0.0287  0.0768  0.1572
  346loPI    C1 5521   2.801  10.672  10.047  0.0979 -0.2188 -0.1256
  346loPI    C2 5522   3.081  10.386  10.062  0.1745 -0.1265  0.4484
  346loPI    C3 5523   2.911  10.518  10.399 -0.3059  0.0768  0.1387
  346loPI   PO4 5524   2.638  10.631   9.892  0.1120  0.1259 -0.0237
  346loPI   GL1 5525   2.694  10.761   9.517 -0.1286 -0.3217 -0.0337
  346loPI   GL2 5526   2.777  11.040   9.718 -0.1353 -0.1802 -0.2391
  346loPI   C1A 5527   2.743  10.672   9.108 -0.1615  0.2028 -0.0872
  346loPI   C2A 5528   2.893  10.509   8.695 -0.0599 -0.0293  0.0667
  346loPI   C3A 5529   2.659  10.350   8.427 -0.1377  0.1240 -0.1123
  346loPI   C4A 5530   2.536  10.483   8.078 -0.1637 -0.0162 -0.1004
  346loPI   C5A 5531   2.216  10.209   7.832  0.0613 -0.2090  0.0984
  346loPI   C6A 5532   2.091   9.761   7.838  0.2201 -0.0586  0.0346
  346loPI   C1B 5533   2.799  11.309   9.373 -0.1593 -0.1833  0.0869
  346loPI   C2B 5534   2.901  11.142   9.030  0.0916  0.2342  0.0971
  346loPI   C3B 5535   2.749  11.017   8.651  0.0373  0.1266 -0.3509
  346loPI   C4B 5536   2.577  10.920   8.318  0.3833 -0.1176 -0.1189
  347loPI    C1 5537   4.107   3.673  10.342 -0.0195 -0.0154 -0.0226
  347loPI    C2 5538   3.861   3.608  10.650 -0.1674  0.1582 -0.1018
  347loPI    C3 5539   4.084   3.940  10.639 -0.0510  0.0806 -0.1108
  347loPI   PO4 5540   4.059   3.595  10.156  0.1136  0.0248  0.3219
  347loPI   GL1 5541   4.002   3.315   9.891  0.0758 -0.0642  0.2772
  347loPI   GL2 5542   3.770   3.088  10.000 -0.1670 -0.0598 -0.0145
  347loPI   C1A 5543   3.856   3.253   9.510  0.0185 -0.2882 -0.0858
  347loPI   C2A 5544   3.681   3.420   9.178 -0.2582 -0.0894 -0.3700
  347loPI   C3A 5545   3.379   3.602   8.808 -0.5264 -0.1311  0.0824
  347loPI   C4A 5546   3.395   3.474   8.388  0.1785 -0.1544  0.2504
  347loPI   C5A 5547   3.774   3.446   8.133 -0.1747 -0.0535  0.1122
  347loPI   C6A 5548   3.996   3.733   7.818 -0.2407 -0.0485 -0.3130
  347loPI   C1B 5549   3.701   2.807   9.655  0.5066 -0.4357 -0.3900
  347loPI   C2B 5550   3.669   2.832   9.218 -0.2006 -0.1198  0.0384
  347loPI   C3B 5551   3.685   2.650   8.857  0.0819 -0.2655 -0.0424
  347loPI   C4B 5552   3.518   2.623   8.416 -0.1241 -0.0398 -0.1071
  348loPI    C1 5553   1.776   5.394  10.387  0.0310  0.0288 -0.0414
  348loPI    C2 5554   1.566   5.055  10.358  0.2810 -0.1053 -0.3504
  348loPI    C3 5555   1.780   5.131  10.688  0.1072 -0.1769 -0.2197
  348loPI   PO4 5556   1.642   5.601  10.308 -0.0964 -0.0412 -0.1370
  348loPI   GL1 5557   1.302   5.757  10.075 -0.3262  0.1349 -0.0080
  348loPI   GL2 5558   1.063   6.047  10.066 -0.1561  0.1961  0.1970
  348loPI   C1A 5559   1.237   5.507   9.658 -0.1760 -0.1132  0.1093
  348loPI   C2A 5560   1.208   5.482   9.181  0.2615  0.0613  0.0096
  348loPI   C3A 5561   1.147   5.491   8.784 -0.1783  0.2536  0.0704
  348loPI   C4A 5562   1.112   5.541   8.318 -0.0008 -0.3123 -0.0746
  348loPI   C5A 5563   0.933   5.797   8.032 -0.1879 -0.0209 -0.1416
  348loPI   C6A 5564   0.662   6.097   7.768 -0.2990 -0.1941 -0.0904
  348loPI   C1B 5565   1.329   6.016   9.618  0.1318  0.0929  0.3732
  348loPI   C2B 5566   1.337   5.983   9.228  0.2617 -0.0058 -0.1411
  348loPI   C3B 5567   1.437   5.879   8.847  0.0953  0.1906 -0.1514
  348loPI   C4B 5568   1.294   6.004   8.362 -0.0785  0.2203  0.1468
  349loPI    C1 5569   6.382   7.745  10.113  0.1940  0.0438 -0.0763
  349loPI    C2 5570   6.756   7.733   9.970  0.2276 -0.0802  0.0202
  349loPI    C3 5571   6.635   8.045  10.190  0.2594 -0.0174 -0.0512
  349loPI   PO4 5572   6.249   7.712   9.979  0.1471  0.2890 -0.2237
  349loPI   GL1 5573   6.240   7.571   9.631 -0.2950 -0.2389  0.3672
  349loPI   GL2 5574   6.445   7.559   9.404 -0.1613  0.0526  0.1422
  349loPI   C1A 5575   6.114   7.111   9.463 -0.1990 -0.2641 -0.0962
  349loPI   C2A 5576   6.100   7.081   9.090  0.2167  0.1485 -0.1355
  349loPI   C3A 5577   6.151   6.868   8.694  0.1245 -0.3375  0.2875
  349loPI   C4A 5578   5.984   7.006   8.233  0.2084 -0.0679  0.1045
  349loPI   C5A 5579   6.045   6.701   7.850 -0.0472 -0.1663 -0.1570
  349loPI   C6A 5580   5.664   6.397   7.624  0.0572 -0.0842 -0.0720
  349loPI   C1B 5581   6.364   7.477   8.960 -0.1577 -0.0842  0.0767
  349loPI   C2B 5582   6.309   7.419   8.451 -0.0909  0.2323 -0.0067
  349loPI   C3B 5583   6.347   7.403   8.050  0.0135 -0.0702  0.1528
  349loPI   C4B 5584   6.066   7.394   7.870  0.1517 -0.0718  0.2865
  350loPI    C1 5585  11.573   8.038  10.361  0.0637 -0.0130 -0.1305
  350loPI    C2 5586  11.602   8.387  10.554  0.0106  0.0017 -0.1489
  350loPI    C3 5587  11.516   8.054  10.756  0.0159  0.0069 -0.1381
  350loPI   PO4 5588  11.513   8.183  10.070  0.2911 -0.1863 -0.0788
  350loPI   GL1 5589  11.493   7.926   9.732  0.1707 -0.1164  0.1377
  350loPI   GL2 5590  11.213   7.942   9.538  0.1491 -0.1783  0.2363
  350loPI   C1A 5591  11.673   8.172   9.393  0.0987  0.1473  0.0222
  350loPI   C2A 5592  11.621   8.215   9.040 -0.0584  0.1753  0.0224
  350loPI   C3A 5593  11.781   8.012   8.747  0.0771 -0.0773 -0.1257
  350loPI   C4A 5594  11.753   7.843   8.338 -0.0177  0.2916 -0.0132
  350loPI   C5A 5595  11.631   7.743   7.969  0.2823  0.1456  0.1252
  350loPI   C6A 5596  11.265   7.721   7.777  0.1695 -0.2816 -0.2678
  350loPI   C1B 5597  11.137   7.946   9.133 -0.1512 -0.0930  0.2390
  350loPI   C2B 5598  11.305   7.897   8.746  0.1610 -0.0974 -0.0194
  350loPI   C3B 5599  11.242   7.695   8.366  0.1086 -0.0705 -0.1655
  350loPI   C4B 5600  11.447   7.307   8.184  0.2496  0.0692  0.1034
  351loPI    C1 5601  12.016  11.871  10.492 -0.1612  0.2404  0.4124
  351loPI    C2 5602  12.340  11.886  10.726  0.1030 -0.1254  0.0842
  351loPI    C3 5603  12.047  11.625  10.806  0.1764 -0.2253  0.0290
  351loPI   PO4 5604  12.095  11.872  10.221  0.1349  0.1431 -0.0349
  351loPI   GL1 5605  12.513  11.890  10.039  0.1800  0.1047  0.0615
  351loPI   GL2 5606  12.301  11.956   9.789 -0.1332 -0.0361  0.0318
  351loPI   C1A 5607  12.761  11.949   9.617  0.0973 -0.1557 -0.3374
  351loPI   C2A 5608  12.659  11.862   9.219  0.2647  0.0959  0.0288
  351loPI   C3A 5609  12.510  11.606   8.971 -0.3173 -0.0947  0.1639
  351loPI   C4A 5610  12.430  11.604   8.587  0.0335  0.3089 -0.0041
  351loPI   C5A 5611  12.084  11.492   8.342  0.1821  0.0777 -0.1007
  351loPI   C6A 5612  11.783  11.703   8.065 -0.1250 -0.1112 -0.3786
  351loPI   C1B 5613  12.411  11.537   9.512 -0.4102  0.0766 -0.2946
  351loPI   C2B 5614  12.331  11.239   9.180 -0.2075 -0.2094  0.5179
  351loPI   C3B 5615  12.188  11.106   8.784 -0.0797  0.1924  0.2729
  351loPI   C4B 5616  12.350  11.050   8.401 -0.0919  0.0206  0.0118
  352loPI    C1 5617   0.744  14.526  10.089  0.0260  0.1769 -0.2443
  352loPI    C2 5618   0.540  14.862  10.162 -0.0409  0.0914 -0.0304
  352loPI    C3 5619   0.360  14.507  10.199  0.0248  0.0311 -0.2715
  352loPI   PO4 5620   0.880  14.577   9.930  0.0053 -0.0881 -0.0806
  352loPI   GL1 5621   0.865  14.502   9.484  0.0545 -0.0938  0.0452
  352loPI   GL2 5622   0.531  14.582   9.521  0.1155  0.2474 -0.1226
  352loPI   C1A 5623   0.895  14.530   9.024 -0.0194  0.0347  0.0130
  352loPI   C2A 5624   0.995  14.595   8.584 -0.1602  0.0113 -0.0314
  352loPI   C3A 5625   1.353  14.711   8.326 -0.1958 -0.0661  0.0778
  352loPI   C4A 5626   1.756  14.911   8.238 -0.0976 -0.0802  0.2932
  352loPI   C5A 5627   2.128  15.169   8.107 -0.0355  0.0609 -0.0087
  352loPI   C6A 5628   2.344  15.408   8.394 -0.1712  0.2543 -0.3314
  352loPI   C1B 5629   0.443  14.668   9.119 -0.2111 -0.2250 -0.2571
  352loPI   C2B 5630   0.513  14.699   8.768 -0.0743 -0.2142 -0.1317
  352loPI   C3B 5631   0.525  14.626   8.359  0.1172  0.0668 -0.1944
  352loPI   C4B 5632   0.397  14.612   7.930  0.0149 -0.1889  0.0445
  353loPI    C1 5633   2.535  17.535  10.460 -0.1403 -0.0074 -0.0356
  353loPI    C2 5634   2.362  17.410  10.798 -0.1422  0.0105 -0.0300
  353loPI    C3 5635   2.558  17.150  10.566 -0.3625 -0.0529 -0.1479
  353loPI   PO4 5636   2.455  17.592  10.316  0.2595  0.3420 -0.4908
  353loPI   GL1 5637   2.492  17.819   9.930 -0.2510 -0.0567  0.2192
  353loPI   GL2 5638   2.723  17.683   9.892 -0.2851 -0.2616  0.0020
  353loPI   C1A 5639   2.723  17.857   9.466 -0.1319  0.0236 -0.1580
  353loPI   C2A 5640   2.811  17.731   9.055  0.4169 -0.0771 -0.0803
  353loPI   C3A 5641   2.944  17.613   8.639  0.0111 -0.1520  0.0196
  353loPI   C4A 5642   2.807  17.740   8.183  0.0963  0.0995 -0.2403
  353loPI   C5A 5643   2.592  18.014   7.858  0.0155 -0.0056  0.0071
  353loPI   C6A 5644   2.361  18.352   7.898 -0.1603  0.1528 -0.1657
  353loPI   C1B 5645   2.667  17.367   9.580 -0.0687 -0.3632  0.0727
  353loPI   C2B 5646   2.644  17.244   9.263 -0.1360 -0.2074  0.0915
  353loPI   C3B 5647   2.614  17.262   8.885  0.1687  0.0990  0.1836
  353loPI   C4B 5648   2.582  17.338   8.387  0.1031 -0.0827 -0.1448
  354loPI    C1 5649   3.400  12.879  10.065  0.1003 -0.2153  0.1730
  354loPI    C2 5650   3.379  12.790  10.454 -0.0606  0.2275  0.2715
  354loPI    C3 5651   3.596  13.103  10.332 -0.1284  0.1787  0.0195
  354loPI   PO4 5652   3.205  12.637  10.001  0.0372  0.2920 -0.0408
  354loPI   GL1 5653   2.796  12.688   9.736  0.2528 -0.0116 -0.2650
  354loPI   GL2 5654   2.686  12.627   9.448  0.1003  0.2629 -0.0141
  354loPI   C1A 5655   2.347  12.888   9.589  0.1811 -0.1375 -0.1143
  354loPI   C2A 5656   1.996  13.004   9.193 -0.0852  0.0646 -0.0281
  354loPI   C3A 5657   1.921  12.966   8.836  0.0081 -0.0509 -0.1867
  354loPI   C4A 5658   1.981  12.922   8.373  0.0504  0.3029 -0.1311
  354loPI   C5A 5659   2.335  12.649   8.144  0.0870  0.1241  0.0648
  354loPI   C6A 5660   2.415  12.245   7.951  0.0443 -0.3288  0.1059
  354loPI   C1B 5661   2.450  12.323   9.234 -0.2523  0.1034  0.0008
  354loPI   C2B 5662   2.369  12.079   8.883  0.0246 -0.0791  0.0200
  354loPI   C3B 5663   2.464  11.860   8.494 -0.1216 -0.2161 -0.0217
  354loPI   C4B 5664   2.375  11.774   8.043  0.0271  0.0804  0.1597
  355loPI    C1 5665   1.560  14.260  10.576  0.2534 -0.1004  0.0280
  355loPI    C2 5666   1.909  14.184  10.755  0.3215  0.0812 -0.0265
  355loPI    C3 5667   1.651  14.440  10.921  0.1378 -0.1846  0.1031
  355loPI   PO4 5668   1.545  14.086  10.331 -0.0761  0.0702  0.2997
  355loPI   GL1 5669   1.475  14.143   9.933  0.1176  0.1394 -0.0550
  355loPI   GL2 5670   1.529  13.868   9.852 -0.0130 -0.2875  0.1039
  355loPI   C1A 5671   1.653  14.241   9.466  0.0300  0.0943  0.0108
  355loPI   C2A 5672   1.577  14.163   8.989  0.0348  0.0339 -0.2026
  355loPI   C3A 5673   1.675  14.245   8.614  0.2059  0.3308 -0.1016
  355loPI   C4A 5674   1.841  14.411   8.308  0.2752  0.3810 -0.0647
  355loPI   C5A 5675   2.303  14.596   8.079 -0.2352 -0.2604 -0.1723
  355loPI   C6A 5676   2.595  14.793   8.046  0.0916 -0.0165  0.3895
  355loPI   C1B 5677   1.394  13.760   9.426  0.1327  0.0130  0.1899
  355loPI   C2B 5678   1.346  13.692   8.972 -0.0609 -0.0552  0.2236
  355loPI   C3B 5679   1.339  13.614   8.539  0.3310  0.1052  0.0511
  355loPI   C4B 5680   1.527  13.418   8.133 -0.0376 -0.0391 -0.1629
  356loPI    C1 5681   2.816   2.725  10.261  0.1168 -0.1667 -0.1356
  356loPI    C2 5682   2.595   2.600  10.570 -0.0234  0.0288 -0.1549
  356loPI    C3 5683   2.936   2.799  10.636  0.1132 -0.2099 -0.1257
  356loPI   PO4 5684   2.622   2.935  10.180  0.1131  0.1370  0.1301
  356loPI   GL1 5685   2.475   2.825   9.810  0.0290  0.1380 -0.1986
  356loPI   GL2 5686   2.389   2.461   9.715 -0.0616  0.0889  0.0956
  356loPI   C1A 5687   2.469   2.855   9.375 -0.0241  0.0504 -0.0344
  356loPI   C2A 5688   2.422   3.000   8.981  0.1158  0.1357  0.0565
  356loPI   C3A 5689   2.594   2.913   8.582  0.1617  0.0396  0.0291
  356loPI   C4A 5690   2.635   2.813   8.169 -0.1375 -0.1249 -0.0580
  356loPI   C5A 5691   2.949   2.838   7.824  0.0953  0.2089  0.3782
  356loPI   C6A 5692   3.193   2.987   7.581  0.1958  0.4062 -0.0262
  356loPI   C1B 5693   2.170   2.405   9.247  0.2304  0.0646  0.1093
  356loPI   C2B 5694   2.034   2.346   8.801 -0.1488 -0.1497 -0.0334
  356loPI   C3B 5695   1.949   2.146   8.361  0.1205 -0.2395 -0.0887
  356loPI   C4B 5696   2.181   2.250   7.943  0.0147 -0.1033  0.0242
  357loPI    C1 5697   1.028  14.905  10.297  0.0911  0.3134 -0.0267
  357loPI    C2 5698   0.821  15.244  10.339 -0.2326  0.1086  0.0671
  357loPI    C3 5699   0.957  15.052  10.662  0.0032  0.1789  0.0111
  357loPI   PO4 5700   1.219  14.907  10.154  0.0836  0.0105  0.0935
  357loPI   GL1 5701   1.214  14.874   9.745 -0.0419 -0.0092  0.1458
  357loPI   GL2 5702   1.368  14.614   9.742  0.1309 -0.2563  0.0331
  357loPI   C1A 5703   1.052  14.931   9.324  0.0077  0.0402  0.2226
  357loPI   C2A 5704   0.931  15.016   8.915 -0.0541 -0.0080 -0.0544
  357loPI   C3A 5705   0.842  15.061   8.523 -0.4470  0.0293  0.1220
  357loPI   C4A 5706   0.928  14.842   8.141 -0.2073  0.2005 -0.0198
  357loPI   C5A 5707   1.319  14.832   7.887 -0.0715 -0.0466  0.0950
  357loPI   C6A 5708   1.691  14.548   7.829  0.1803  0.2039  0.2483
  357loPI   C1B 5709   1.357  14.575   9.279  0.1356  0.0268 -0.4689
  357loPI   C2B 5710   1.453  14.620   8.884 -0.1604 -0.1831 -0.1043
  357loPI   C3B 5711   1.719  14.738   8.700 -0.1192 -0.4866  0.1571
  357loPI   C4B 5712   1.973  15.229   8.725  0.1890 -0.1498  0.2370
  358loPI    C1 5713   9.982   5.183  10.501  0.0053 -0.2856 -0.0126
  358loPI    C2 5714  10.048   4.996  10.848  0.2477 -0.1711  0.0051
  358loPI    C3 5715   9.706   5.196  10.791  0.2518 -0.1010  0.2183
  358loPI   PO4 5716  10.047   4.990  10.306 -0.0241 -0.3366 -0.0210
  358loPI   GL1 5717   9.906   4.779  10.056  0.0020  0.2228 -0.0474
  358loPI   GL2 5718   9.629   4.558  10.183  0.2269  0.0822  0.1263
  358loPI   C1A 5719  10.083   4.781   9.679 -0.0206  0.1507 -0.1476
  358loPI   C2A 5720  10.121   4.677   9.181 -0.0277 -0.1288 -0.4377
  358loPI   C3A 5721  10.057   4.647   8.709 -0.0952 -0.2529 -0.0384
  358loPI   C4A 5722  10.155   4.634   8.271 -0.1614  0.0872 -0.2323
  358loPI   C5A 5723   9.961   4.379   7.916 -0.0029  0.1589  0.0696
  358loPI   C6A 5724   9.678   4.072   8.009 -0.3064 -0.2117 -0.1150
  358loPI   C1B 5725   9.687   4.437   9.768  0.0680  0.0376  0.0302
  358loPI   C2B 5726   9.734   4.435   9.296  0.3338  0.3125  0.0086
  358loPI   C3B 5727   9.690   4.287   8.937 -0.1873 -0.0293  0.0008
  358loPI   C4B 5728   9.752   4.347   8.417 -0.1978  0.1085  0.0030
  359loPI    C1 5729  14.240  13.582  10.141 -0.0799 -0.2707  0.2597
  359loPI    C2 5730  14.302  13.260   9.912 -0.0231 -0.0150 -0.0929
  359loPI    C3 5731  13.967  13.290  10.129  0.0603 -0.3971  0.0971
  359loPI   PO4 5732  14.286  13.737   9.977  0.3438 -0.0746  0.2280
  359loPI   GL1 5733  14.496  13.773   9.544  0.1445  0.1391 -0.0637
  359loPI   GL2 5734  14.613  13.520   9.667 -0.2070 -0.1082  0.0861
  359loPI   C1A 5735  14.371  13.655   9.142  0.1035 -0.0086  0.0784
  359loPI   C2A 5736  14.412  13.634   8.684  0.4745 -0.0438  0.1808
  359loPI   C3A 5737  14.494  13.701   8.295 -0.1670 -0.1308 -0.2090
  359loPI   C4A 5738  14.649  13.611   7.869  0.0723 -0.0773  0.0288
  359loPI   C5A 5739  15.014  13.466   7.696  0.1043  0.0702 -0.0248
  359loPI   C6A 5740  15.449  13.508   7.875 -0.1325  0.1141  0.0158
  359loPI   C1B 5741  14.541  13.180   9.487 -0.1961 -0.2707 -0.0946
  359loPI   C2B 5742  14.542  13.235   8.968 -0.0773 -0.0263  0.2099
  359loPI   C3B 5743  14.572  13.030   8.543  0.1644  0.0220  0.1526
  359loPI   C4B 5744  14.607  12.778   8.303 -0.1368  0.0109 -0.2139
  360loPI    C1 5745   8.337   0.042  10.672  0.0647  0.0597  0.0795
  360loPI    C2 5746   8.458   0.401  10.801 -0.1963  0.0909  0.2431
  360loPI    C3 5747   8.453   0.090  11.052 -0.1801  0.0234  0.1601
  360loPI   PO4 5748   8.287   0.137  10.415  0.1273 -0.1425  0.2984
  360loPI   GL1 5749   8.232   0.250  10.062 -0.2265  0.1329 -0.0974
  360loPI   GL2 5750   8.391   0.048   9.925  0.2833 -0.0180  0.0557
  360loPI   C1A 5751   8.008   0.276   9.697 -0.2711  0.0661 -0.0182
  360loPI   C2A 5752   8.182   0.139   9.267 -0.0253  0.2486  0.1559
  360loPI   C3A 5753   8.232   0.089   8.791  0.1758 -0.0690 -0.0451
  360loPI   C4A 5754   8.185  -0.130   8.430 -0.0228  0.1160 -0.1402
  360loPI   C5A 5755   8.276   0.020   8.029 -0.2448 -0.2721  0.1170
  360loPI   C6A 5756   8.673   0.078   7.813 -0.0702  0.2783 -0.2957
  360loPI   C1B 5757   8.558  -0.054   9.524  0.0479  0.1922 -0.2548
  360loPI   C2B 5758   8.587  -0.080   9.070 -0.2661  0.1035 -0.2397
  360loPI   C3B 5759   8.429  -0.377   8.757  0.1602  0.0377 -0.1177
  360loPI   C4B 5760   8.339  -0.545   8.261  0.1400  0.0469  0.2028
  361loPI    C1 5761  13.049  10.336  10.372 -0.1741 -0.0274  0.1752
  361loPI    C2 5762  12.880  10.363  10.733 -0.2488 -0.1437  0.1492
  361loPI    C3 5763  12.775  10.068  10.484 -0.1166 -0.1289  0.0748
  361loPI   PO4 5764  12.963  10.447  10.186 -0.1525 -0.0090 -0.2271
  361loPI   GL1 5765  13.048  10.491   9.786 -0.0009  0.0078  0.1617
  361loPI   GL2 5766  12.799  10.566   9.631  0.2795  0.0394 -0.2449
  361loPI   C1A 5767  13.361  10.612   9.448  0.1335 -0.3538  0.2476
  361loPI   C2A 5768  13.566  10.651   9.032  0.1483  0.1220 -0.2964
  361loPI   C3A 5769  13.496  10.676   8.612 -0.1767 -0.1909  0.2558
  361loPI   C4A 5770  13.331  10.543   8.116  0.3376 -0.0849 -0.1186
  361loPI   C5A 5771  13.498  10.307   7.779  0.0424  0.2305  0.1330
  361loPI   C6A 5772  13.830   9.936   7.609  0.2105 -0.1312  0.0285
  361loPI   C1B 5773  12.860  10.331   9.300  0.2006 -0.2200 -0.0715
  361loPI   C2B 5774  13.020  10.432   8.960  0.4937  0.1063 -0.1319
  361loPI   C3B 5775  13.009  10.711   8.579 -0.1180 -0.0928  0.0943
  361loPI   C4B 5776  12.854  10.809   8.226 -0.0457  0.1858 -0.2811
  362loPI    C1 5777   9.439  16.961  10.431  0.2672  0.1341 -0.0887
  362loPI    C2 5778   9.503  16.751  10.765  0.0020  0.1724 -0.0114
  362loPI    C3 5779   9.448  17.147  10.785 -0.0492  0.1697 -0.0961
  362loPI   PO4 5780   9.279  16.765  10.237 -0.1192 -0.0848  0.0215
  362loPI   GL1 5781   9.194  16.803   9.865  0.0168  0.1102  0.0868
  362loPI   GL2 5782   9.582  16.604   9.841  0.2019  0.0984  0.2973
  362loPI   C1A 5783   9.365  16.746   9.420 -0.1313 -0.2452  0.2170
  362loPI   C2A 5784   9.297  16.638   9.072  0.0248 -0.0318  0.0481
  362loPI   C3A 5785   9.260  16.467   8.681 -0.0373 -0.2639  0.1710
  362loPI   C4A 5786   9.241  16.243   8.260 -0.1833  0.1408 -0.3130
  362loPI   C5A 5787   9.462  16.152   7.872 -0.1169 -0.2225 -0.0010
  362loPI   C6A 5788   9.783  15.930   7.539  0.0176 -0.0391  0.1885
  362loPI   C1B 5789   9.622  16.274   9.556 -0.0564 -0.1934  0.0991
  362loPI   C2B 5790   9.612  16.190   9.077 -0.1802  0.0140 -0.1301
  362loPI   C3B 5791   9.582  16.041   8.629  0.2388 -0.2554 -0.1347
  362loPI   C4B 5792   9.634  15.807   8.259 -0.0031 -0.2475 -0.1598
  363loPI    C1 5793   9.603   9.550   9.911  0.2025 -0.0756  0.0800
  363loPI    C2 5794   9.757   9.523  10.279  0.0523 -0.0011  0.1496
  363loPI    C3 5795   9.378   9.414  10.213  0.1133 -0.1227 -0.0071
  363loPI   PO4 5796   9.674   9.729   9.831  0.1171  0.0136 -0.2382
  363loPI   GL1 5797   9.975   9.822   9.582  0.0431 -0.0390 -0.1106
  363loPI   GL2 5798  10.331   9.986   9.574  0.0818 -0.0867 -0.1977
  363loPI   C1A 5799  10.026   9.971   9.178 -0.3923  0.2082  0.0987
  363loPI   C2A 5800   9.922  10.099   8.838 -0.0221 -0.1504 -0.3058
  363loPI   C3A 5801   9.823   9.966   8.420 -0.0921  0.0460  0.1732
  363loPI   C4A 5802   9.812   9.833   8.049  0.4019 -0.1394 -0.1040
  363loPI   C5A 5803   9.552   9.907   7.778  0.1079 -0.4076  0.1076
  363loPI   C6A 5804   9.354  10.146   7.516 -0.1087 -0.0315 -0.3828
  363loPI   C1B 5805  10.496  10.067   9.109  0.0808  0.2196 -0.1374
  363loPI   C2B 5806  10.429  10.187   8.636  0.1544 -0.1289 -0.0441
  363loPI   C3B 5807  10.774  10.423   8.484  0.1319 -0.0132 -0.0474
  363loPI   C4B 5808  10.935  10.640   8.268 -0.0698 -0.4119  0.0805
  364loPI    C1 5809   9.649  15.833  10.312  0.0642  0.0319  0.0986
  364loPI    C2 5810   9.591  15.596  10.629  0.1482 -0.0588  0.0466
  364loPI    C3 5811   9.317  15.871  10.533  0.0751 -0.0985  0.1386
  364loPI   PO4 5812   9.635  15.711  10.109 -0.0147 -0.0175 -0.2659
  364loPI   GL1 5813   9.766  15.817   9.693  0.0938  0.1170 -0.3295
  364loPI   GL2 5814  10.057  16.112   9.624 -0.1236  0.3614 -0.1508
  364loPI   C1A 5815   9.492  15.824   9.327 -0.3035  0.3413 -0.0673
  364loPI   C2A 5816   9.385  15.650   8.883 -0.1222 -0.0592 -0.1776
  364loPI   C3A 5817   9.073  15.591   8.593 -0.1202  0.0356 -0.0414
  364loPI   C4A 5818   9.096  15.777   8.212  0.1271  0.0927 -0.0349
  364loPI   C5A 5819   9.097  15.768   7.749 -0.2840  0.2418 -0.0786
  364loPI   C6A 5820   9.219  15.683   7.447 -0.2727 -0.1227  0.1170
  364loPI   C1B 5821  10.046  15.813   9.305 -0.2284  0.1667 -0.1717
  364loPI   C2B 5822  10.024  15.786   8.909 -0.0673  0.0295  0.1871
  364loPI   C3B 5823  10.125  15.726   8.440  0.1544 -0.1426 -0.2135
  364loPI   C4B 5824  10.014  15.984   8.030 -0.0177  0.0338 -0.1459
  365loPI    C1 5825   1.001   3.012  10.606  0.0986  0.1491 -0.1420
  365loPI    C2 5826   0.974   3.203  10.957 -0.0441 -0.0167 -0.0611
  365loPI    C3 5827   1.241   2.908  10.909 -0.0030  0.0270 -0.1024
  365loPI   PO4 5828   0.745   2.916  10.560 -0.0468 -0.2336 -0.1723
  365loPI   GL1 5829   0.663   2.681  10.236  0.2629 -0.0873 -0.2301
  365loPI   GL2 5830   0.692   2.296  10.266  0.3149 -0.0319 -0.3229
  365loPI   C1A 5831   0.691   2.691   9.903  0.1133  0.3063 -0.0544
  365loPI   C2A 5832   0.504   2.695   9.558 -0.0898  0.0450  0.0632
  365loPI   C3A 5833   0.597   2.786   9.228 -0.1193  0.2814  0.1111
  365loPI   C4A 5834   0.556   2.787   8.730  0.1691 -0.1950  0.0754
  365loPI   C5A 5835   0.682   2.646   8.356  0.2247  0.1643 -0.0475
  365loPI   C6A 5836   0.470   2.517   8.041  0.0835 -0.3814  0.1796
  365loPI   C1B 5837   0.589   2.232   9.792 -0.1064 -0.1246 -0.1043
  365loPI   C2B 5838   0.495   2.236   9.371  0.1621  0.0285 -0.0859
  365loPI   C3B 5839   0.514   2.327   8.872 -0.0606 -0.0620 -0.0470
  365loPI   C4B 5840   0.614   2.081   8.520  0.0915 -0.1452  0.0142
  366loPI    C1 5841  10.840  11.491  10.252  0.1294  0.0616  0.0348
  366loPI    C2 5842  10.841  11.095  10.197  0.2064  0.0584  0.0581
  366loPI    C3 5843  10.570  11.262  10.439  0.1120  0.0308 -0.0278
  366loPI   PO4 5844  11.001  11.627  10.328  0.0710  0.0118  0.0376
  366loPI   GL1 5845  11.248  11.775   9.958  0.0498  0.2151  0.1400
  366loPI   GL2 5846  10.905  11.770   9.815 -0.0184  0.1596  0.0322
  366loPI   C1A 5847  11.343  11.663   9.596  0.1822  0.1758  0.0152
  366loPI   C2A 5848  11.320  11.773   9.163 -0.3132  0.0127 -0.4602
  366loPI   C3A 5849  11.340  11.688   8.803  0.0793 -0.0010  0.3907
  366loPI   C4A 5850  11.233  11.691   8.404 -0.2137  0.1163 -0.1686
  366loPI   C5A 5851  11.290  11.553   7.980 -0.0460  0.1691  0.3601
  366loPI   C6A 5852  11.459  11.326   7.703  0.0544 -0.4934 -0.0578
  366loPI   C1B 5853  10.867  11.464   9.473 -0.2723 -0.0915  0.1781
  366loPI   C2B 5854  10.799  11.520   9.110  0.3242 -0.2097  0.1466
  366loPI   C3B 5855  10.951  11.411   8.657  0.1417 -0.1158 -0.1943
  366loPI   C4B 5856  10.932  11.284   8.291  0.0027  0.0462  0.1977
  367loPI    C1 5857   0.920   2.467  10.853  0.0471 -0.1547  0.0540
  367loPI    C2 5858   1.055   2.519  11.227  0.0715  0.1539  0.0053
  367loPI    C3 5859   1.098   2.165  11.045  0.2587  0.0672  0.2144
  367loPI   PO4 5860   1.107   2.548  10.528  0.3719 -0.0032  0.0947
  367loPI   GL1 5861   1.145   2.798  10.141 -0.0258  0.2468 -0.0584
  367loPI   GL2 5862   1.161   2.962   9.783 -0.0125  0.0010  0.1251
  367loPI   C1A 5863   1.116   2.325   9.945  0.0628  0.2421  0.1056
  367loPI   C2A 5864   1.004   2.477   9.550  0.1297 -0.0042 -0.3958
  367loPI   C3A 5865   0.964   2.463   9.157  0.3464 -0.0598 -0.2556
  367loPI   C4A 5866   0.984   2.354   8.701 -0.0376  0.0252  0.0524
  367loPI   C5A 5867   1.031   2.258   8.182 -0.1221  0.0257 -0.0678
  367loPI   C6A 5868   0.726   2.094   7.925  0.0117  0.3148  0.0524
  367loPI   C1B 5869   1.057   2.959   9.388  0.2748 -0.0750  0.2069
  367loPI   C2B 5870   1.006   2.958   9.012 -0.1306  0.0526 -0.0298
  367loPI   C3B 5871   1.018   2.963   8.551 -0.0316 -0.1170  0.0701
  367loPI   C4B 5872   1.183   2.789   8.154  0.0255  0.2126 -0.3482
  368loPI    C1 5873  14.464   8.459  10.356 -0.1376  0.1568  0.0228
  368loPI    C2 5874  14.817   8.580  10.501 -0.0735 -0.0147  0.0116
  368loPI    C3 5875  14.675   8.738  10.162 -0.0186  0.0719  0.0288
  368loPI   PO4 5876  14.538   8.157  10.376 -0.0413 -0.0240 -0.1896
  368loPI   GL1 5877  14.534   7.823  10.025 -0.1520  0.2667 -0.1625
  368loPI   GL2 5878  14.297   8.065   9.954  0.0563 -0.0414 -0.0631
  368loPI   C1A 5879  14.757   7.669   9.641 -0.0719 -0.0555 -0.0702
  368loPI   C2A 5880  14.768   7.693   9.171 -0.0552  0.0659  0.1889
  368loPI   C3A 5881  14.854   7.717   8.659 -0.2659  0.0551  0.4193
  368loPI   C4A 5882  14.618   7.699   8.243 -0.3784 -0.4083  0.0324
  368loPI   C5A 5883  14.196   8.003   8.172 -0.5435  0.3542  0.1041
  368loPI   C6A 5884  13.981   8.332   7.934  0.0549  0.0108  0.1406
  368loPI   C1B 5885  14.334   8.020   9.468 -0.0092  0.1032 -0.2302
  368loPI   C2B 5886  14.418   8.059   9.018  0.3671 -0.3120 -0.0128
  368loPI   C3B 5887  14.442   7.995   8.629  0.0677 -0.2401  0.3138
  368loPI   C4B 5888  14.412   8.432   8.487  0.3931  0.0056  0.0085
  369loPI    C1 5889  12.134  10.183  10.439 -0.4219  0.0255 -0.0266
  369loPI    C2 5890  12.353  10.223  10.771 -0.1433 -0.0170 -0.2025
  369loPI    C3 5891  11.960  10.294  10.782 -0.0854  0.2847  0.0656
  369loPI   PO4 5892  12.165  10.287  10.279 -0.0037  0.3140 -0.0352
  369loPI   GL1 5893  12.539  10.173   9.982 -0.0744  0.1113 -0.0238
  369loPI   GL2 5894  12.758  10.098   9.831 -0.0095  0.0282  0.1658
  369loPI   C1A 5895  12.384  10.267   9.473 -0.1234 -0.0905 -0.0926
  369loPI   C2A 5896  12.386  10.228   9.049 -0.1117 -0.1081 -0.0519
  369loPI   C3A 5897  12.137  10.045   8.733 -0.0838 -0.0112 -0.1493
  369loPI   C4A 5898  11.832   9.857   8.485  0.1482 -0.0878 -0.0918
  369loPI   C5A 5899  11.404   9.877   8.211 -0.2865 -0.2396 -0.0907
  369loPI   C6A 5900  11.194   9.812   7.822 -0.0029 -0.3112  0.0929
  369loPI   C1B 5901  12.784   9.822   9.465  0.0492  0.0607  0.2165
  369loPI   C2B 5902  12.601   9.763   9.012 -0.0649  0.0440 -0.0930
  369loPI   C3B 5903  12.688   9.737   8.617  0.1463 -0.2386 -0.1613
  369loPI   C4B 5904  12.660   9.589   8.205 -0.2401  0.2098 -0.2162
  370loPI    C1 5905   2.957   7.535  10.357  0.1812 -0.0154 -0.0914
  370loPI    C2 5906   3.056   7.909  10.457  0.1576 -0.0751  0.1624
  370loPI    C3 5907   2.817   7.695  10.696 -0.0003 -0.1814 -0.0860
  370loPI   PO4 5908   3.004   7.614  10.062  0.0004  0.0625  0.2115
  370loPI   GL1 5909   2.987   7.949   9.632 -0.0810  0.0003 -0.1001
  370loPI   GL2 5910   3.132   7.567   9.593  0.1893  0.1179  0.0095
  370loPI   C1A 5911   2.838   8.261   9.499  0.0284 -0.0216  0.1664
  370loPI   C2A 5912   2.732   8.471   9.087  0.0941  0.2026  0.6252
  370loPI   C3A 5913   2.704   8.433   8.623  0.0756  0.1358  0.1092
  370loPI   C4A 5914   2.805   8.179   8.276 -0.0832  0.0789 -0.2312
  370loPI   C5A 5915   2.790   8.018   7.740  0.0433 -0.1307 -0.3593
  370loPI   C6A 5916   2.818   7.661   7.504 -0.0635  0.2247 -0.1729
  370loPI   C1B 5917   2.993   7.245   9.214  0.2166  0.3519 -0.1891
  370loPI   C2B 5918   3.109   6.977   8.791  0.3352  0.2158  0.2120
  370loPI   C3B 5919   3.442   6.802   8.528  0.0396  0.0488  0.0758
  370loPI   C4B 5920   3.849   6.748   8.355 -0.3363  0.0474  0.0649
  371loPI    C1 5921  12.789  14.808  10.011 -0.2359  0.1487  0.0100
  371loPI    C2 5922  13.080  14.547  10.097  0.0387  0.3803 -0.1937
  371loPI    C3 5923  12.718  14.415   9.989  0.1080  0.0883 -0.0792
  371loPI   PO4 5924  13.004  15.017   9.951 -0.1311  0.1840  0.0651
  371loPI   GL1 5925  13.090  15.009   9.511  0.0972 -0.0023  0.0894
  371loPI   GL2 5926  13.191  15.385   9.604  0.0023  0.0472  0.0343
  371loPI   C1A 5927  12.947  14.811   9.180 -0.1479  0.0252 -0.2059
  371loPI   C2A 5928  12.865  14.689   8.806 -0.2377 -0.0350 -0.2098
  371loPI   C3A 5929  12.762  14.619   8.536 -0.0329 -0.3058 -0.0742
  371loPI   C4A 5930  13.049  14.859   8.229 -0.3294 -0.2911 -0.1338
  371loPI   C5A 5931  13.343  15.261   8.160  0.1664  0.2843 -0.1045
  371loPI   C6A 5932  13.498  15.636   8.099 -0.0870  0.0962 -0.0801
  371loPI   C1B 5933  13.227  15.434   9.158  0.0991 -0.0563 -0.2071
  371loPI   C2B 5934  12.963  15.575   8.900 -0.0126  0.1086  0.4796
  371loPI   C3B 5935  12.971  15.585   8.401 -0.0822  0.0075 -0.0508
  371loPI   C4B 5936  12.783  15.665   7.938  0.4545  0.0972  0.0937
  372loPI    C1 5937   3.415   0.454  10.779  0.0800  0.1162  0.0829
  372loPI    C2 5938   3.246   0.700  11.045 -0.2840  0.0245 -0.0573
  372loPI    C3 5939   3.282   0.310  11.128  0.0499  0.0763  0.0552
  372loPI   PO4 5940   3.311   0.410  10.560 -0.0348  0.0542  0.1279
  372loPI   GL1 5941   3.303   0.193  10.108 -0.1103 -0.2646 -0.2092
  372loPI   GL2 5942   3.360   0.513   9.995 -0.1491 -0.1728  0.0682
  372loPI   C1A 5943   3.551   0.177   9.633  0.2475  0.1096 -0.1490
  372loPI   C2A 5944   3.564   0.205   9.253 -0.1497 -0.1641 -0.0608
  372loPI   C3A 5945   3.431   0.063   8.803  0.1265 -0.3017  0.0143
  372loPI   C4A 5946   3.645  -0.093   8.420 -0.1780  0.0721  0.1151
  372loPI   C5A 5947   3.703  -0.151   7.992  0.0511 -0.1091  0.2033
  372loPI   C6A 5948   3.565  -0.272   7.605 -0.1359 -0.0460 -0.1950
  372loPI   C1B 5949   3.634   0.727   9.746 -0.0219  0.2034  0.0008
  372loPI   C2B 5950   3.820   0.713   9.231 -0.1033  0.1620 -0.2972
  372loPI   C3B 5951   4.223   0.676   8.893 -0.0998 -0.2318  0.1373
  372loPI   C4B 5952   4.278   0.691   8.430 -0.0401 -0.0825  0.2814
  373loPI    C1 5953   4.233  12.158  10.572  0.1446 -0.1031  0.0646
  373loPI    C2 5954   4.045  12.162  10.925  0.0410 -0.0121  0.0090
  373loPI    C3 5955   4.328  12.433  10.848  0.0329 -0.0045  0.0059
  373loPI   PO4 5956   3.891  12.146  10.385 -0.0037 -0.1284  0.3604
  373loPI   GL1 5957   3.807  12.032   9.994  0.1759 -0.0126 -0.0608
  373loPI   GL2 5958   3.844  11.647   9.889 -0.2039 -0.1915 -0.1069
  373loPI   C1A 5959   3.637  11.926   9.544 -0.1890 -0.1233 -0.2148
  373loPI   C2A 5960   3.557  11.886   9.034  0.0289 -0.2342 -0.0083
  373loPI   C3A 5961   3.455  11.900   8.665 -0.2470  0.0744  0.0965
  373loPI   C4A 5962   3.390  11.737   8.389 -0.1331  0.2500  0.0052
  373loPI   C5A 5963   3.432  11.557   8.039 -0.1429  0.1474 -0.0417
  373loPI   C6A 5964   3.395  11.048   7.934  0.0146  0.0895 -0.1187
  373loPI   C1B 5965   4.087  11.822   9.556 -0.1997  0.1696 -0.2231
  373loPI   C2B 5966   4.038  11.630   9.090  0.1246 -0.1962 -0.0405
  373loPI   C3B 5967   4.251  11.534   8.730  0.2471  0.0616 -0.0408
  373loPI   C4B 5968   4.325  11.476   8.258 -0.0993  0.0009 -0.1458
  374loPI    C1 5969   0.682  15.694  10.243 -0.0705 -0.1805  0.0090
  374loPI    C2 5970   0.499  16.041  10.319  0.0752 -0.1586  0.2737
  374loPI    C3 5971   0.365  15.804  10.025 -0.0692  0.0861  0.1387
  374loPI   PO4 5972   0.895  15.769  10.179  0.0894 -0.0800 -0.2052
  374loPI   GL1 5973   1.183  15.875   9.985 -0.2059  0.2248  0.1338
  374loPI   GL2 5974   1.254  16.253   9.841 -0.0093 -0.0836 -0.1987
  374loPI   C1A 5975   1.158  15.899   9.530 -0.2399 -0.1077  0.0562
  374loPI   C2A 5976   0.987  15.975   9.145  0.1461 -0.0272  0.1529
  374loPI   C3A 5977   0.867  15.939   8.758  0.2994 -0.1615 -0.0192
  374loPI   C4A 5978   0.840  15.914   8.384 -0.1559 -0.2576  0.1678
  374loPI   C5A 5979   0.539  16.034   8.002  0.0026 -0.2587  0.3021
  374loPI   C6A 5980   0.682  15.821   7.604 -0.0708 -0.1820  0.0241
  374loPI   C1B 5981   0.910  16.465   9.549  0.3710  0.0236 -0.3018
  374loPI   C2B 5982   0.751  16.475   9.060  0.1637  0.1901 -0.0399
  374loPI   C3B 5983   0.787  16.436   8.570  0.1554 -0.0475 -0.1765
  374loPI   C4B 5984   0.882  16.356   8.151 -0.4186  0.3723 -0.2330
  375loPI    C1 5985  13.126  10.807  10.558  0.1332  0.3362 -0.1962
  375loPI    C2 5986  13.059  11.104  10.816 -0.2505  0.1892 -0.1195
  375loPI    C3 5987  12.776  10.830  10.749  0.0526 -0.0920 -0.2807
  375loPI   PO4 5988  13.189  10.873  10.385  0.1036 -0.2886 -0.2002
  375loPI   GL1 5989  13.313  10.746  10.042  0.1277 -0.2060  0.0837
  375loPI   GL2 5990  13.386  10.994   9.917  0.0717  0.0316 -0.1872
  375loPI   C1A 5991  13.754  10.757   9.856  0.0218 -0.0320 -0.0620
  375loPI   C2A 5992  13.823  10.941   9.397  0.0884 -0.1041  0.0173
  375loPI   C3A 5993  13.897  11.137   9.116 -0.0491  0.2091  0.2484
  375loPI   C4A 5994  13.888  10.974   8.738  0.1809 -0.0379 -0.1011
  375loPI   C5A 5995  13.779  10.900   8.284  0.2246  0.0438  0.1685
  375loPI   C6A 5996  13.677  10.739   7.793 -0.1951  0.1395  0.3886
  375loPI   C1B 5997  13.089  11.011   9.656  0.0081 -0.1801 -0.1286
  375loPI   C2B 5998  12.869  10.890   9.287 -0.1710  0.1012 -0.2936
  375loPI   C3B 5999  12.597  10.694   8.951  0.1405  0.1135  0.3196
  375loPI   C4B 6000  12.667  10.278   8.675  0.3200 -0.1119 -0.2716
  376loPI    C1 6001  10.174  15.817  10.080 -0.0668 -0.0413 -0.1098
  376loPI    C2 6002  10.142  15.549   9.784  0.0585 -0.0369 -0.1281
  376loPI    C3 6003  10.343  15.456  10.117 -0.0538 -0.0299 -0.0579
  376loPI   PO4 6004  10.304  16.012  10.038 -0.0680 -0.2507  0.3485
  376loPI   GL1 6005  10.562  16.040   9.707 -0.0367 -0.0514 -0.0412
  376loPI   GL2 6006  10.597  15.733   9.759 -0.1609  0.1274 -0.1250
  376loPI   C1A 6007  10.527  16.186   9.348 -0.0408  0.3465  0.0599
  376loPI   C2A 6008  10.298  16.218   8.946 -0.0966 -0.1832  0.0786
  376loPI   C3A 6009  10.097  16.192   8.576  0.1486 -0.1964 -0.2615
  376loPI   C4A 6010   9.812  16.381   8.274 -0.0199 -0.1363 -0.0987
  376loPI   C5A 6011   9.913  16.483   7.832 -0.2306  0.0502  0.0424
  376loPI   C6A 6012   9.733  16.537   7.421  0.0453  0.3287  0.3011
  376loPI   C1B 6013  10.510  15.611   9.403  0.5218 -0.0638  0.0412
  376loPI   C2B 6014  10.447  15.529   8.881  0.1269 -0.0739 -0.0044
  376loPI   C3B 6015  10.420  15.291   8.413 -0.1492  0.0699 -0.2906
  376loPI   C4B 6016  10.660  15.138   8.214 -0.2341 -0.1923 -0.0419
  377loPI    C1 6017   1.865  12.870  10.582 -0.2669 -0.2678 -0.0506
  377loPI    C2 6018   2.098  12.552  10.652  0.3373  0.1500 -0.0814
  377loPI    C3 6019   2.050  12.832  10.934 -0.1403  0.0709 -0.0760
  377loPI   PO4 6020   2.018  13.015  10.340 -0.0445  0.2605  0.0809
  377loPI   GL1 6021   2.208  13.336   9.967 -0.0900 -0.2506 -0.0292
  377loPI   GL2 6022   2.456  13.363   9.871  0.0395  0.1275 -0.0865
  377loPI   C1A 6023   1.921  13.552   9.682  0.0104  0.1279 -0.2189
  377loPI   C2A 6024   1.857  13.537   9.249 -0.2202  0.1979  0.2765
  377loPI   C3A 6025   1.837  13.743   8.832 -0.0468  0.1304  0.1558
  377loPI   C4A 6026   1.890  13.415   8.565  0.2605 -0.0909 -0.1882
  377loPI   C5A 6027   2.071  13.378   8.189 -0.2260  0.0228  0.0303
  377loPI   C6A 6028   2.408  13.448   7.869 -0.0481 -0.0608  0.2045
  377loPI   C1B 6029   2.293  13.389   9.460  0.1251 -0.1348  0.1299
  377loPI   C2B 6030   2.278  13.351   8.996 -0.0972 -0.1679 -0.0033
  377loPI   C3B 6031   2.354  13.141   8.598  0.0485 -0.0317  0.0627
  377loPI   C4B 6032   2.656  12.870   8.389 -0.1812 -0.3246 -0.0901
  378loPI    C1 6033   3.798   2.084  10.602 -0.1851  0.2007 -0.2316
  378loPI    C2 6034   3.512   2.129  10.878 -0.0568  0.1284 -0.0848
  378loPI    C3 6035   3.584   1.768  10.722  0.1862  0.0801  0.1341
  378loPI   PO4 6036   3.725   2.278  10.359 -0.0933 -0.0331  0.1945
  378loPI   GL1 6037   3.620   2.317   9.957 -0.0812  0.1245 -0.1622
  378loPI   GL2 6038   3.358   2.521   9.934 -0.2612  0.0307 -0.2726
  378loPI   C1A 6039   3.925   2.406   9.607  0.0825  0.2346 -0.3616
  378loPI   C2A 6040   3.895   2.319   9.281  0.0462 -0.2428 -0.0243
  378loPI   C3A 6041   3.896   2.187   8.785  0.1404 -0.2616  0.2131
  378loPI   C4A 6042   3.782   2.151   8.475  0.0501  0.3806  0.0207
  378loPI   C5A 6043   3.693   2.139   7.915 -0.3026 -0.2866 -0.0632
  378loPI   C6A 6044   3.833   2.007   7.599  0.0566 -0.2091  0.2382
  378loPI   C1B 6045   3.372   2.438   9.518  0.1778 -0.0443 -0.0360
  378loPI   C2B 6046   3.246   2.572   9.058  0.1154  0.0398 -0.1162
  378loPI   C3B 6047   3.094   2.725   8.701 -0.1527 -0.2862 -0.0931
  378loPI   C4B 6048   3.105   2.865   8.302 -0.2558  0.3442  0.2199
  379loPI    C1 6049  10.726   4.833  10.746  0.1118  0.1018  0.1541
  379loPI    C2 6050  10.811   4.535  11.000  0.1425  0.0030  0.0292
  379loPI    C3 6051  10.457   4.720  11.020  0.0972 -0.0869  0.0641
  379loPI   PO4 6052  10.920   4.667  10.529 -0.2062  0.3414 -0.0620
  379loPI   GL1 6053  10.971   4.412  10.147  0.2059 -0.0372  0.0935
  379loPI   GL2 6054  11.190   4.697  10.108 -0.1093 -0.1710 -0.2325
  379loPI   C1A 6055  11.122   4.385   9.714  0.2693  0.2421  0.1142
  379loPI   C2A 6056  11.120   4.308   9.286  0.1352  0.0892 -0.0031
  379loPI   C3A 6057  10.997   4.257   8.841 -0.4463 -0.1088  0.0019
  379loPI   C4A 6058  11.085   4.259   8.332 -0.0185 -0.0036 -0.0507
  379loPI   C5A 6059  11.001   4.093   7.976  0.4042 -0.3125  0.1085
  379loPI   C6A 6060  11.004   4.141   7.534  0.0290  0.1260 -0.2630
  379loPI   C1B 6061  11.086   4.864   9.600 -0.1568 -0.0560 -0.1285
  379loPI   C2B 6062  11.138   4.825   9.185  0.2384  0.1963  0.2100
  379loPI   C3B 6063  10.978   4.798   8.754  0.0412 -0.0403  0.2276
  379loPI   C4B 6064  10.842   4.879   8.332  0.3813  0.1435  0.1445
  380loPI    C1 6065   9.491   6.365  10.282  0.0788  0.0531  0.1456
  380loPI    C2 6066   9.460   5.973  10.209  0.0249  0.1010 -0.0971
  380loPI    C3 6067   9.686   6.103  10.513  0.1236 -0.1125 -0.0776
  380loPI   PO4 6068   9.559   6.486  10.119 -0.4382  0.3654 -0.0409
  380loPI   GL1 6069   9.316   6.623   9.741 -0.2572  0.1685 -0.2208
  380loPI   GL2 6070   9.390   6.235   9.691 -0.0733 -0.0673 -0.1203
  380loPI   C1A 6071   9.594   6.651   9.451  0.0504  0.1679  0.1544
  380loPI   C2A 6072   9.919   6.611   9.047 -0.1329  0.1109  0.3501
  380loPI   C3A 6073  10.086   6.662   8.618 -0.0352  0.0794  0.1328
  380loPI   C4A 6074  10.270   6.524   8.212  0.1027 -0.1812  0.1835
  380loPI   C5A 6075  10.422   6.640   7.827 -0.0622 -0.0792  0.0889
  380loPI   C6A 6076  10.648   7.032   7.678 -0.0326  0.1407 -0.0048
  380loPI   C1B 6077   9.564   6.178   9.296  0.1623  0.0161  0.1308
  380loPI   C2B 6078   9.651   6.204   8.827 -0.0818  0.0078  0.2194
  380loPI   C3B 6079   9.753   6.246   8.301  0.1127 -0.0901 -0.0326
  380loPI   C4B 6080  10.049   6.101   7.947  0.0680 -0.0110 -0.0167
  381loPI    C1 6081   8.819   3.439  10.753 -0.0636  0.2804 -0.1651
  381loPI    C2 6082   8.775   3.579  11.125  0.0041  0.0039 -0.0503
  381loPI    C3 6083   8.624   3.222  11.027  0.1071  0.0143 -0.2503
  381loPI   PO4 6084   8.684   3.627  10.616 -0.0604 -0.3254 -0.3063
  381loPI   GL1 6085   8.610   3.855  10.211 -0.1621  0.0780 -0.0798
  381loPI   GL2 6086   8.840   3.932   9.974 -0.0065  0.0815 -0.1883
  381loPI   C1A 6087   8.533   3.533   9.836  0.0247 -0.1399  0.2175
  381loPI   C2A 6088   8.521   3.465   9.430 -0.1987  0.1593  0.1381
  381loPI   C3A 6089   8.504   3.396   9.082 -0.0966 -0.0537  0.0965
  381loPI   C4A 6090   8.389   3.637   8.754  0.0205  0.0244 -0.2818
  381loPI   C5A 6091   8.267   3.767   8.357  0.0371  0.1455  0.3626
  381loPI   C6A 6092   8.138   4.104   8.054  0.3548 -0.2620 -0.1331
  381loPI   C1B 6093   8.899   3.818   9.617  0.1329  0.2474  0.0454
  381loPI   C2B 6094   8.840   3.760   9.159 -0.0341 -0.0021 -0.1028
  381loPI   C3B 6095   8.883   3.654   8.783  0.0458 -0.0276  0.0663
  381loPI   C4B 6096   8.780   3.518   8.440  0.1267 -0.1743 -0.0656
  382loPI    C1 6097  12.583  12.420  10.806  0.1343 -0.0844 -0.0012
  382loPI    C2 6098  12.391  12.770  10.826  0.2494 -0.0122 -0.1375
  382loPI    C3 6099  12.300  12.477  11.082 -0.0127  0.0348 -0.1738
  382loPI   PO4 6100  12.501  12.355  10.516 -0.0562  0.0525 -0.3097
  382loPI   GL1 6101  12.645  12.453  10.062 -0.0922  0.1836  0.2307
  382loPI   GL2 6102  12.996  12.578  10.019  0.1327  0.2154  0.1922
  382loPI   C1A 6103  12.404  12.408   9.676  0.2334 -0.2284 -0.2005
  382loPI   C2A 6104  12.316  12.688   9.272 -0.1587 -0.1995  0.1173
  382loPI   C3A 6105  12.388  12.519   8.961 -0.2177 -0.2182 -0.0020
  382loPI   C4A 6106  12.603  12.416   8.599  0.0511 -0.1144  0.1712
  382loPI   C5A 6107  12.651  12.328   8.116  0.0141 -0.1454 -0.0775
  382loPI   C6A 6108  12.379  12.284   7.803  0.1197 -0.2634 -0.1448
  382loPI   C1B 6109  12.855  12.560   9.562 -0.0855 -0.2722  0.1200
  382loPI   C2B 6110  12.836  12.360   9.175  0.0776  0.0738 -0.1632
  382loPI   C3B 6111  12.983  12.068   8.791  0.0790  0.0608  0.1959
  382loPI   C4B 6112  12.782  11.917   8.313 -0.3011  0.0146  0.0479
  383loPI    C1 6113   8.225   4.465  10.438  0.0097  0.1393  0.0753
  383loPI    C2 6114   8.402   4.656  10.742  0.1061 -0.0338  0.1294
  383loPI    C3 6115   8.474   4.267  10.681  0.0473 -0.0124 -0.0847
  383loPI   PO4 6116   8.280   4.612  10.172  0.2646 -0.2205 -0.2413
  383loPI   GL1 6117   8.519   4.757   9.870  0.1203 -0.1869  0.3564
  383loPI   GL2 6118   8.825   4.770   9.898 -0.0082  0.2662 -0.0644
  383loPI   C1A 6119   8.451   4.622   9.427 -0.2224 -0.2263  0.3172
  383loPI   C2A 6120   8.600   4.571   9.018  0.0451 -0.3801 -0.0503
  383loPI   C3A 6121   8.756   4.555   8.582 -0.0700 -0.1191  0.0756
  383loPI   C4A 6122   8.603   4.634   8.134  0.2746  0.1936  0.0856
  383loPI   C5A 6123   8.602   4.294   8.003 -0.0640  0.0630  0.0252
  383loPI   C6A 6124   8.625   3.835   7.969 -0.3896  0.0891 -0.0871
  383loPI   C1B 6125   8.838   4.355   9.705  0.0503  0.1612  0.1009
  383loPI   C2B 6126   8.882   4.257   9.330  0.2879  0.1745  0.0284
  383loPI   C3B 6127   8.872   4.195   8.871 -0.1400  0.0423 -0.1502
  383loPI   C4B 6128   8.803   4.016   8.468 -0.1135  0.2620  0.1001
  384loPI    C1 6129  13.084   0.085  10.960  0.2432  0.1017  0.0513
  384loPI    C2 6130  12.889   0.433  10.927  0.2691  0.0998 -0.1368
  384loPI    C3 6131  12.994   0.295  11.288 -0.1116  0.0817 -0.0289
  384loPI   PO4 6132  12.922  -0.070  10.713  0.0888 -0.2596 -0.0644
  384loPI   GL1 6133  12.853  -0.226  10.315 -0.0363  0.0363 -0.0367
  384loPI   GL2 6134  13.134  -0.557  10.185  0.0334  0.1058  0.1870
  384loPI   C1A 6135  12.768   0.028  10.001 -0.0159 -0.0412 -0.1169
  384loPI   C2A 6136  12.951   0.158   9.657  0.1154 -0.0048  0.2421
  384loPI   C3A 6137  12.978   0.085   9.291  0.3102 -0.0357  0.0955
  384loPI   C4A 6138  12.839   0.287   8.871  0.0740  0.0331 -0.1191
  384loPI   C5A 6139  12.646   0.421   8.566  0.0942 -0.1733 -0.1522
  384loPI   C6A 6140  12.840   0.846   8.605  0.0263  0.2137  0.3096
  384loPI   C1B 6141  12.889  -0.377   9.807  0.0842  0.1013 -0.0882
  384loPI   C2B 6142  12.751  -0.313   9.463  0.2996 -0.1239 -0.0290
  384loPI   C3B 6143  12.691  -0.293   9.035 -0.1231 -0.2089  0.1044
  384loPI   C4B 6144  12.814  -0.161   8.677 -0.2924  0.0960  0.1853
  385loPI    C1 6145  12.020   0.903  10.436 -0.0642 -0.0488  0.0466
  385loPI    C2 6146  11.894   0.898  10.816 -0.0193  0.1232  0.0649
  385loPI    C3 6147  12.126   0.602  10.678 -0.1790 -0.0298  0.1211
  385loPI   PO4 6148  12.028   1.125  10.384  0.0915 -0.3262  0.0729
  385loPI   GL1 6149  12.324   1.264   9.998 -0.0257 -0.1088 -0.4261
  385loPI   GL2 6150  12.614   1.492   9.937 -0.1801  0.1449  0.0693
  385loPI   C1A 6151  12.041   1.424   9.711 -0.0698  0.2276  0.2005
  385loPI   C2A 6152  11.848   1.506   9.319  0.0113  0.1675 -0.4166
  385loPI   C3A 6153  12.107   1.473   8.891  0.0719  0.0369 -0.0617
  385loPI   C4A 6154  12.003   1.194   8.591  0.1146  0.0293 -0.4786
  385loPI   C5A 6155  12.318   1.021   8.369 -0.0651 -0.3902  0.0917
  385loPI   C6A 6156  12.682   0.960   8.159 -0.1450  0.2341 -0.0643
  385loPI   C1B 6157  12.829   1.648   9.612 -0.0789  0.1302  0.2186
  385loPI   C2B 6158  12.722   1.706   9.099  0.2158  0.0268  0.0011
  385loPI   C3B 6159  12.345   1.904   8.794 -0.0627  0.4535 -0.0471
  385loPI   C4B 6160  12.097   2.137   8.582 -0.0602 -0.0087  0.1120
  386loPI    C1 6161   6.082   8.634  10.142  0.2061 -0.1407  0.0917
  386loPI    C2 6162   5.794   8.372  10.049  0.0770  0.0299  0.0045
  386loPI    C3 6163   6.171   8.247  10.093 -0.0280 -0.2153  0.2371
  386loPI   PO4 6164   6.151   8.756   9.932  0.1586  0.0011 -0.0815
  386loPI   GL1 6165   6.193   9.046   9.643  0.0627 -0.1230  0.0947
  386loPI   GL2 6166   5.903   9.034   9.545  0.3477  0.0876  0.2248
  386loPI   C1A 6167   6.401   8.823   9.264  0.0829 -0.0474 -0.0724
  386loPI   C2A 6168   6.321   8.755   8.865  0.3760  0.1977 -0.1123
  386loPI   C3A 6169   6.220   8.794   8.480 -0.0646  0.1395  0.1143
  386loPI   C4A 6170   6.162   8.768   8.078 -0.0917  0.2139  0.0575
  386loPI   C5A 6171   6.414   8.618   7.923 -0.1025  0.1700 -0.0250
  386loPI   C6A 6172   6.583   8.174   7.863 -0.1366  0.0893 -0.3320
  386loPI   C1B 6173   5.878   8.770   9.108  0.1619 -0.0923 -0.0125
  386loPI   C2B 6174   5.786   8.568   8.695 -0.2128 -0.0886 -0.1459
  386loPI   C3B 6175   5.898   8.445   8.290  0.2625  0.0747 -0.0248
  386loPI   C4B 6176   6.024   8.312   7.822  0.3215 -0.1520 -0.1060
  387loPI    C1 6177  15.566   2.400  10.531  0.0791 -0.1081  0.2853
  387loPI    C2 6178  15.602   2.567  10.893 -0.0665  0.4034  0.0737
  387loPI    C3 6179  15.266   2.618  10.682 -0.0754 -0.0870 -0.0426
  387loPI   PO4 6180  15.724   2.539  10.333  0.0957 -0.0740 -0.2066
  387loPI   GL1 6181  15.949   2.473   9.997 -0.3202 -0.3449 -0.3386
  387loPI   GL2 6182  15.613   2.458   9.800 -0.0943  0.2296  0.0525
  387loPI   C1A 6183  16.276   2.696   9.738 -0.0875  0.1599 -0.0003
  387loPI   C2A 6184  16.255   2.917   9.390 -0.0473  0.0750 -0.1161
  387loPI   C3A 6185  16.226   3.019   8.892 -0.0105  0.1387 -0.2742
  387loPI   C4A 6186  16.099   2.968   8.431  0.0939 -0.0878 -0.0292
  387loPI   C5A 6187  15.835   3.133   8.087 -0.4179  0.1068  0.0386
  387loPI   C6A 6188  15.424   3.124   7.918 -0.0611 -0.1398  0.0806
  387loPI   C1B 6189  15.794   2.525   9.489  0.0793  0.0702  0.1315
  387loPI   C2B 6190  15.854   2.752   9.131 -0.0512 -0.6498 -0.2296
  387loPI   C3B 6191  15.834   2.576   8.676 -0.1081  0.2926 -0.1167
  387loPI   C4B 6192  15.847   2.593   8.248  0.2045 -0.0424 -0.0796
  388loPI    C1 6193   3.734   5.202  10.163 -0.0854  0.1245 -0.2543
  388loPI    C2 6194   4.078   4.999  10.186  0.0102  0.2864 -0.2423
  388loPI    C3 6195   3.748   4.819  10.050  0.0716  0.0964 -0.1430
  388loPI   PO4 6196   3.764   5.418   9.997  0.1765  0.0283  0.2443
  388loPI   GL1 6197   3.723   5.677   9.657  0.2314 -0.0700 -0.0553
  388loPI   GL2 6198   4.089   5.708   9.696  0.0625  0.2390 -0.3696
  388loPI   C1A 6199   3.814   5.478   9.224  0.0139  0.0394  0.2935
  388loPI   C2A 6200   3.711   5.442   8.791  0.0376 -0.1267  0.1041
  388loPI   C3A 6201   3.812   5.284   8.424  0.2561  0.0681 -0.2265
  388loPI   C4A 6202   3.726   5.017   8.113 -0.1708  0.0614  0.0902
  388loPI   C5A 6203   3.906   4.596   7.921  0.2875  0.2215  0.1830
  388loPI   C6A 6204   3.787   4.206   8.006  0.0784  0.1867  0.0271
  388loPI   C1B 6205   3.988   6.152   9.502 -0.0934  0.2915 -0.1521
  388loPI   C2B 6206   4.101   6.286   9.074  0.0874 -0.2381  0.1600
  388loPI   C3B 6207   4.258   6.119   8.698 -0.6016 -0.0161 -0.1224
  388loPI   C4B 6208   4.381   6.020   8.274  0.0339 -0.1244 -0.1340
  389loPI    C1 6209   5.122  11.674  10.380  0.5234 -0.3111 -0.2635
  389loPI    C2 6210   4.841  11.485  10.167 -0.1059  0.2128  0.0668
  389loPI    C3 6211   4.901  11.388  10.550  0.1599  0.1135  0.0019
  389loPI   PO4 6212   5.291  11.653  10.160  0.1054 -0.0242 -0.2319
  389loPI   GL1 6213   5.166  11.948   9.825 -0.0743  0.1021 -0.1922
  389loPI   GL2 6214   5.365  12.318   9.851 -0.0020 -0.0555  0.0274
  389loPI   C1A 6215   5.353  11.725   9.469  0.0744 -0.1330  0.0256
  389loPI   C2A 6216   5.424  11.813   9.018  0.0693  0.0846 -0.0220
  389loPI   C3A 6217   5.288  11.784   8.642  0.1418  0.3152 -0.0152
  389loPI   C4A 6218   5.329  11.802   8.273  0.1405 -0.2120 -0.0335
  389loPI   C5A 6219   5.453  11.720   7.878  0.0953 -0.0216  0.2589
  389loPI   C6A 6220   5.601  12.030   7.604 -0.0643 -0.1722  0.1042
  389loPI   C1B 6221   5.460  12.191   9.373  0.0876 -0.1216 -0.2366
  389loPI   C2B 6222   5.637  12.295   8.942 -0.1680  0.2716  0.1753
  389loPI   C3B 6223   5.596  12.242   8.454  0.2018 -0.3589  0.1516
  389loPI   C4B 6224   5.610  12.220   8.102  0.0346 -0.5062  0.0035
  390loPI    C1 6225   8.063   2.747  10.661  0.0597 -0.0086  0.1211
  390loPI    C2 6226   8.070   2.525  10.994  0.0102 -0.0622  0.0865
  390loPI    C3 6227   8.078   2.348  10.635  0.0091 -0.0066  0.0590
  390loPI   PO4 6228   8.294   2.951  10.666  0.0204  0.2413  0.2924
  390loPI   GL1 6229   8.488   3.178  10.391 -0.3595 -0.1276  0.0363
  390loPI   GL2 6230   8.256   3.429  10.240  0.1065  0.0502 -0.1211
  390loPI   C1A 6231   8.595   3.087   9.966 -0.0108 -0.0097 -0.0490
  390loPI   C2A 6232   8.677   2.956   9.515  0.0552 -0.0830 -0.0005
  390loPI   C3A 6233   8.602   2.917   9.077  0.0634  0.0291 -0.0393
  390loPI   C4A 6234   8.481   2.985   8.717 -0.3418 -0.2642 -0.0654
  390loPI   C5A 6235   8.395   3.089   8.348 -0.0694 -0.1689  0.1107
  390loPI   C6A 6236   8.428   3.281   7.887  0.0357 -0.1503 -0.3400
  390loPI   C1B 6237   8.125   3.205   9.925 -0.1252  0.3267  0.2306
  390loPI   C2B 6238   8.153   3.022   9.463  0.3044  0.1248 -0.1094
  390loPI   C3B 6239   8.135   3.106   9.017  0.1649  0.2035 -0.3071
  390loPI   C4B 6240   8.045   3.273   8.645  0.3114  0.0614 -0.1031
  391loPI    C1 6241   5.884   2.436  10.388 -0.0368 -0.3916  0.0783
  391loPI    C2 6242   5.818   2.696  10.685  0.4318  0.0626 -0.1973
  391loPI    C3 6243   5.588   2.703  10.358  0.1961 -0.1409 -0.0395
  391loPI   PO4 6244   6.047   2.452  10.381 -0.3877  0.1085 -0.0540
  391loPI   GL1 6245   6.142   2.147  10.000 -0.4192  0.2664 -0.1386
  391loPI   GL2 6246   6.088   1.726  10.080  0.2138  0.0527 -0.1079
  391loPI   C1A 6247   5.958   2.187   9.598  0.1738  0.0284  0.2731
  391loPI   C2A 6248   6.017   2.153   9.135  0.2161 -0.1942  0.0788
  391loPI   C3A 6249   5.969   2.145   8.749  0.2404 -0.2557 -0.1102
  391loPI   C4A 6250   6.108   2.196   8.375 -0.1007 -0.0230 -0.0572
  391loPI   C5A 6251   6.085   1.932   7.994 -0.0453 -0.0605  0.0285
  391loPI   C6A 6252   6.298   1.498   7.870 -0.1335  0.0644 -0.0382
  391loPI   C1B 6253   6.294   1.780   9.619  0.2384  0.0241  0.1066
  391loPI   C2B 6254   6.320   1.724   9.149  0.1485  0.0828  0.1995
  391loPI   C3B 6255   6.273   1.749   8.752 -0.0549  0.2947 -0.1426
  391loPI   C4B 6256   6.377   1.574   8.336  0.0503 -0.1319 -0.2248
  392loPI    C1 6257  18.031   3.707  10.607 -0.0468 -0.0207  0.0790
  392loPI    C2 6258  17.864   3.531  10.925  0.0763 -0.1274  0.0853
  392loPI    C3 6259  17.853   3.929  10.888 -0.2249 -0.1354  0.0591
  392loPI   PO4 6260  17.913   3.649  10.392 -0.0373  0.0800  0.0322
  392loPI   GL1 6261  17.684   3.658  10.142 -0.0671  0.0536 -0.1042
  392loPI   GL2 6262  17.394   3.434  10.117  0.2552  0.2271  0.0720
  392loPI   C1A 6263  17.596   3.677   9.743 -0.2886 -0.1210 -0.0066
  392loPI   C2A 6264  17.612   3.640   9.369  0.0612  0.2829 -0.0346
  392loPI   C3A 6265  17.597   3.680   8.870  0.3508  0.2227  0.1993
  392loPI   C4A 6266  17.556   3.703   8.451 -0.0455  0.1525 -0.0638
  392loPI   C5A 6267  17.335   3.516   8.066  0.0591  0.1322  0.2587
  392loPI   C6A 6268  16.902   3.362   8.000  0.0656 -0.1494 -0.4348
  392loPI   C1B 6269  17.181   3.377   9.742  0.1013  0.2715 -0.0406
  392loPI   C2B 6270  17.122   3.379   9.313 -0.2497 -0.3470  0.2057
  392loPI   C3B 6271  17.130   3.525   8.969  0.2118  0.1953 -0.1733
  392loPI   C4B 6272  17.104   3.425   8.537  0.0435  0.0839  0.0974
  393loPI    C1 6273  11.819  16.741  10.195  0.0715 -0.2003  0.0865
  393loPI    C2 6274  11.510  16.908  10.002  0.2337  0.0447  0.0342
  393loPI    C3 6275  11.461  16.765  10.372 -0.0009 -0.1401 -0.0656
  393loPI   PO4 6276  11.987  16.966  10.090  0.0206 -0.2008  0.2945
  393loPI   GL1 6277  11.861  17.235   9.761  0.1449  0.0983  0.2200
  393loPI   GL2 6278  11.855  16.897   9.649 -0.0501 -0.0183 -0.0290
  393loPI   C1A 6279  12.086  17.283   9.372  0.2287  0.4059 -0.1645
  393loPI   C2A 6280  12.044  17.344   8.944  0.3817 -0.1368 -0.2085
  393loPI   C3A 6281  12.145  17.430   8.472 -0.0373 -0.0863 -0.0859
  393loPI   C4A 6282  11.969  17.712   8.169 -0.0180 -0.0980  0.0315
  393loPI   C5A 6283  11.820  17.936   7.797  0.1412  0.2322  0.4156
  393loPI   C6A 6284  11.637  17.874   7.472  0.3654  0.0801 -0.0483
  393loPI   C1B 6285  11.900  16.830   9.251  0.2401  0.0493  0.3350
  393loPI   C2B 6286  11.729  16.862   8.821  0.1834  0.2612 -0.0289
  393loPI   C3B 6287  11.893  17.012   8.479  0.3558 -0.0674 -0.0389
  393loPI   C4B 6288  12.052  16.991   8.167  0.0165  0.0203 -0.4366
  394loPI    C1 6289  10.478  10.763  10.235 -0.0127  0.0475 -0.0447
  394loPI    C2 6290  10.271  10.860  10.564 -0.2261  0.0847 -0.1881
  394loPI    C3 6291  10.660  10.769  10.592 -0.2499  0.0576  0.0780
  394loPI   PO4 6292  10.245  10.693  10.057 -0.2767 -0.0797  0.0430
  394loPI   GL1 6293  10.249  10.488   9.642  0.2099  0.0182  0.2312
  394loPI   GL2 6294  10.651  10.502   9.608 -0.0514  0.1221  0.1532
  394loPI   C1A 6295  10.313  10.530   9.143 -0.0623  0.3451  0.1306
  394loPI   C2A 6296  10.292  10.659   8.713 -0.0210 -0.1308  0.1166
  394loPI   C3A 6297  10.070  10.567   8.440 -0.1111  0.1480  0.2207
  394loPI   C4A 6298   9.999  10.317   8.105 -0.1624 -0.1492 -0.0018
  394loPI   C5A 6299  10.229  10.059   7.695 -0.0135 -0.2855 -0.1790
  394loPI   C6A 6300  10.347   9.768   7.411  0.3020 -0.0014  0.3534
  394loPI   C1B 6301  10.820  10.473   9.163 -0.1403  0.0089  0.1043
  394loPI   C2B 6302  11.055  10.567   8.831 -0.2905  0.2050 -0.0288
  394loPI   C3B 6303  11.254  10.278   8.512 -0.3927  0.1368  0.2090
  394loPI   C4B 6304  11.206  10.278   8.030  0.1193 -0.0863 -0.3011
  395loPI    C1 6305  16.263   1.136  10.657  0.0638 -0.0561 -0.0495
  395loPI    C2 6306  16.283   1.052  11.048  0.1788  0.0171 -0.0391
  395loPI    C3 6307  15.992   0.894  10.824 -0.0659  0.2114  0.1362
  395loPI   PO4 6308  16.478   1.041  10.574  0.1729 -0.0658 -0.1181
  395loPI   GL1 6309  16.465   1.110  10.114  0.0592 -0.1145 -0.4525
  395loPI   GL2 6310  16.751   1.235  10.053 -0.0740 -0.1999  0.0342
  395loPI   C1A 6311  16.131   1.294   9.737 -0.1617  0.1672 -0.1481
  395loPI   C2A 6312  16.178   1.306   9.348 -0.1470 -0.0040 -0.1722
  395loPI   C3A 6313  16.115   1.226   8.951  0.2969 -0.0791 -0.0698
  395loPI   C4A 6314  16.246   1.386   8.534 -0.1160 -0.1650 -0.0044
  395loPI   C5A 6315  16.303   1.120   8.241 -0.2103 -0.0876  0.2085
  395loPI   C6A 6316  16.253   1.199   7.885  0.2066  0.0837 -0.0629
  395loPI   C1B 6317  16.635   1.367   9.542  0.0389  0.0819 -0.3365
  395loPI   C2B 6318  16.727   1.497   9.170  0.0536 -0.2273  0.1422
  395loPI   C3B 6319  16.824   1.753   8.793  0.1278 -0.0587 -0.1461
  395loPI   C4B 6320  16.980   1.809   8.403  0.1446 -0.5451  0.2016
  396loPI    C1 6321   6.774  12.482  10.572 -0.2551  0.1195  0.1367
  396loPI    C2 6322   6.715  12.569  10.958 -0.0970  0.0160  0.1850
  396loPI    C3 6323   6.973  12.280  10.855 -0.2449 -0.0543  0.0074
  396loPI   PO4 6324   6.864  12.673  10.449  0.1478  0.1101 -0.1295
  396loPI   GL1 6325   7.079  12.627  10.129 -0.1351  0.0664 -0.0897
  396loPI   GL2 6326   7.288  12.598  10.192  0.1536  0.0478 -0.2335
  396loPI   C1A 6327   6.961  12.392   9.697  0.0715 -0.0282 -0.2114
  396loPI   C2A 6328   6.996  12.379   9.265 -0.0638 -0.0096  0.2127
  396loPI   C3A 6329   7.010  12.214   8.864 -0.1336  0.3047  0.0883
  396loPI   C4A 6330   7.074  12.220   8.325  0.1675  0.0931  0.1547
  396loPI   C5A 6331   6.988  12.137   7.917  0.2285  0.4150  0.0451
  396loPI   C6A 6332   6.770  12.035   7.594 -0.1101  0.3532  0.1282
  396loPI   C1B 6333   7.547  12.326  10.048 -0.0445 -0.0535  0.1239
  396loPI   C2B 6334   7.814  12.272   9.606 -0.0008 -0.1615 -0.0442
  396loPI   C3B 6335   7.964  12.230   9.142  0.3094  0.0245 -0.0040
  396loPI   C4B 6336   7.813  12.055   8.881 -0.0234  0.1221 -0.0181
  397loPI    C1 6337  10.168   6.046  10.731 -0.0665  0.0640 -0.0323
  397loPI    C2 6338  10.131   5.680  10.574  0.0496  0.0447 -0.0154
  397loPI    C3 6339   9.882   5.799  10.863 -0.0037 -0.0120 -0.0375
  397loPI   PO4 6340  10.295   6.150  10.524  0.1746 -0.2410 -0.0062
  397loPI   GL1 6341  10.215   6.081  10.209  0.2052  0.1460 -0.0913
  397loPI   GL2 6342   9.952   6.157  10.112  0.0053 -0.1440 -0.2613
  397loPI   C1A 6343  10.529   5.996   9.812 -0.0806 -0.0645 -0.0652
  397loPI   C2A 6344  10.657   5.855   9.501  0.1396  0.0819  0.3158
  397loPI   C3A 6345  10.660   5.821   9.048 -0.1382  0.1729  0.0033
  397loPI   C4A 6346  10.698   5.885   8.624  0.2266 -0.0968 -0.2990
  397loPI   C5A 6347  10.719   6.325   8.460 -0.3752  0.2644  0.3054
  397loPI   C6A 6348  10.760   6.691   8.245 -0.0526 -0.0644 -0.0774
  397loPI   C1B 6349   9.908   6.264   9.625  0.1101  0.1746  0.0040
  397loPI   C2B 6350  10.095   6.109   9.189 -0.0177 -0.3081 -0.1101
  397loPI   C3B 6351  10.201   6.018   8.828  0.2821  0.0694  0.1476
  397loPI   C4B 6352  10.295   6.003   8.412 -0.0178 -0.0460 -0.0717
  398loPI    C1 6353  15.498  14.282  10.391 -0.0904 -0.0271  0.0323
  398loPI    C2 6354  15.609  14.429  10.746 -0.1070  0.0277  0.0150
  398loPI    C3 6355  15.295  14.183  10.721  0.1356 -0.2971  0.0939
  398loPI   PO4 6356  15.687  14.140  10.311 -0.0231 -0.2317 -0.1126
  398loPI   GL1 6357  16.157  14.153  10.037 -0.0105 -0.0641  0.2723
  398loPI   GL2 6358  16.316  13.968  10.001 -0.1345 -0.1592  0.3293
  398loPI   C1A 6359  16.025  14.206   9.667 -0.2167 -0.0570  0.0647
  398loPI   C2A 6360  16.036  14.253   9.196  0.2753 -0.0899  0.1813
  398loPI   C3A 6361  16.040  14.152   8.778  0.2348 -0.1940  0.1003
  398loPI   C4A 6362  16.037  14.208   8.324  0.3809  0.2204 -0.3173
  398loPI   C5A 6363  15.918  14.329   7.982  0.2188 -0.0095  0.0851
  398loPI   C6A 6364  16.105  14.412   7.587 -0.0228 -0.3609 -0.1380
  398loPI   C1B 6365  16.582  14.075   9.721 -0.2776  0.2123  0.1362
  398loPI   C2B 6366  16.617  14.139   9.339 -0.1515  0.0026  0.0645
  398loPI   C3B 6367  16.472  14.121   8.976 -0.0329  0.0963 -0.1183
  398loPI   C4B 6368  16.526  13.958   8.682 -0.0494 -0.1499 -0.1974
  399loPI    C1 6369   0.570  11.386  10.679 -0.0133 -0.1623 -0.0669
  399loPI    C2 6370   0.176  11.453  10.673  0.0373  0.1613  0.0419
  399loPI    C3 6371   0.361  11.376  11.020  0.0617 -0.0567 -0.0176
  399loPI   PO4 6372   0.624  11.527  10.419  0.0783 -0.1595  0.0516
  399loPI   GL1 6373   0.510  11.599   9.928  0.1423 -0.3431  0.1073
  399loPI   GL2 6374   0.656  11.292   9.853  0.0793 -0.0056  0.0057
  399loPI   C1A 6375   0.555  11.749   9.534  0.1023  0.0562 -0.0365
  399loPI   C2A 6376   0.574  11.905   9.101  0.0228 -0.1411  0.1288
  399loPI   C3A 6377   0.591  11.911   8.736 -0.0003  0.1660 -0.0386
  399loPI   C4A 6378   0.336  12.037   8.343 -0.0375  0.4000 -0.1127
  399loPI   C5A 6379  -0.015  12.010   8.114 -0.0610 -0.2755  0.0956
  399loPI   C6A 6380  -0.309  12.009   7.898  0.2868 -0.1355  0.4243
  399loPI   C1B 6381   0.768  11.307   9.401 -0.3822  0.0374  0.0660
  399loPI   C2B 6382   0.771  11.465   8.919 -0.0438 -0.0783 -0.1254
  399loPI   C3B 6383   0.780  11.475   8.515 -0.3913  0.1527  0.3181
  399loPI   C4B 6384   0.953  11.483   8.064  0.0568  0.4154 -0.1117
  400loPI    C1 6385   7.541   9.568   9.959 -0.0567  0.1576 -0.0639
  400loPI    C2 6386   7.716   9.552  10.318  0.1476 -0.1666 -0.1737
  400loPI    C3 6387   7.404   9.795  10.258  0.2538  0.0585  0.1584
  400loPI   PO4 6388   7.729   9.594   9.771 -0.1542  0.2808  0.1045
  400loPI   GL1 6389   7.695   9.647   9.318 -0.0780 -0.0581 -0.0069
  400loPI   GL2 6390   7.435   9.956   9.328  0.3364 -0.0357  0.1901
  400loPI   C1A 6391   7.918   9.358   9.073  0.0986 -0.2326 -0.0955
  400loPI   C2A 6392   7.895   9.203   8.696 -0.0554  0.1835 -0.2746
  400loPI   C3A 6393   7.918   9.090   8.218  0.0089  0.0629  0.0583
  400loPI   C4A 6394   8.121   8.996   7.957 -0.3943  0.0377 -0.1445
  400loPI   C5A 6395   8.271   8.798   7.815 -0.2102 -0.0502 -0.0902
  400loPI   C6A 6396   8.260   8.296   7.768  0.0405  0.0393 -0.1992
  400loPI   C1B 6397   7.598  10.034   8.909  0.0181  0.1374  0.0667
  400loPI   C2B 6398   7.673  10.162   8.490 -0.1178 -0.1025  0.1690
  400loPI   C3B 6399   8.055  10.154   8.261  0.1977 -0.2742 -0.0691
  400loPI   C4B 6400   8.314   9.913   7.987  0.0460  0.0537  0.0176
  401loPI    C1 6401   3.791  14.029  10.618 -0.3516 -0.2343  0.0590
  401loPI    C2 6402   3.591  14.369  10.683 -0.1317 -0.1087  0.0875
  401loPI    C3 6403   3.816  14.212  10.973 -0.0889 -0.1817  0.0151
  401loPI   PO4 6404   3.831  14.019  10.452  0.1789  0.0417 -0.0607
  401loPI   GL1 6405   3.683  14.026   9.982  0.0902 -0.1162  0.2937
  401loPI   GL2 6406   3.932  13.987   9.983  0.1101 -0.0167 -0.1082
  401loPI   C1A 6407   3.393  13.801   9.615  0.1744  0.1634 -0.0768
  401loPI   C2A 6408   3.548  13.790   9.153 -0.2635  0.0870 -0.2542
  401loPI   C3A 6409   3.521  13.944   8.772 -0.1317 -0.4667  0.0340
  401loPI   C4A 6410   3.366  14.124   8.330 -0.2031 -0.3652 -0.2852
  401loPI   C5A 6411   3.455  14.443   7.872  0.0612 -0.1446  0.0750
  401loPI   C6A 6412   3.421  14.565   7.458  0.0592  0.0050  0.1079
  401loPI   C1B 6413   3.993  14.085   9.440 -0.1062  0.4522  0.1231
  401loPI   C2B 6414   3.914  14.131   9.075 -0.3353 -0.0808 -0.1076
  401loPI   C3B 6415   3.950  14.211   8.684 -0.3810  0.0094 -0.1596
  401loPI   C4B 6416   3.972  13.880   8.447 -0.1750  0.3584 -0.1958
  402loPI    C1 6417   2.690   3.604  10.589  0.0293 -0.0645  0.1897
  402loPI    C2 6418   2.502   3.253  10.557 -0.1991  0.0673  0.0596
  402loPI    C3 6419   2.494   3.453  10.903 -0.0539 -0.0620  0.1392
  402loPI   PO4 6420   2.621   3.691  10.330 -0.2956 -0.0417  0.2283
  402loPI   GL1 6421   2.471   3.355  10.001 -0.2633 -0.1571  0.1344
  402loPI   GL2 6422   2.685   3.256   9.837 -0.0149 -0.1762  0.2671
  402loPI   C1A 6423   2.033   3.233   9.772 -0.1972 -0.1539 -0.2011
  402loPI   C2A 6424   1.966   3.237   9.305 -0.0875 -0.0184  0.1971
  402loPI   C3A 6425   1.995   3.373   8.901 -0.0999 -0.0039 -0.1207
  402loPI   C4A 6426   1.970   3.419   8.461  0.0810  0.1388  0.0921
  402loPI   C5A 6427   1.742   3.455   8.084 -0.1639 -0.1288 -0.0881
  402loPI   C6A 6428   1.450   3.289   7.889  0.1482 -0.0380  0.5394
  402loPI   C1B 6429   2.533   3.346   9.422 -0.3357 -0.0645 -0.0893
  402loPI   C2B 6430   2.448   3.475   8.987  0.0905  0.0695 -0.0589
  402loPI   C3B 6431   2.416   3.360   8.609 -0.3382  0.0622 -0.1037
  402loPI   C4B 6432   2.294   3.125   8.268  0.1394 -0.0001  0.4362
  403loPI    C1 6433  14.786  13.786  10.189  0.1710  0.3364 -0.0083
  403loPI    C2 6434  14.685  14.048   9.903  0.0813  0.3302  0.0174
  403loPI    C3 6435  14.529  14.082  10.270 -0.1249  0.0943 -0.0452
  403loPI   PO4 6436  14.756  13.545  10.109 -0.3992  0.1387  0.2489
  403loPI   GL1 6437  15.115  13.373   9.932 -0.1092 -0.2284 -0.0279
  403loPI   GL2 6438  14.999  13.196   9.689 -0.1511 -0.1603 -0.0807
  403loPI   C1A 6439  15.407  13.493   9.601  0.3686  0.0082 -0.0166
  403loPI   C2A 6440  15.408  13.461   9.124 -0.0551  0.2275  0.1229
  403loPI   C3A 6441  15.356  13.420   8.750 -0.0921 -0.0863  0.0672
  403loPI   C4A 6442  15.450  13.208   8.377  0.2233 -0.1996 -0.0181
  403loPI   C5A 6443  15.523  12.947   8.042 -0.1319  0.1610  0.2824
  403loPI   C6A 6444  15.803  12.856   7.785 -0.0065 -0.2801  0.0642
  403loPI   C1B 6445  14.958  13.468   9.278 -0.1858  0.4471 -0.0648
  403loPI   C2B 6446  14.916  13.568   8.886 -0.1550 -0.1127 -0.0506
  403loPI   C3B 6447  14.884  13.410   8.503  0.0351 -0.4654  0.1101
  403loPI   C4B 6448  14.958  13.330   8.154  0.0540 -0.0624  0.1358
  404loPI    C1 6449  18.145  10.470  10.276  0.1804 -0.1350  0.2607
  404loPI    C2 6450  17.789  10.641  10.210  0.3359  0.0913 -0.0113
  404loPI    C3 6451  17.868  10.477  10.566 -0.0997 -0.1136 -0.0021
  404loPI   PO4 6452  18.114  10.339   9.905 -0.0127  0.1033 -0.2366
  404loPI   GL1 6453  17.879  10.375   9.537  0.1856 -0.0880 -0.2685
  404loPI   GL2 6454  17.996  10.134   9.480 -0.1352 -0.1745 -0.2205
  404loPI   C1A 6455  17.757  10.480   9.133 -0.1359 -0.4854  0.1106
  404loPI   C2A 6456  17.729  10.544   8.722 -0.1786 -0.0758  0.0446
  404loPI   C3A 6457  17.677  10.348   8.340 -0.0330 -0.0463 -0.1117
  404loPI   C4A 6458  17.255  10.270   8.102  0.5964  0.0436  0.1861
  404loPI   C5A 6459  16.856  10.334   8.018 -0.1090 -0.1931 -0.0110
  404loPI   C6A 6460  16.492  10.398   7.795  0.3008  0.0600  0.1449
  404loPI   C1B 6461  17.996  10.056   8.979  0.2364  0.1003 -0.2517
  404loPI   C2B 6462  18.048  10.026   8.555  0.0557  0.4141 -0.1756
  404loPI   C3B 6463  18.025   9.928   8.223 -0.3783  0.2268 -0.0128
  404loPI   C4B 6464  18.347   9.951   7.913  0.1571 -0.4486 -0.1497
  405loPI    C1 6465   9.715   4.351  10.723  0.1892 -0.0134  0.1379
  405loPI    C2 6466   9.699   4.741  10.633  0.0370 -0.0515 -0.0056
  405loPI    C3 6467  10.040   4.538  10.584  0.0798  0.0331 -0.0597
  405loPI   PO4 6468   9.480   4.258  10.611  0.1376  0.0193 -0.2403
  405loPI   GL1 6469   9.583   4.030  10.196  0.2048 -0.0683  0.0622
  405loPI   GL2 6470   9.247   4.214  10.121  0.1035 -0.1148  0.0577
  405loPI   C1A 6471   9.862   3.968   9.917  0.0373 -0.1540 -0.1027
  405loPI   C2A 6472   9.835   3.953   9.551  0.3204 -0.0813  0.1573
  405loPI   C3A 6473   9.749   3.860   9.189 -0.0676 -0.1036 -0.0241
  405loPI   C4A 6474   9.845   3.761   8.700 -0.2811  0.2051 -0.1227
  405loPI   C5A 6475   9.853   3.679   8.268 -0.0414  0.1937 -0.0599
  405loPI   C6A 6476   9.969   3.243   8.125 -0.0635  0.3738 -0.0730
  405loPI   C1B 6477   9.354   4.085   9.713  0.0054  0.1711 -0.1466
  405loPI   C2B 6478   9.311   4.029   9.378 -0.2458 -0.3207 -0.2339
  405loPI   C3B 6479   9.305   3.982   8.888 -0.1730  0.3960 -0.3571
  405loPI   C4B 6480   9.281   3.978   8.512  0.0044 -0.0941 -0.3378
  406loPI    C1 6481  15.863   6.471  10.738 -0.2041  0.0525 -0.0102
  406loPI    C2 6482  16.035   6.817  10.839 -0.0032 -0.0120 -0.1253
  406loPI    C3 6483  16.191   6.472  10.967 -0.0939 -0.0680 -0.1651
  406loPI   PO4 6484  15.818   6.465  10.427 -0.1233  0.0488 -0.2273
  406loPI   GL1 6485  16.021   6.323  10.165  0.2586  0.0407  0.0713
  406loPI   GL2 6486  16.100   5.950  10.061  0.2993  0.0014 -0.2907
  406loPI   C1A 6487  16.026   6.503   9.721 -0.2885  0.4011 -0.2308
  406loPI   C2A 6488  16.001   6.363   9.359  0.0383  0.1232 -0.1161
  406loPI   C3A 6489  16.052   6.405   8.975  0.0331  0.0989  0.1543
  406loPI   C4A 6490  16.043   6.373   8.456  0.2447 -0.0346  0.1358
  406loPI   C5A 6491  16.032   6.051   8.052 -0.2314 -0.0240  0.0065
  406loPI   C6A 6492  16.034   5.941   7.594 -0.3744  0.1936 -0.2886
  406loPI   C1B 6493  16.043   5.760   9.742 -0.0532 -0.1741  0.2290
  406loPI   C2B 6494  16.002   5.860   9.324  0.1214  0.1425  0.0770
  406loPI   C3B 6495  16.042   5.721   8.930  0.2252 -0.0028  0.2671
  406loPI   C4B 6496  15.954   5.805   8.536  0.0026 -0.1592  0.2292
  407loPI    C1 6497  13.927  16.085  10.424  0.0232 -0.0374  0.0467
  407loPI    C2 6498  13.547  16.155  10.529  0.0574  0.0925  0.0856
  407loPI    C3 6499  13.816  16.052  10.807  0.0496 -0.0066  0.0571
  407loPI   PO4 6500  13.901  16.194  10.132  0.0240  0.0816  0.1351
  407loPI   GL1 6501  13.894  16.102   9.792 -0.1120 -0.2603 -0.1526
  407loPI   GL2 6502  14.067  16.272   9.540  0.2102 -0.1853  0.2877
  407loPI   C1A 6503  13.811  15.900   9.340 -0.2208 -0.3636 -0.1613
  407loPI   C2A 6504  13.798  15.693   8.905 -0.1266 -0.1907  0.1086
  407loPI   C3A 6505  13.922  15.491   8.518  0.0763 -0.2475  0.3013
  407loPI   C4A 6506  13.882  15.270   8.114 -0.2270 -0.2305 -0.0022
  407loPI   C5A 6507  13.867  14.831   7.884 -0.4104 -0.1128 -0.3754
  407loPI   C6A 6508  14.029  14.507   7.625  0.0520 -0.3604  0.0690
  407loPI   C1B 6509  13.998  16.452   9.206  0.0015 -0.0995 -0.1559
  407loPI   C2B 6510  13.713  16.214   8.858 -0.1289  0.2093  0.0120
  407loPI   C3B 6511  13.672  15.915   8.490  0.0487 -0.0890  0.1298
  407loPI   C4B 6512  13.686  16.196   8.154 -0.1760  0.0101  0.0198
  408loPI    C1 6513   3.927  12.665  10.547 -0.0424  0.0305 -0.0957
  408loPI    C2 6514   3.637  12.487  10.757  0.1246  0.0271  0.1352
  408loPI    C3 6515   3.735  12.867  10.834  0.0662  0.0826 -0.0591
  408loPI   PO4 6516   3.911  12.657  10.281 -0.1916 -0.0656 -0.3938
  408loPI   GL1 6517   3.828  12.550   9.947 -0.0588  0.3472 -0.1983
  408loPI   GL2 6518   3.614  12.499   9.816  0.2418 -0.1603 -0.0043
  408loPI   C1A 6519   4.092  12.364   9.623  0.0938 -0.1893 -0.0795
  408loPI   C2A 6520   4.022  12.178   9.213 -0.0926  0.1879 -0.0273
  408loPI   C3A 6521   3.946  12.049   8.769 -0.2018 -0.0628 -0.0039
  408loPI   C4A 6522   3.978  11.864   8.384 -0.1306  0.1015 -0.2977
  408loPI   C5A 6523   3.907  11.707   8.055  0.0610  0.2966 -0.0207
  408loPI   C6A 6524   3.863  11.720   7.707 -0.0026  0.0614 -0.2027
  408loPI   C1B 6525   3.624  12.451   9.339 -0.0437 -0.1595  0.4430
  408loPI   C2B 6526   3.519  12.381   8.822 -0.1727 -0.1741 -0.4351
  408loPI   C3B 6527   3.284  12.361   8.531  0.1401 -0.3651  0.2344
  408loPI   C4B 6528   3.415  12.174   8.170 -0.1190  0.0187  0.1845
  409loPI    C1 6529   1.604   4.597  10.616  0.0221 -0.2043 -0.0280
  409loPI    C2 6530   1.758   4.654  10.981 -0.0927 -0.1418  0.0112
  409loPI    C3 6531   1.460   4.392  10.928 -0.1591 -0.0611 -0.0159
  409loPI   PO4 6532   1.832   4.618  10.428 -0.1839  0.3006 -0.2519
  409loPI   GL1 6533   1.852   4.654   9.921  0.0914 -0.0921  0.2175
  409loPI   GL2 6534   1.562   4.745   9.953 -0.0725  0.0399  0.1892
  409loPI   C1A 6535   1.923   4.626   9.437  0.1206  0.2324 -0.3105
  409loPI   C2A 6536   1.698   4.728   9.115 -0.3749 -0.0420  0.1333
  409loPI   C3A 6537   1.631   4.833   8.666  0.2981 -0.0477 -0.2179
  409loPI   C4A 6538   1.570   5.038   8.229  0.0664 -0.2858  0.0386
  409loPI   C5A 6539   1.657   5.308   7.929 -0.4431  0.2586  0.1022
  409loPI   C6A 6540   1.453   5.688   7.888 -0.0728  0.0949  0.0757
  409loPI   C1B 6541   1.385   4.581   9.581  0.1601 -0.0233  0.0221
  409loPI   C2B 6542   1.207   4.517   9.145 -0.1515  0.0005 -0.0754
  409loPI   C3B 6543   1.158   4.576   8.739 -0.4154 -0.1409 -0.5326
  409loPI   C4B 6544   1.234   4.679   8.199  0.2289  0.1105 -0.1448
  410loPI    C1 6545   8.698  12.496  10.263  0.2444 -0.1499  0.1687
  410loPI    C2 6546   8.939  12.304  10.009  0.1042 -0.0989 -0.0050
  410loPI    C3 6547   8.903  12.176  10.386  0.2433 -0.2301 -0.0353
  410loPI   PO4 6548   8.487  12.509  10.173  0.0571 -0.0549  0.1769
  410loPI   GL1 6549   8.400  12.610   9.825 -0.1906  0.0934 -0.0049
  410loPI   GL2 6550   8.562  12.833   9.610  0.2351  0.3179  0.0729
  410loPI   C1A 6551   8.475  12.250   9.395 -0.1757 -0.0451  0.0874
  410loPI   C2A 6552   8.440  12.159   8.965  0.0774  0.0518 -0.2328
  410loPI   C3A 6553   8.497  12.200   8.595 -0.2493 -0.0408 -0.0288
  410loPI   C4A 6554   8.511  12.484   8.245 -0.0285  0.0528 -0.0595
  410loPI   C5A 6555   8.726  12.774   8.013 -0.2519  0.0656  0.2180
  410loPI   C6A 6556   9.116  12.861   7.718 -0.1468 -0.2385  0.2930
  410loPI   C1B 6557   8.506  12.757   9.211  0.1597 -0.1709  0.5339
  410loPI   C2B 6558   8.429  12.631   8.775  0.0325 -0.1168 -0.0562
  410loPI   C3B 6559   8.090  12.464   8.550 -0.3496 -0.0722  0.0021
  410loPI   C4B 6560   8.009  12.351   8.135  0.0491 -0.0337 -0.1744
  411loPI    C1 6561  14.893   4.107  10.638 -0.0959  0.0472 -0.1566
  411loPI    C2 6562  15.273   3.984  10.626 -0.0524  0.1610  0.0230
  411loPI    C3 6563  15.032   3.862  10.921 -0.1380  0.1389 -0.0557
  411loPI   PO4 6564  14.927   4.338  10.560  0.1238 -0.0839 -0.1874
  411loPI   GL1 6565  15.094   4.621  10.218  0.1891  0.3400  0.1729
  411loPI   GL2 6566  14.884   4.782  10.063  0.0781 -0.3864  0.4070
  411loPI   C1A 6567  15.374   4.481   9.785  0.1872 -0.3027  0.1841
  411loPI   C2A 6568  15.475   4.531   9.411 -0.1155 -0.1905  0.2254
  411loPI   C3A 6569  15.441   4.577   8.960  0.2920  0.0662  0.0193
  411loPI   C4A 6570  15.473   4.507   8.564 -0.1037  0.1486 -0.0262
  411loPI   C5A 6571  15.317   4.438   8.136  0.1005  0.0675  0.2069
  411loPI   C6A 6572  15.079   4.036   8.074  0.0977  0.0832 -0.1301
  411loPI   C1B 6573  14.959   4.762   9.594  0.0024  0.3826 -0.2985
  411loPI   C2B 6574  15.033   4.803   9.205 -0.1329  0.0419  0.0923
  411loPI   C3B 6575  15.052   4.815   8.693 -0.3892 -0.1382  0.2135
  411loPI   C4B 6576  14.920   4.907   8.228 -0.3651 -0.3297 -0.1218
  412loPI    C1 6577   3.423  14.842  10.563  0.1276  0.0152  0.1069
  412loPI    C2 6578   3.127  14.588  10.652 -0.0023  0.1004 -0.0757
  412loPI    C3 6579   3.057  14.982  10.643  0.0740  0.1103 -0.2858
  412loPI   PO4 6580   3.544  14.745  10.325  0.1634 -0.0483 -0.1245
  412loPI   GL1 6581   3.485  14.754   9.914  0.0975  0.1784 -0.0561
  412loPI   GL2 6582   3.654  14.502   9.788 -0.0472 -0.1373  0.0023
  412loPI   C1A 6583   3.160  14.614   9.696  0.0745  0.1218 -0.1867
  412loPI   C2A 6584   3.219  14.702   9.235  0.1828 -0.1453  0.0544
  412loPI   C3A 6585   3.069  14.614   8.842  0.3399  0.2562  0.3171
  412loPI   C4A 6586   3.024  14.497   8.355 -0.2475 -0.2448 -0.0527
  412loPI   C5A 6587   2.844  14.398   7.858 -0.1959  0.3561 -0.0188
  412loPI   C6A 6588   2.921  14.563   7.516  0.1654 -0.3684  0.3410
  412loPI   C1B 6589   3.503  14.262   9.409 -0.0328  0.2920 -0.1478
  412loPI   C2B 6590   3.462  14.336   9.011 -0.0085  0.1712 -0.0351
  412loPI   C3B 6591   3.592  14.545   8.605 -0.2014 -0.2932  0.2188
  412loPI   C4B 6592   3.637  14.741   8.208  0.1830 -0.0770 -0.1058
  413loPI    C1 6593   5.568   1.881  10.581  0.4558 -0.1986  0.0607
  413loPI    C2 6594   5.694   2.181  10.814  0.0129 -0.0305  0.0931
  413loPI    C3 6595   5.346   1.999  10.892  0.0235 -0.1995 -0.2390
  413loPI   PO4 6596   5.669   1.968  10.352 -0.0129  0.0707 -0.0834
  413loPI   GL1 6597   5.486   1.910  10.009  0.0486 -0.1244 -0.0068
  413loPI   GL2 6598   5.482   1.558  10.141 -0.0522 -0.0907 -0.0620
  413loPI   C1A 6599   5.417   2.087   9.603 -0.2739  0.1460  0.0142
  413loPI   C2A 6600   5.268   2.110   9.141 -0.1598 -0.4197  0.0160
  413loPI   C3A 6601   4.996   2.128   8.787 -0.0507 -0.1065 -0.3362
  413loPI   C4A 6602   5.123   2.207   8.372 -0.0061  0.0605  0.0721
  413loPI   C5A 6603   5.037   2.459   8.031  0.0698  0.1864  0.1392
  413loPI   C6A 6604   4.808   2.485   7.558  0.1643 -0.1370 -0.0216
  413loPI   C1B 6605   5.776   1.519   9.787  0.0252  0.0504 -0.2211
  413loPI   C2B 6606   5.861   1.704   9.388 -0.2675 -0.0550 -0.3123
  413loPI   C3B 6607   5.737   1.704   8.977  0.1235 -0.0278 -0.1661
  413loPI   C4B 6608   5.862   1.583   8.545 -0.0666 -0.1619  0.1233
  414loPI    C1 6609   2.151  14.496  10.428  0.1147 -0.0338  0.1608
  414loPI    C2 6610   1.879  14.720  10.617  0.0483  0.0809 -0.0667
  414loPI    C3 6611   2.031  14.842  10.268  0.2376 -0.0840 -0.0439
  414loPI   PO4 6612   2.044  14.259  10.270 -0.1933 -0.1355  0.2007
  414loPI   GL1 6613   1.986  14.108   9.877 -0.2054 -0.0554  0.0633
  414loPI   GL2 6614   1.890  14.483   9.810 -0.1738 -0.1183 -0.0303
  414loPI   C1A 6615   2.072  13.946   9.423 -0.0054 -0.2870 -0.0285
  414loPI   C2A 6616   2.071  14.142   8.975  0.2337 -0.2025  0.1600
  414loPI   C3A 6617   2.078  14.048   8.521 -0.0480  0.4391  0.0577
  414loPI   C4A 6618   1.786  13.875   8.243  0.2726 -0.0310  0.4026
  414loPI   C5A 6619   1.551  13.925   7.860 -0.2978 -0.0392  0.1019
  414loPI   C6A 6620   1.522  14.231   7.492  0.1337 -0.0418 -0.0539
  414loPI   C1B 6621   2.094  14.473   9.433  0.1735 -0.1903 -0.2060
  414loPI   C2B 6622   1.940  14.614   9.105  0.0465  0.3524 -0.1249
  414loPI   C3B 6623   2.181  14.615   8.789 -0.1828  0.2552  0.0340
  414loPI   C4B 6624   2.223  14.887   8.456 -0.1357 -0.1757 -0.1876
  415loPI    C1 6625  10.813  15.886  10.181 -0.1203 -0.0790 -0.2160
  415loPI    C2 6626  11.191  16.008  10.228 -0.1808  0.0119  0.0519
  415loPI    C3 6627  11.038  15.969   9.860  0.0922 -0.0391 -0.0588
  415loPI   PO4 6628  10.834  15.621  10.228 -0.0170 -0.0681 -0.1411
  415loPI   GL1 6629  10.842  15.358   9.949 -0.3407  0.0040  0.1122
  415loPI   GL2 6630  11.025  15.503   9.650 -0.0718  0.2431  0.0473
  415loPI   C1A 6631  10.547  15.228   9.732 -0.1826  0.0396 -0.1189
  415loPI   C2A 6632  10.255  15.215   9.452  0.3037 -0.1243  0.0070
  415loPI   C3A 6633  10.385  15.072   9.001  0.1360  0.3226  0.4339
  415loPI   C4A 6634  10.797  14.942   8.829  0.1127  0.2831 -0.1202
  415loPI   C5A 6635  10.983  14.881   8.439  0.2823  0.2859 -0.0724
  415loPI   C6A 6636  11.315  14.668   8.387 -0.0521 -0.1841  0.0339
  415loPI   C1B 6637  10.979  15.831   9.401  0.1809 -0.4306 -0.1540
  415loPI   C2B 6638  10.783  15.869   8.982  0.0164  0.1136  0.1433
  415loPI   C3B 6639  10.611  15.846   8.537 -0.0398 -0.0786  0.2032
  415loPI   C4B 6640  10.567  15.875   8.081 -0.1187  0.1443 -0.0253
  416loPI    C1 6641   2.004   8.876  10.454 -0.0146  0.0848  0.1023
  416loPI    C2 6642   1.649   8.738  10.331  0.1239 -0.2226  0.0389
  416loPI    C3 6643   1.714   8.805  10.720 -0.0215 -0.1100  0.0444
  416loPI   PO4 6644   1.983   9.108  10.289 -0.0136  0.0493  0.0765
  416loPI   GL1 6645   1.794   9.260  10.041  0.0027  0.2293 -0.0785
  416loPI   GL2 6646   1.905   9.599   9.885 -0.0970  0.1472  0.0739
  416loPI   C1A 6647   1.643   9.194   9.689 -0.0333  0.1279 -0.0079
  416loPI   C2A 6648   1.587   9.249   9.231  0.3089  0.0694  0.2328
  416loPI   C3A 6649   1.512   9.250   8.759 -0.2085  0.0845  0.0588
  416loPI   C4A 6650   1.501   9.021   8.353 -0.0007  0.0430  0.0194
  416loPI   C5A 6651   1.568   9.113   7.871  0.1246  0.0687  0.1255
  416loPI   C6A 6652   1.619   9.533   7.753  0.1812 -0.0964 -0.0344
  416loPI   C1B 6653   1.705   9.678   9.457  0.1089  0.0507 -0.0427
  416loPI   C2B 6654   1.809   9.748   8.994 -0.5121  0.1502  0.0313
  416loPI   C3B 6655   1.820   9.615   8.577  0.0073  0.0462 -0.2560
  416loPI   C4B 6656   1.774   9.384   8.238  0.0811 -0.5016 -0.0090
  417loPI    C1 6657   4.645  15.794  10.347 -0.3331 -0.2700  0.0238
  417loPI    C2 6658   4.796  15.560  10.634 -0.0384 -0.0869  0.0219
  417loPI    C3 6659   4.580  15.882  10.731 -0.0660 -0.1089  0.0339
  417loPI   PO4 6660   4.735  15.592  10.108  0.2198 -0.2399 -0.0712
  417loPI   GL1 6661   4.931  15.586   9.860  0.0689 -0.2126 -0.0521
  417loPI   GL2 6662   5.272  15.552   9.872  0.0928  0.0091  0.1787
  417loPI   C1A 6663   5.040  15.698   9.423 -0.0135 -0.1821 -0.2506
  417loPI   C2A 6664   5.001  15.800   9.003  0.2717 -0.2295  0.1028
  417loPI   C3A 6665   4.742  15.747   8.591 -0.1112 -0.0760 -0.0080
  417loPI   C4A 6666   4.314  15.654   8.399 -0.2736  0.0261  0.1168
  417loPI   C5A 6667   3.903  15.444   8.170 -0.0014  0.0377 -0.2924
  417loPI   C6A 6668   3.586  15.211   8.154  0.1276 -0.2111  0.1471
  417loPI   C1B 6669   5.469  15.369   9.433  0.1260 -0.0397  0.0928
  417loPI   C2B 6670   5.495  15.407   9.005  0.5191  0.0459  0.3315
  417loPI   C3B 6671   5.569  15.291   8.491 -0.0428  0.2012  0.2534
  417loPI   C4B 6672   5.399  15.132   8.093 -0.1949  0.1222  0.0693
  418loPI    C1 6673   5.925   1.503  10.588 -0.0116 -0.0389 -0.0627
  418loPI    C2 6674   5.867   1.254  10.895 -0.0088 -0.0204 -0.0470
  418loPI    C3 6675   5.806   1.646  10.942 -0.1286 -0.0318 -0.1046
  418loPI   PO4 6676   6.273   1.444  10.519  0.1183  0.1663 -0.1498
  418loPI   GL1 6677   6.547   1.456  10.212  0.0395  0.2195  0.0873
  418loPI   GL2 6678   6.589   1.733  10.049  0.1092  0.0010  0.1091
  418loPI   C1A 6679   6.284   1.350   9.838  0.0602  0.2026 -0.3296
  418loPI   C2A 6680   6.194   1.280   9.353 -0.0723  0.1845 -0.0881
  418loPI   C3A 6681   6.021   1.181   9.035  0.1622  0.1075 -0.1017
  418loPI   C4A 6682   6.072   1.184   8.609 -0.0058 -0.0315 -0.0792
  418loPI   C5A 6683   6.259   1.130   8.188  0.0833 -0.2020 -0.0932
  418loPI   C6A 6684   6.083   0.964   7.810 -0.1256  0.1650  0.1096
  418loPI   C1B 6685   6.807   1.825   9.784 -0.3778 -0.0042  0.1485
  418loPI   C2B 6686   6.828   1.946   9.380  0.0849  0.0329  0.2181
  418loPI   C3B 6687   6.758   1.930   8.950  0.0602  0.0407 -0.0554
  418loPI   C4B 6688   6.771   1.665   8.688  0.0430  0.2838  0.2911
  419loPI    C1 6689  15.429   8.526  10.684 -0.0797  0.0385 -0.0913
  419loPI    C2 6690  15.358   8.843  10.917  0.0571 -0.0702  0.1011
  419loPI    C3 6691  15.375   8.477  11.078 -0.0385 -0.1690 -0.1103
  419loPI   PO4 6692  15.325   8.532  10.401  0.0794 -0.0918 -0.1995
  419loPI   GL1 6693  14.979   8.260  10.101  0.1241 -0.1289 -0.0728
  419loPI   GL2 6694  14.740   8.234   9.814  0.0543 -0.2020  0.0547
  419loPI   C1A 6695  15.242   8.055   9.799 -0.0046  0.4350  0.3303
  419loPI   C2A 6696  15.244   7.855   9.398  0.2658 -0.2066  0.0545
  419loPI   C3A 6697  15.262   7.849   8.997  0.2867  0.0760 -0.1205
  419loPI   C4A 6698  15.322   8.000   8.580  0.0631  0.1656  0.0472
  419loPI   C5A 6699  15.349   8.075   8.062 -0.0169  0.2669  0.2444
  419loPI   C6A 6700  15.738   7.939   7.858 -0.0130 -0.0010 -0.1547
  419loPI   C1B 6701  14.838   8.149   9.494  0.0081  0.1421  0.1464
  419loPI   C2B 6702  14.838   8.225   9.140  0.1199 -0.2589  0.1903
  419loPI   C3B 6703  14.837   8.280   8.732  0.1652  0.1297  0.0550
  419loPI   C4B 6704  14.885   8.137   8.268  0.0245 -0.0503 -0.2366
  420loPI    C1 6705  12.220   5.839  10.521  0.1902  0.2301  0.3324
  420loPI    C2 6706  12.272   5.523  10.761  0.1757  0.0802  0.1411
  420loPI    C3 6707  12.534   5.597  10.469 -0.1855 -0.1574 -0.2540
  420loPI   PO4 6708  12.020   5.820  10.433  0.0870 -0.0812 -0.1086
  420loPI   GL1 6709  11.879   6.131  10.079  0.0870  0.1212 -0.0658
  420loPI   GL2 6710  11.543   6.152  10.069 -0.2278  0.1839  0.1403
  420loPI   C1A 6711  11.935   6.086   9.698 -0.2642 -0.0188  0.4696
  420loPI   C2A 6712  12.045   5.900   9.303 -0.1213 -0.3759 -0.1815
  420loPI   C3A 6713  12.061   5.895   8.867 -0.2181 -0.0479 -0.0826
  420loPI   C4A 6714  12.262   5.788   8.497  0.2756 -0.0341  0.0337
  420loPI   C5A 6715  12.625   5.748   8.240 -0.1445 -0.1907  0.0225
  420loPI   C6A 6716  12.496   5.854   7.737 -0.2413 -0.0600  0.1768
  420loPI   C1B 6717  11.494   6.202   9.562 -0.2076  0.0228 -0.0077
  420loPI   C2B 6718  11.584   6.110   9.066 -0.1326  0.2824  0.0386
  420loPI   C3B 6719  11.597   6.018   8.701  0.1749 -0.0400 -0.1712
  420loPI   C4B 6720  11.772   5.783   8.327 -0.2013 -0.1085  0.1606
  421loPI    C1 6721   0.410   7.475  10.234 -0.0338  0.0607 -0.0754
  421loPI    C2 6722   0.093   7.641  10.054 -0.0687 -0.1473 -0.2082
  421loPI    C3 6723   0.105   7.245  10.114  0.1793 -0.1450 -0.2324
  421loPI   PO4 6724   0.613   7.553  10.141 -0.2598 -0.0367 -0.1627
  421loPI   GL1 6725   0.806   7.657   9.760  0.0484  0.0617 -0.3712
  421loPI   GL2 6726   0.475   7.815   9.758  0.0705  0.0409  0.0094
  421loPI   C1A 6727   0.668   7.621   9.366 -0.3975  0.2448 -0.0157
  421loPI   C2A 6728   0.491   7.682   8.992 -0.1868  0.2166  0.0129
  421loPI   C3A 6729   0.671   7.808   8.587  0.0839 -0.2565  0.0179
  421loPI   C4A 6730   0.529   8.162   8.264 -0.2011 -0.2091  0.0136
  421loPI   C5A 6731   0.415   8.010   7.953  0.0522 -0.0865  0.2447
  421loPI   C6A 6732   0.172   7.695   7.752 -0.1118 -0.0431 -0.1747
  421loPI   C1B 6733   0.129   7.624   9.539  0.0185  0.0924  0.1634
  421loPI   C2B 6734   0.080   7.411   9.172  0.0758 -0.4207  0.1361
  421loPI   C3B 6735   0.112   7.325   8.770  0.1866 -0.3076 -0.1885
  421loPI   C4B 6736   0.036   7.019   8.389  0.0835  0.1431 -0.1517
  422loPI    C1 6737   5.444   7.024   9.847  0.1382  0.1358  0.0896
  422loPI    C2 6738   5.818   6.917   9.941  0.0914 -0.2182 -0.1077
  422loPI    C3 6739   5.608   7.150  10.189  0.3647 -0.1979  0.1093
  422loPI   PO4 6740   5.354   6.752   9.755  0.2972 -0.2479  0.1297
  422loPI   GL1 6741   5.150   6.692   9.478  0.2238  0.0016  0.1614
  422loPI   GL2 6742   4.888   6.520   9.579  0.0938  0.1686 -0.2184
  422loPI   C1A 6743   5.281   6.697   9.067 -0.0465  0.0233 -0.1606
  422loPI   C2A 6744   5.154   6.611   8.647 -0.0970  0.0044  0.1586
  422loPI   C3A 6745   4.830   6.512   8.354 -0.1100 -0.0620  0.0825
  422loPI   C4A 6746   4.804   6.222   8.038  0.1889 -0.4244  0.2113
  422loPI   C5A 6747   4.429   6.130   7.773  0.3559 -0.0078 -0.2743
  422loPI   C6A 6748   4.111   5.872   7.851 -0.2421  0.0734 -0.1849
  422loPI   C1B 6749   4.774   6.414   9.147  0.0535 -0.0058 -0.1121
  422loPI   C2B 6750   4.506   6.555   8.746 -0.1473 -0.0334  0.1250
  422loPI   C3B 6751   4.301   6.521   8.329 -0.2641  0.1368  0.0352
  422loPI   C4B 6752   4.094   6.517   7.965 -0.0555 -0.1116 -0.1012
  423loPI    C1 6753  16.884   9.658  10.408 -0.0693  0.0703 -0.0042
  423loPI    C2 6754  16.834   9.769  10.789 -0.0767  0.1506 -0.0284
  423loPI    C3 6755  17.190   9.812  10.614 -0.0357 -0.0168  0.0116
  423loPI   PO4 6756  16.773   9.726  10.234 -0.0691  0.2030 -0.2266
  423loPI   GL1 6757  16.925   9.588   9.837  0.2015 -0.0115 -0.0019
  423loPI   GL2 6758  16.950   9.245   9.687 -0.2124  0.2762  0.1744
  423loPI   C1A 6759  16.931   9.985   9.556 -0.4742  0.1394 -0.0283
  423loPI   C2A 6760  16.770  10.294   9.325 -0.1087 -0.1837 -0.1015
  423loPI   C3A 6761  16.375  10.498   9.132  0.2684  0.0397 -0.2295
  423loPI   C4A 6762  16.098  10.456   8.822  0.0974 -0.0002 -0.1539
  423loPI   C5A 6763  16.111  10.464   8.375 -0.0309  0.0777  0.0010
  423loPI   C6A 6764  15.984  10.364   7.900  0.2509  0.0605  0.1263
  423loPI   C1B 6765  16.807   9.238   9.236  0.0116  0.0515  0.0832
  423loPI   C2B 6766  16.688   9.195   8.892 -0.0009 -0.0127  0.2190
  423loPI   C3B 6767  16.601   9.161   8.476 -0.1870  0.1376  0.0376
  423loPI   C4B 6768  16.386   9.127   8.081  0.0779 -0.1656  0.0748
  424loPI    C1 6769  11.123   0.220  11.104 -0.1849  0.2683 -0.1140
  424loPI    C2 6770  10.838  -0.048  11.022  0.0969 -0.0353 -0.1222
  424loPI    C3 6771  10.871   0.102  11.391  0.0871 -0.1959 -0.0554
  424loPI   PO4 6772  11.102   0.289  10.788 -0.1925 -0.0820 -0.0668
  424loPI   GL1 6773  11.091   0.254  10.345  0.0362  0.0311  0.2051
  424loPI   GL2 6774  11.101   0.564  10.289  0.1878 -0.1249  0.0421
  424loPI   C1A 6775  11.426   0.377   9.947 -0.2217  0.0748  0.0139
  424loPI   C2A 6776  11.387   0.495   9.503  0.0686  0.1839  0.1099
  424loPI   C3A 6777  11.364   0.486   9.085  0.0461 -0.0845 -0.2454
  424loPI   C4A 6778  11.678   0.749   8.717  0.2160  0.0709 -0.1649
  424loPI   C5A 6779  11.448   0.981   8.462 -0.0854  0.1267  0.0254
  424loPI   C6A 6780  11.306   1.169   7.990  0.0943  0.0023 -0.2206
  424loPI   C1B 6781  10.956   0.499   9.801  0.2273 -0.1594 -0.0576
  424loPI   C2B 6782  10.586   0.514   9.608  0.1791 -0.0154 -0.0526
  424loPI   C3B 6783  10.446   0.981   9.535 -0.1518  0.0252  0.1917
  424loPI   C4B 6784  10.287   1.319   9.453 -0.2322  0.0600 -0.0601
  425loPI    C1 6785   9.722   8.554  10.384  0.2840  0.1589 -0.1099
  425loPI    C2 6786   9.714   8.229  10.616  0.0879  0.1357 -0.1480
  425loPI    C3 6787   9.604   8.584  10.765  0.0537  0.1380 -0.1784
  425loPI   PO4 6788   9.949   8.481  10.227 -0.0127 -0.2788  0.0493
  425loPI   GL1 6789  10.086   8.757   9.900  0.0473  0.0794  0.2855
  425loPI   GL2 6790  10.402   8.542   9.948  0.1403 -0.0148 -0.1274
  425loPI   C1A 6791  10.278   8.873   9.526 -0.1611 -0.1944 -0.0713
  425loPI   C2A 6792  10.252   8.739   9.080  0.2043  0.0673  0.1747
  425loPI   C3A 6793  10.300   8.501   8.702  0.0944  0.0484 -0.1388
  425loPI   C4A 6794  10.145   8.474   8.290 -0.0651 -0.3079  0.1042
  425loPI   C5A 6795  10.353   8.628   7.916  0.2919  0.2892  0.1716
  425loPI   C6A 6796  10.806   8.562   7.877 -0.3533 -0.0312 -0.1099
  425loPI   C1B 6797  10.294   8.387   9.503 -0.0517 -0.3850 -0.2086
  425loPI   C2B 6798  10.282   8.143   9.085  0.2260 -0.0326 -0.0380
  425loPI   C3B 6799  10.314   8.021   8.652 -0.0763 -0.0657  0.1400
  425loPI   C4B 6800  10.329   8.001   8.194  0.1710  0.1609 -0.2547
  426loPI    C1 6801   9.458   0.245  10.071 -0.0485  0.1295 -0.2255
  426loPI    C2 6802   9.229   0.292  10.395  0.0371 -0.2027 -0.1134
  426loPI    C3 6803   9.556   0.517  10.347 -0.0863 -0.0125 -0.0706
  426loPI   PO4 6804   9.589   0.078   9.977 -0.0686 -0.2109  0.0906
  426loPI   GL1 6805   9.585   0.066   9.546  0.2166 -0.0183  0.2336
  426loPI   GL2 6806   9.511  -0.253   9.613 -0.0909  0.1191 -0.1581
  426loPI   C1A 6807   9.524  -0.040   9.139  0.3067  0.0344 -0.1922
  426loPI   C2A 6808   9.355   0.027   8.757 -0.1548  0.1825  0.3058
  426loPI   C3A 6809   9.187   0.006   8.324  0.0100 -0.0577  0.0472
  426loPI   C4A 6810   9.114  -0.167   7.956 -0.2505 -0.1311 -0.1179
  426loPI   C5A 6811   8.980  -0.283   7.561  0.2000  0.0956  0.2306
  426loPI   C6A 6812   8.860  -0.406   7.227 -0.1622  0.3188  0.2586
  426loPI   C1B 6813   9.091  -0.235   9.552  0.1670 -0.1389 -0.2437
  426loPI   C2B 6814   9.031  -0.240   9.110 -0.0501 -0.1165 -0.1039
  426loPI   C3B 6815   8.923  -0.239   8.705  0.1402  0.2409 -0.0769
  426loPI   C4B 6816   8.854  -0.646   8.406  0.1242  0.1853 -0.0696
  427loPI    C1 6817   7.829   4.855  10.289 -0.0053  0.0774  0.0179
  427loPI    C2 6818   8.116   5.036  10.500 -0.0125 -0.1252  0.2049
  427loPI    C3 6819   7.777   4.924  10.680 -0.0902 -0.1451  0.0473
  427loPI   PO4 6820   7.845   4.861  10.053  0.2514 -0.1170 -0.1011
  427loPI   GL1 6821   8.059   4.810   9.627  0.0631 -0.0390 -0.0312
  427loPI   GL2 6822   8.008   4.547   9.696 -0.0882  0.0079 -0.1500
  427loPI   C1A 6823   7.999   4.983   9.164  0.2010 -0.0275 -0.2310
  427loPI   C2A 6824   7.866   5.337   8.803  0.2699  0.2689  0.0109
  427loPI   C3A 6825   7.718   5.420   8.532 -0.2331  0.1831 -0.1258
  427loPI   C4A 6826   7.842   5.416   8.112 -0.1655 -0.0797 -0.1575
  427loPI   C5A 6827   8.056   5.568   7.743 -0.1851  0.0788  0.2340
  427loPI   C6A 6828   8.228   5.561   7.382 -0.0360 -0.0632  0.0926
  427loPI   C1B 6829   7.883   4.494   9.342 -0.1614 -0.0915 -0.1413
  427loPI   C2B 6830   8.119   4.532   9.052  0.2388 -0.0089  0.0005
  427loPI   C3B 6831   8.157   4.789   8.681  0.0424  0.2534 -0.2055
  427loPI   C4B 6832   8.151   4.832   8.313  0.1710  0.0503 -0.1875
  428loPI    C1 6833   3.189  16.436  10.406 -0.1638 -0.1464 -0.0257
  428loPI    C2 6834   3.377  16.211  10.678  0.2197  0.1868 -0.0046
  428loPI    C3 6835   3.265  16.584  10.769 -0.2466  0.0766 -0.0976
  428loPI   PO4 6836   3.184  16.344  10.177  0.0019  0.1326  0.2061
  428loPI   GL1 6837   3.451  16.434   9.835  0.0720  0.1695 -0.0185
  428loPI   GL2 6838   3.281  16.706   9.718 -0.0854 -0.1837 -0.0807
  428loPI   C1A 6839   3.741  16.207   9.653  0.0742 -0.0639  0.3064
  428loPI   C2A 6840   3.810  16.235   9.191 -0.1102 -0.0533  0.0281
  428loPI   C3A 6841   3.721  16.159   8.684 -0.1629  0.1624 -0.3210
  428loPI   C4A 6842   3.292  16.234   8.515  0.0426  0.0557 -0.2495
  428loPI   C5A 6843   3.006  15.958   8.241 -0.5353 -0.1330  0.1910
  428loPI   C6A 6844   2.725  15.649   8.232 -0.2504 -0.1651 -0.1834
  428loPI   C1B 6845   3.476  16.598   9.336  0.2299  0.2886  0.1287
  428loPI   C2B 6846   3.488  16.567   8.910  0.0659  0.1268  0.0175
  428loPI   C3B 6847   3.296  16.782   8.586  0.1355  0.0914 -0.0485
  428loPI   C4B 6848   3.039  16.597   8.270 -0.2627 -0.3158 -0.0702
  429loPI    C1 6849  10.032   3.189  11.121 -0.1343  0.1757  0.1454
  429loPI    C2 6850   9.866   2.856  11.267  0.0272  0.0841  0.1219
  429loPI    C3 6851  10.020   3.128  11.516  0.1853 -0.0111  0.1301
  429loPI   PO4 6852  10.280   3.081  10.958 -0.1270  0.1027 -0.2290
  429loPI   GL1 6853  10.253   3.048  10.437 -0.2582 -0.0778 -0.2025
  429loPI   GL2 6854   9.884   3.010  10.570 -0.1014 -0.3450  0.3196
  429loPI   C1A 6855  10.334   2.802  10.063 -0.0538 -0.0704 -0.1075
  429loPI   C2A 6856  10.462   2.708   9.593  0.1138  0.1411 -0.2516
  429loPI   C3A 6857  10.409   2.683   9.161  0.0651 -0.1416 -0.1247
  429loPI   C4A 6858  10.373   2.502   8.776 -0.2057 -0.0049 -0.0853
  429loPI   C5A 6859  10.078   2.464   8.418 -0.0861  0.2876 -0.0454
  429loPI   C6A 6860   9.803   2.760   8.202  0.0764  0.1746  0.1736
  429loPI   C1B 6861   9.916   3.053  10.097 -0.1101  0.1164  0.0210
  429loPI   C2B 6862  10.005   2.934   9.709 -0.0295 -0.0066 -0.0358
  429loPI   C3B 6863   9.956   2.847   9.298 -0.0828  0.1723 -0.1051
  429loPI   C4B 6864   9.949   2.787   8.837 -0.0164 -0.2625 -0.1478
  430loPI    C1 6865   4.810  12.320  10.629 -0.1156 -0.0845  0.2402
  430loPI    C2 6866   5.165  12.168  10.526 -0.1125 -0.0630  0.2191
  430loPI    C3 6867   5.129  12.384  10.861 -0.0622  0.1082  0.1160
  430loPI   PO4 6868   4.689  12.331  10.388  0.1554  0.3795 -0.0730
  430loPI   GL1 6869   4.890  12.443   9.985 -0.5328 -0.2102  0.4099
  430loPI   GL2 6870   4.690  12.678   9.980  0.0588  0.0554  0.1605
  430loPI   C1A 6871   4.578  12.275   9.618  0.0793  0.1221 -0.0878
  430loPI   C2A 6872   4.566  12.402   9.223  0.2013 -0.0506  0.0122
  430loPI   C3A 6873   4.610  12.598   8.889  0.1285  0.0839  0.3230
  430loPI   C4A 6874   4.784  12.379   8.531 -0.1367 -0.1597 -0.0151
  430loPI   C5A 6875   5.078  12.200   8.209  0.2370  0.1697 -0.0073
  430loPI   C6A 6876   5.024  11.966   7.899 -0.0739  0.1102  0.1425
  430loPI   C1B 6877   5.004  12.578   9.545  0.2353  0.0848 -0.1384
  430loPI   C2B 6878   5.084  12.608   9.098 -0.3410 -0.3703 -0.1129
  430loPI   C3B 6879   5.268  12.538   8.797 -0.0081  0.0311  0.0247
  430loPI   C4B 6880   5.352  12.699   8.421  0.1033 -0.0908 -0.0480
  431loPI    C1 6881   3.532   8.618  10.294  0.0306 -0.1796 -0.1551
  431loPI    C2 6882   3.378   8.954  10.449  0.2828 -0.0511 -0.1766
  431loPI    C3 6883   3.515   8.666  10.691 -0.1614 -0.2516 -0.1538
  431loPI   PO4 6884   3.460   8.708  10.050  0.0061 -0.0310 -0.0413
  431loPI   GL1 6885   3.577   8.935   9.606 -0.1985 -0.0905 -0.0639
  431loPI   GL2 6886   3.585   9.219   9.531 -0.2123  0.0644  0.0039
  431loPI   C1A 6887   3.609   8.719   9.288 -0.1234  0.1153  0.0126
  431loPI   C2A 6888   3.749   8.454   8.796  0.1205 -0.3691  0.0578
  431loPI   C3A 6889   3.931   8.523   8.368 -0.0628  0.2240  0.2045
  431loPI   C4A 6890   4.332   8.521   8.178 -0.2758  0.0441 -0.0434
  431loPI   C5A 6891   4.742   8.409   8.012 -0.1701  0.0410  0.0558
  431loPI   C6A 6892   5.049   8.476   7.728 -0.0116 -0.1110 -0.0668
  431loPI   C1B 6893   3.694   9.268   9.107  0.0824  0.2305  0.2569
  431loPI   C2B 6894   3.728   9.384   8.625  0.2211  0.0206 -0.0806
  431loPI   C3B 6895   3.715   9.373   8.259 -0.1181 -0.1290  0.3088
  431loPI   C4B 6896   3.798   9.300   7.847  0.0209  0.2523  0.0572
  432loPI    C1 6897  11.626   1.317  10.726  0.0906  0.2990 -0.1683
  432loPI    C2 6898  11.485   1.669  10.855  0.0529  0.2604 -0.1034
  432loPI    C3 6899  11.451   1.344  11.085  0.2623  0.2537 -0.0803
  432loPI   PO4 6900  11.580   1.300  10.574  0.0604  0.2193 -0.1622
  432loPI   GL1 6901  11.312   1.196  10.270  0.1117 -0.1296  0.2061
  432loPI   GL2 6902  10.996   1.069  10.307  0.1834  0.1925 -0.0626
  432loPI   C1A 6903  11.575   1.310   9.900 -0.1046  0.0850 -0.0877
  432loPI   C2A 6904  11.396   1.175   9.456 -0.4565  0.0745 -0.0452
  432loPI   C3A 6905  11.316   0.954   9.112  0.1278 -0.2490 -0.0129
  432loPI   C4A 6906  11.042   0.858   8.780  0.1522 -0.0017 -0.0122
  432loPI   C5A 6907  10.605   1.008   8.644  0.2620 -0.0034 -0.0140
  432loPI   C6A 6908  10.270   1.238   8.391  0.2527  0.1650  0.0045
  432loPI   C1B 6909  11.096   0.940   9.841 -0.2026 -0.0721  0.4165
  432loPI   C2B 6910  10.924   0.900   9.430 -0.0635  0.0136 -0.0228
  432loPI   C3B 6911  10.678   0.843   9.135 -0.1039  0.0457  0.3104
  432loPI   C4B 6912  10.192   1.119   9.008 -0.1365 -0.0940  0.0572
  433loPI    C1 6913   2.610   7.230   9.919 -0.1143 -0.1303  0.1413
  433loPI    C2 6914   2.954   7.095   9.765 -0.2241 -0.2127 -0.0345
  433loPI    C3 6915   2.855   7.005  10.142 -0.0090 -0.1085  0.0489
  433loPI   PO4 6916   2.459   7.209   9.755  0.2189  0.2526  0.0039
  433loPI   GL1 6917   2.552   6.997   9.470 -0.3357 -0.0154 -0.0974
  433loPI   GL2 6918   2.548   7.266   9.225  0.0829 -0.0255 -0.1692
  433loPI   C1A 6919   2.770   6.799   9.121 -0.2119 -0.2176  0.6351
  433loPI   C2A 6920   2.833   6.563   8.707  0.1096 -0.0585 -0.2907
  433loPI   C3A 6921   2.869   6.679   8.276 -0.0127 -0.3348  0.0007
  433loPI   C4A 6922   3.108   6.925   8.061 -0.0840  0.1274  0.0423
  433loPI   C5A 6923   3.316   7.215   8.311 -0.4022  0.4683 -0.4607
  433loPI   C6A 6924   3.550   7.242   8.686 -0.3020 -0.0212 -0.0395
  433loPI   C1B 6925   2.673   7.380   8.863  0.1714 -0.1038  0.0770
  433loPI   C2B 6926   2.847   7.278   8.454  0.0523  0.2065  0.1270
  433loPI   C3B 6927   2.685   7.224   8.012 -0.1926  0.2346 -0.2191
  433loPI   C4B 6928   2.518   7.219   7.662 -0.0020 -0.2018  0.0050
  434loPI    C1 6929   1.239   3.719  10.518 -0.2126 -0.1487 -0.1575
  434loPI    C2 6930   1.399   3.747  10.153 -0.0432  0.0955 -0.0668
  434loPI    C3 6931   1.634   3.764  10.476 -0.1833 -0.1968  0.0539
  434loPI   PO4 6932   1.041   3.518  10.500  0.0169 -0.0786  0.0934
  434loPI   GL1 6933   0.675   3.500  10.202 -0.1968 -0.0829 -0.2355
  434loPI   GL2 6934   0.754   3.176  10.186 -0.2122 -0.1769  0.0801
  434loPI   C1A 6935   0.738   3.657   9.729 -0.1619 -0.1176 -0.2291
  434loPI   C2A 6936   0.698   3.865   9.262 -0.2684 -0.2101 -0.0593
  434loPI   C3A 6937   0.641   3.763   8.821  0.1138 -0.2450 -0.0972
  434loPI   C4A 6938   0.293   3.587   8.582  0.1187  0.0042  0.2248
  434loPI   C5A 6939   0.142   3.525   8.275 -0.0102 -0.1996 -0.1067
  434loPI   C6A 6940  -0.049   3.730   7.853 -0.3446  0.2066 -0.0544
  434loPI   C1B 6941   0.685   3.144   9.689  0.0061  0.0218 -0.0848
  434loPI   C2B 6942   0.668   3.327   9.261 -0.0312  0.1493  0.0128
  434loPI   C3B 6943   0.619   3.290   8.785  0.0391  0.1795  0.0098
  434loPI   C4B 6944   0.506   3.192   8.371 -0.2421  0.1704  0.2402
  435loPI    C1 6945  13.533   0.150  10.680 -0.1501  0.1153  0.2455
  435loPI    C2 6946  13.903   0.145  10.833 -0.0886 -0.3391  0.0946
  435loPI    C3 6947  13.610  -0.063  11.009 -0.2612 -0.0315  0.1777
  435loPI   PO4 6948  13.596   0.099  10.414 -0.3189  0.1195 -0.1610
  435loPI   GL1 6949  13.514   0.177  10.025  0.0391  0.0671  0.0047
  435loPI   GL2 6950  13.302  -0.083   9.917  0.2481  0.1492  0.1851
  435loPI   C1A 6951  13.537   0.177   9.600 -0.1302  0.0277  0.1709
  435loPI   C2A 6952  13.391   0.452   9.205 -0.1118  0.0524 -0.3272
  435loPI   C3A 6953  13.050   0.768   9.046 -0.1771 -0.0547 -0.0652
  435loPI   C4A 6954  12.740   1.039   9.261  0.0893 -0.0623 -0.0843
  435loPI   C5A 6955  12.444   1.317   9.429 -0.1570 -0.2161 -0.2383
  435loPI   C6A 6956  12.297   1.727   9.389  0.1474  0.1707 -0.1240
  435loPI   C1B 6957  13.336  -0.253   9.534 -0.2208  0.1188  0.2289
  435loPI   C2B 6958  13.253  -0.268   9.071  0.2005  0.2751  0.1365
  435loPI   C3B 6959  13.349   0.100   8.864 -0.3061  0.0153  0.0560
  435loPI   C4B 6960  13.340   0.480   8.653  0.1250 -0.0169 -0.1842
  436loPI    C1 6961  16.352   0.513  10.885  0.0842 -0.0215  0.0886
  436loPI    C2 6962  16.427   0.555  11.275 -0.2646  0.1685  0.1389
  436loPI    C3 6963  16.659   0.739  11.006 -0.0354  0.0536  0.2552
  436loPI   PO4 6964  16.106   0.399  10.900  0.3020  0.2331 -0.0968
  436loPI   GL1 6965  15.865   0.236  10.546 -0.0875 -0.1514 -0.0484
  436loPI   GL2 6966  15.666   0.270  10.282  0.0183  0.0387  0.0818
  436loPI   C1A 6967  16.143   0.219  10.161 -0.1106 -0.1207  0.2793
  436loPI   C2A 6968  16.488   0.612  10.057  0.2375  0.1376  0.2658
  436loPI   C3A 6969  16.589   0.859   9.729 -0.0085  0.1744 -0.1561
  436loPI   C4A 6970  16.683   0.937   9.302 -0.3217 -0.0150 -0.1788
  436loPI   C5A 6971  16.565   0.997   8.944  0.0190 -0.1488 -0.0253
  436loPI   C6A 6972  16.707   1.298   8.690 -0.1571 -0.1265 -0.1278
  436loPI   C1B 6973  15.723   0.217   9.880  0.0319  0.0352 -0.1953
  436loPI   C2B 6974  15.868   0.138   9.529  0.1981  0.0856 -0.3321
  436loPI   C3B 6975  15.971   0.134   9.040  0.0329 -0.1143  0.3865
  436loPI   C4B 6976  16.167  -0.208   8.801  0.0110  0.1012 -0.0144
  437loPI    C1 6977   6.590   0.709  10.656 -0.1783  0.0692  0.1550
  437loPI    C2 6978   6.326   0.414  10.597  0.0017 -0.0795  0.0842
  437loPI    C3 6979   6.455   0.495  10.966 -0.0243 -0.1102  0.1002
  437loPI   PO4 6980   6.595   0.859  10.401 -0.0986  0.1527  0.0658
  437loPI   GL1 6981   6.901   0.887  10.046  0.0562  0.0098 -0.0106
  437loPI   GL2 6982   6.551   0.800   9.907 -0.2175 -0.2033  0.2133
  437loPI   C1A 6983   7.197   0.840   9.647  0.1497 -0.3339 -0.4116
  437loPI   C2A 6984   7.108   1.110   9.379  0.0302 -0.0201  0.0566
  437loPI   C3A 6985   6.983   0.948   9.029  0.0078  0.4221 -0.1936
  437loPI   C4A 6986   7.214   0.830   8.623  0.3036  0.0975 -0.1817
  437loPI   C5A 6987   7.458   0.610   8.211  0.0104 -0.2964 -0.1960
  437loPI   C6A 6988   7.717   0.558   7.792 -0.0098 -0.0781  0.0679
  437loPI   C1B 6989   6.665   0.853   9.565 -0.1970  0.1339 -0.2595
  437loPI   C2B 6990   6.512   0.879   9.158 -0.1465  0.1098  0.2758
  437loPI   C3B 6991   6.355   0.800   8.704  0.3199 -0.1432  0.2279
  437loPI   C4B 6992   6.118   0.739   8.357 -0.3170 -0.1361 -0.2053
  438loPI    C1 6993   2.331  15.013  10.652  0.1174  0.0437  0.0104
  438loPI    C2 6994   2.615  14.953  10.927  0.0147 -0.0551  0.0959
  438loPI    C3 6995   2.233  14.992  11.040  0.0128  0.2380 -0.0041
  438loPI   PO4 6996   2.376  15.147  10.526 -0.1286  0.4779  0.1244
  438loPI   GL1 6997   2.673  15.129  10.137  0.0806  0.2820  0.2769
  438loPI   GL2 6998   2.497  15.363  10.025 -0.3655  0.1478  0.1270
  438loPI   C1A 6999   2.837  15.035   9.713 -0.3276 -0.0688  0.0408
  438loPI   C2A 7000   2.875  15.076   9.234  0.3336  0.1570  0.0221
  438loPI   C3A 7001   2.949  15.295   8.875 -0.4571  0.0987 -0.0114
  438loPI   C4A 7002   3.235  15.431   8.578  0.0345  0.0112 -0.0063
  438loPI   C5A 7003   3.487  15.686   8.355 -0.0123  0.3264  0.0020
  438loPI   C6A 7004   3.419  15.924   7.966  0.2042  0.3355 -0.1681
  438loPI   C1B 7005   2.491  15.417   9.631 -0.0850  0.1975  0.2030
  438loPI   C2B 7006   2.711  15.539   9.247 -0.0803  0.1478  0.2725
  438loPI   C3B 7007   3.092  15.691   9.173  0.2439  0.0171  0.0810
  438loPI   C4B 7008   3.303  15.947   8.982  0.3539 -0.1493 -0.3809
  439loPI    C1 7009  17.725  12.764  10.277  0.2437 -0.1534 -0.1278
  439loPI    C2 7010  17.497  12.445  10.355  0.0845 -0.0340 -0.0976
  439loPI    C3 7011  17.577  12.709  10.645 -0.0357  0.1116 -0.1955
  439loPI   PO4 7012  17.873  12.673  10.170 -0.0363  0.1342  0.0350
  439loPI   GL1 7013  18.133  12.412   9.914  0.0715 -0.0608  0.0425
  439loPI   GL2 7014  18.466  12.667   9.822  0.0471 -0.3459  0.1534
  439loPI   C1A 7015  18.241  12.412   9.478 -0.0308 -0.0556  0.2846
  439loPI   C2A 7016  18.179  12.493   9.068  0.1868 -0.2114  0.2391
  439loPI   C3A 7017  18.123  12.485   8.685  0.2177  0.1003  0.1554
  439loPI   C4A 7018  18.189  12.587   8.220  0.0906  0.1215  0.2320
  439loPI   C5A 7019  18.013  12.593   7.856 -0.0961  0.3388  0.1982
  439loPI   C6A 7020  17.539  12.732   7.717  0.0654  0.0688  0.1580
  439loPI   C1B 7021  18.619  12.763   9.360  0.0448 -0.0173 -0.0521
  439loPI   C2B 7022  18.443  12.925   8.990  0.4499  0.1141 -0.1392
  439loPI   C3B 7023  18.455  12.923   8.620  0.1706 -0.0835  0.1469
  439loPI   C4B 7024  18.447  13.031   8.115 -0.1536  0.0420 -0.3572
  440loPI    C1 7025   1.466   1.639  10.490 -0.1408  0.2452  0.1476
  440loPI    C2 7026   1.276   1.410  10.758  0.1044  0.2090  0.2941
  440loPI    C3 7027   1.121   1.762  10.650 -0.2198  0.0264  0.1493
  440loPI   PO4 7028   1.585   1.491  10.255 -0.0427 -0.0532 -0.1035
  440loPI   GL1 7029   1.327   1.459   9.899  0.2554 -0.1131  0.1618
  440loPI   GL2 7030   1.173   1.695   9.902  0.0786 -0.1196 -0.4248
  440loPI   C1A 7031   1.407   1.597   9.392 -0.3006 -0.0910 -0.2462
  440loPI   C2A 7032   1.364   1.668   9.012 -0.2713 -0.0858 -0.0983
  440loPI   C3A 7033   1.330   1.468   8.577 -0.3925  0.0404 -0.0595
  440loPI   C4A 7034   1.280   1.253   8.113 -0.0915  0.3159 -0.0162
  440loPI   C5A 7035   1.087   1.468   7.707  0.3549  0.2385 -0.0183
  440loPI   C6A 7036   0.758   1.350   7.364  0.0801  0.2371  0.1221
  440loPI   C1B 7037   1.015   1.933   9.558 -0.1384  0.0889  0.0981
  440loPI   C2B 7038   0.911   1.966   9.092 -0.0335  0.0945 -0.2280
  440loPI   C3B 7039   0.974   1.772   8.706  0.3138  0.1666 -0.0031
  440loPI   C4B 7040   1.005   1.728   8.222 -0.0350  0.2208  0.1252
  441loPI    C1 7041  16.248   1.770  10.693 -0.2585  0.0784  0.0297
  441loPI    C2 7042  16.414   1.499  10.937  0.0623  0.0929 -0.1664
  441loPI    C3 7043  16.253   1.832  11.088  0.2384  0.0917  0.0278
  441loPI   PO4 7044  16.098   1.603  10.489 -0.1428 -0.0700 -0.1073
  441loPI   GL1 7045  15.995   1.783  10.080  0.2888 -0.1213 -0.2337
  441loPI   GL2 7046  15.805   1.510   9.972 -0.2009  0.1236 -0.0042
  441loPI   C1A 7047  16.126   1.822   9.677  0.0938  0.1822 -0.0544
  441loPI   C2A 7048  16.061   1.815   9.226  0.0959 -0.1345  0.2202
  441loPI   C3A 7049  16.331   1.768   8.839  0.1042  0.1622  0.2415
  441loPI   C4A 7050  16.482   1.769   8.434 -0.0308  0.0463  0.3092
  441loPI   C5A 7051  16.418   1.721   8.011 -0.2650  0.2218 -0.0212
  441loPI   C6A 7052  16.738   1.812   7.658 -0.0039 -0.0432 -0.0040
  441loPI   C1B 7053  15.738   1.505   9.525  0.1993  0.0783 -0.0098
  441loPI   C2B 7054  15.659   1.513   9.092  0.3010  0.3295 -0.0314
  441loPI   C3B 7055  15.750   1.505   8.629 -0.0266 -0.2277 -0.2280
  441loPI   C4B 7056  15.911   1.744   8.369  0.0619 -0.1005 -0.3922
  442loPI    C1 7057  14.553   3.753  10.788 -0.0841 -0.1485 -0.1072
  442loPI    C2 7058  14.548   3.365  10.885 -0.1805 -0.0971  0.0985
  442loPI    C3 7059  14.667   3.637  11.153 -0.0469  0.0102 -0.0680
  442loPI   PO4 7060  14.660   3.722  10.547 -0.2919 -0.1013  0.4554
  442loPI   GL1 7061  14.790   3.871  10.211  0.1214 -0.0422  0.1275
  442loPI   GL2 7062  15.078   4.098  10.122 -0.2464  0.0158 -0.0002
  442loPI   C1A 7063  14.835   3.656   9.852  0.1183  0.1719 -0.0572
  442loPI   C2A 7064  14.944   3.773   9.420  0.0088 -0.0506 -0.0308
  442loPI   C3A 7065  14.866   3.755   9.031 -0.0491 -0.1704  0.1312
  442loPI   C4A 7066  14.671   3.928   8.585  0.2726  0.0515 -0.0953
  442loPI   C5A 7067  14.568   3.994   8.161  0.0648  0.0760 -0.1009
  442loPI   C6A 7068  14.364   4.274   7.876  0.1070 -0.1253  0.1404
  442loPI   C1B 7069  14.940   4.221   9.804  0.4012  0.3517  0.2310
  442loPI   C2B 7070  14.898   4.242   9.380  0.1977 -0.2577 -0.2401
  442loPI   C3B 7071  14.982   4.271   8.939 -0.1488  0.3074  0.2195
  442loPI   C4B 7072  15.019   4.309   8.539  0.1694  0.0514 -0.1152
  443loPI    C1 7073   9.879   2.153  11.065  0.0718  0.1279  0.1497
  443loPI    C2 7074   9.647   1.992  11.349 -0.0020  0.2942  0.1846
  443loPI    C3 7075   9.711   2.387  11.342 -0.0526  0.2993 -0.0678
  443loPI   PO4 7076   9.752   2.134  10.775  0.4278  0.1632  0.0346
  443loPI   GL1 7077   9.688   2.442  10.437 -0.0922  0.2075  0.1291
  443loPI   GL2 7078   9.790   2.621  10.215  0.0318 -0.0913  0.0503
  443loPI   C1A 7079   9.642   2.087  10.169 -0.3001  0.0619  0.0087
  443loPI   C2A 7080   9.684   2.066   9.766 -0.1128 -0.1049  0.3457
  443loPI   C3A 7081   9.614   1.934   9.345 -0.0079  0.1090  0.1127
  443loPI   C4A 7082   9.608   1.898   8.987  0.0400 -0.2447  0.0108
  443loPI   C5A 7083   9.814   1.826   8.612  0.1223  0.0544  0.2243
  443loPI   C6A 7084  10.166   1.896   8.523  0.0920 -0.0369  0.4827
  443loPI   C1B 7085   9.545   2.573   9.913 -0.1332 -0.0522 -0.0257
  443loPI   C2B 7086   9.616   2.478   9.465 -0.0763 -0.2303 -0.1106
  443loPI   C3B 7087   9.569   2.508   9.121 -0.0573 -0.3119  0.2481
  443loPI   C4B 7088   9.598   2.339   8.637  0.0626 -0.1102 -0.1340
  444loPI    C1 7089   5.889  13.462  10.447  0.1350  0.0178 -0.0776
  444loPI    C2 7090   6.247  13.348  10.584  0.0202 -0.1146  0.1168
  444loPI    C3 7091   5.928  13.338  10.825 -0.1056  0.0530 -0.0399
  444loPI   PO4 7092   5.803  13.402  10.244 -0.2593 -0.0874 -0.0001
  444loPI   GL1 7093   5.785  13.493   9.829  0.2218  0.0188 -0.0361
  444loPI   GL2 7094   5.612  13.198   9.733 -0.0971  0.2062 -0.3199
  444loPI   C1A 7095   5.831  13.669   9.417  0.2209  0.0971  0.1634
  444loPI   C2A 7096   6.194  13.542   9.094 -0.0066 -0.2421 -0.1419
  444loPI   C3A 7097   6.406  13.475   8.732  0.1520  0.1671 -0.2402
  444loPI   C4A 7098   6.369  13.449   8.246  0.0227  0.0747 -0.0644
  444loPI   C5A 7099   5.971  13.461   8.005  0.1607  0.0351 -0.0103
  444loPI   C6A 7100   5.543  13.508   7.937  0.0946  0.2382 -0.1272
  444loPI   C1B 7101   5.642  13.187   9.323 -0.0239 -0.3747  0.1377
  444loPI   C2B 7102   5.741  13.366   8.961 -0.0591  0.2147  0.2241
  444loPI   C3B 7103   5.982  13.229   8.532  0.0459  0.3701  0.1150
  444loPI   C4B 7104   6.143  13.025   8.146 -0.0284  0.0868  0.0110
  445loPI    C1 7105   4.698  17.823  10.555 -0.0591  0.0095 -0.0751
  445loPI    C2 7106   4.464  18.088  10.743 -0.0944 -0.0784  0.0055
  445loPI    C3 7107   4.588  17.759  10.934 -0.0878 -0.1428 -0.1082
  445loPI   PO4 7108   4.702  17.815  10.372  0.1864 -0.1001 -0.2991
  445loPI   GL1 7109   4.682  17.650   9.942 -0.1005 -0.0847  0.0719
  445loPI   GL2 7110   4.392  17.467  10.051  0.3241  0.1347 -0.0812
  445loPI   C1A 7111   4.694  17.700   9.489  0.2133  0.2746 -0.1329
  445loPI   C2A 7112   4.774  17.682   8.990  0.1420  0.1369  0.0674
  445loPI   C3A 7113   4.783  17.811   8.575 -0.0966 -0.0574  0.2092
  445loPI   C4A 7114   5.102  17.948   8.300  0.2110  0.0418 -0.2392
  445loPI   C5A 7115   5.600  17.886   8.238 -0.0287 -0.1338  0.0596
  445loPI   C6A 7116   5.784  17.626   8.571 -0.0523  0.0368  0.2474
  445loPI   C1B 7117   4.447  17.290   9.669  0.3075  0.2200  0.0691
  445loPI   C2B 7118   4.628  17.246   9.264 -0.0866  0.2491  0.2876
  445loPI   C3B 7119   4.769  17.163   8.816 -0.0444 -0.1911 -0.1651
  445loPI   C4B 7120   5.004  17.401   8.458 -0.2734 -0.1850 -0.1214
  446loPI    C1 7121   1.090  16.539  10.227 -0.1925  0.1113  0.0485
  446loPI    C2 7122   1.049  16.545  10.625 -0.0970 -0.0527  0.0615
  446loPI    C3 7123   1.409  16.600  10.460 -0.1617  0.1706 -0.0087
  446loPI   PO4 7124   0.913  16.291  10.178  0.2614  0.0536  0.0070
  446loPI   GL1 7125   0.571  16.307   9.882  0.1539 -0.0781 -0.2766
  446loPI   GL2 7126   0.721  16.053   9.808 -0.1782 -0.1296 -0.0265
  446loPI   C1A 7127   0.433  16.549   9.455  0.5629 -0.2406 -0.0414
  446loPI   C2A 7128   0.189  16.579   9.029  0.0283  0.0711 -0.1139
  446loPI   C3A 7129   0.200  16.651   8.607  0.1650 -0.1759  0.0835
  446loPI   C4A 7130   0.203  16.488   8.084  0.3001  0.0338 -0.1935
  446loPI   C5A 7131   0.483  16.463   7.745 -0.2049 -0.0584 -0.0207
  446loPI   C6A 7132   1.001  16.471   7.623  0.3091 -0.2696  0.2056
  446loPI   C1B 7133   0.573  15.844   9.523 -0.0495  0.2267 -0.0362
  446loPI   C2B 7134   0.587  15.702   9.092 -0.1259 -0.1162 -0.0096
  446loPI   C3B 7135   0.489  15.650   8.700 -0.1073 -0.2310 -0.0244
  446loPI   C4B 7136   0.259  15.623   8.205  0.0747 -0.3334 -0.1862
  447loPI    C1 7137  11.306  11.184  10.262  0.2107 -0.0319  0.0717
  447loPI    C2 7138  11.533  11.033  10.554 -0.1640  0.1131  0.4486
  447loPI    C3 7139  11.410  11.413  10.573  0.0996  0.2344 -0.0832
  447loPI   PO4 7140  11.317  10.919  10.096 -0.4371 -0.2079 -0.4388
  447loPI   GL1 7141  11.538  10.832   9.715  0.1611  0.1247  0.0843
  447loPI   GL2 7142  11.125  10.783   9.664 -0.1783 -0.0489 -0.0990
  447loPI   C1A 7143  11.856  10.529   9.504  0.5621  0.1222  0.0422
  447loPI   C2A 7144  11.957  10.139   9.287  0.0999 -0.1269  0.0205
  447loPI   C3A 7145  11.672   9.883   9.005  0.2627  0.2335 -0.0546
  447loPI   C4A 7146  11.383   9.815   8.671  0.0883 -0.2670 -0.0667
  447loPI   C5A 7147  11.152   9.548   8.504  0.0555 -0.0848  0.2784
  447loPI   C6A 7148  11.094   9.118   8.379  0.1065 -0.0117  0.1144
  447loPI   C1B 7149  11.412  10.628   9.323  0.1556 -0.0946 -0.0893
  447loPI   C2B 7150  11.511  10.401   8.951 -0.0170  0.0381 -0.0973
  447loPI   C3B 7151  11.743  10.370   8.635  0.0416 -0.0133 -0.1036
  447loPI   C4B 7152  11.760  10.375   8.147 -0.0613 -0.0871  0.1834
  448loPI    C1 7153   1.213  13.209  10.497 -0.0333 -0.0731 -0.0016
  448loPI    C2 7154   1.397  13.518  10.321 -0.0979 -0.0169  0.0292
  448loPI    C3 7155   1.604  13.268  10.555 -0.0040 -0.1123 -0.1535
  448loPI   PO4 7156   1.146  13.081  10.327  0.1960 -0.0088  0.2577
  448loPI   GL1 7157   1.061  13.022   9.902  0.3135 -0.0004  0.1351
  448loPI   GL2 7158   0.895  12.755   9.886 -0.1018 -0.3146 -0.0582
  448loPI   C1A 7159   1.082  13.155   9.491  0.0944  0.4931  0.2464
  448loPI   C2A 7160   1.012  13.202   9.046 -0.0288 -0.1478  0.1763
  448loPI   C3A 7161   1.015  13.292   8.679  0.0838  0.3406 -0.1487
  448loPI   C4A 7162   0.996  13.278   8.238  0.0517  0.1248 -0.1630
  448loPI   C5A 7163   0.803  13.310   7.777  0.1666 -0.0374  0.1829
  448loPI   C6A 7164   0.613  13.091   7.353 -0.1379 -0.1111  0.1579
  448loPI   C1B 7165   0.776  12.691   9.557  0.2482 -0.0631  0.2243
  448loPI   C2B 7166   0.760  12.699   9.070  0.2580 -0.0072 -0.2598
  448loPI   C3B 7167   0.676  12.920   8.743  0.1600 -0.2233  0.0579
  448loPI   C4B 7168   0.615  12.891   8.344 -0.1872 -0.1079  0.1981
  449loPI    C1 7169   2.008   3.242  10.567  0.0840 -0.0866  0.1837
  449loPI    C2 7170   2.072   2.957  10.293 -0.2898  0.1036 -0.1110
  449loPI    C3 7171   2.197   2.905  10.669  0.3383 -0.1130 -0.3375
  449loPI   PO4 7172   2.076   3.484  10.447  0.1216  0.0377 -0.0381
  449loPI   GL1 7173   2.005   3.655  10.074 -0.1589 -0.1582 -0.2713
  449loPI   GL2 7174   2.272   3.844   9.973 -0.0332  0.1702  0.2591
  449loPI   C1A 7175   1.715   3.616   9.811 -0.2715  0.0877  0.0438
  449loPI   C2A 7176   1.574   3.666   9.376 -0.2345  0.0620 -0.1652
  449loPI   C3A 7177   1.576   3.670   8.964 -0.3500  0.1878 -0.1575
  449loPI   C4A 7178   1.449   3.639   8.536 -0.1219  0.2040 -0.1987
  449loPI   C5A 7179   1.289   3.682   8.182 -0.1366  0.2247 -0.1284
  449loPI   C6A 7180   0.853   3.778   8.249  0.0611 -0.2504 -0.2324
  449loPI   C1B 7181   2.264   3.723   9.683 -0.1667  0.1032  0.1445
  449loPI   C2B 7182   2.127   3.696   9.280  0.2224  0.1520 -0.4070
  449loPI   C3B 7183   1.997   3.844   8.768  0.2209  0.1420 -0.0368
  449loPI   C4B 7184   1.784   3.947   8.297 -0.0662  0.0310 -0.0555
  450loPI    C1 7185  13.339  14.848  10.395 -0.0691 -0.0868  0.1655
  450loPI    C2 7186  13.112  15.149  10.527 -0.0755 -0.1261  0.2453
  450loPI    C3 7187  13.250  14.876  10.784 -0.0608 -0.1853  0.1749
  450loPI   PO4 7188  13.470  14.902  10.174 -0.0280 -0.2792  0.0583
  450loPI   GL1 7189  13.433  14.734   9.756  0.0231  0.0827  0.0652
  450loPI   GL2 7190  13.576  15.082   9.733 -0.0144  0.1028 -0.0432
  450loPI   C1A 7191  13.260  14.513   9.455  0.0927  0.0257  0.1084
  450loPI   C2A 7192  13.144  14.331   9.043 -0.0284  0.1618  0.0293
  450loPI   C3A 7193  13.171  14.174   8.712 -0.0288 -0.2495  0.0441
  450loPI   C4A 7194  13.021  13.915   8.356 -0.3148 -0.2462  0.2671
  450loPI   C5A 7195  12.640  13.673   8.136  0.1782 -0.2574 -0.2157
  450loPI   C6A 7196  12.562  13.186   7.916  0.1618 -0.0611 -0.0445
  450loPI   C1B 7197  13.485  15.002   9.277 -0.1194  0.2076 -0.0393
  450loPI   C2B 7198  13.438  14.752   8.954  0.0728  0.5316  0.0370
  450loPI   C3B 7199  13.330  14.615   8.643 -0.2646  0.0645  0.3781
  450loPI   C4B 7200  13.245  14.275   8.228 -0.1872 -0.1237 -0.0435
  451loPI    C1 7201   6.561   3.128  10.460  0.1296  0.0295  0.1915
  451loPI    C2 7202   6.661   2.748  10.531 -0.0209 -0.0240  0.1192
  451loPI    C3 7203   6.301   2.884  10.641  0.0307  0.0962  0.1402
  451loPI   PO4 7204   6.511   3.191  10.143 -0.3284 -0.0973 -0.3757
  451loPI   GL1 7205   6.227   3.037   9.828 -0.2077  0.1092 -0.0478
  451loPI   GL2 7206   6.047   3.129   9.633 -0.1414  0.5800  0.0701
  451loPI   C1A 7207   6.064   2.687   9.391  0.1609  0.2289 -0.3096
  451loPI   C2A 7208   5.955   2.648   9.056  0.0562  0.0117 -0.0170
  451loPI   C3A 7209   5.959   2.657   8.576  0.1417  0.0567  0.0751
  451loPI   C4A 7210   5.919   2.742   8.175  0.2933  0.0917  0.1185
  451loPI   C5A 7211   5.546   2.865   7.922  0.2741  0.1313  0.0525
  451loPI   C6A 7212   5.475   3.200   7.735  0.0980 -0.0991 -0.0868
  451loPI   C1B 7213   5.964   3.212   9.268  0.0061 -0.2241  0.0105
  451loPI   C2B 7214   5.963   3.145   8.891  0.3113  0.3030  0.0202
  451loPI   C3B 7215   5.896   3.158   8.493 -0.0210 -0.1151  0.0386
  451loPI   C4B 7216   5.963   3.201   8.036 -0.1590  0.1845  0.3880
  452loPI    C1 7217   5.910   5.348  10.077  0.0627  0.2470 -0.0605
  452loPI    C2 7218   5.552   5.527  10.072 -0.1727 -0.1969  0.2268
  452loPI    C3 7219   5.717   5.420  10.420  0.1749 -0.1294  0.0868
  452loPI   PO4 7220   5.874   5.087   9.980 -0.0293  0.1048 -0.0046
  452loPI   GL1 7221   5.569   4.923   9.639 -0.4545 -0.1312 -0.0120
  452loPI   GL2 7222   5.605   5.262   9.632  0.1876 -0.1103 -0.0824
  452loPI   C1A 7223   5.660   4.688   9.258 -0.0820  0.1520 -0.0079
  452loPI   C2A 7224   5.707   4.544   8.859  0.0861  0.2068  0.0348
  452loPI   C3A 7225   5.675   4.638   8.483 -0.1895  0.1893 -0.1420
  452loPI   C4A 7226   5.894   4.523   8.069  0.0678 -0.1564 -0.2394
  452loPI   C5A 7227   6.043   4.875   7.840 -0.4532  0.0648  0.1399
  452loPI   C6A 7228   6.156   4.862   7.407  0.0217  0.0976  0.1081
  452loPI   C1B 7229   5.486   5.209   9.209 -0.2256 -0.1665  0.1889
  452loPI   C2B 7230   5.483   5.005   8.877 -0.0102  0.2474  0.0924
  452loPI   C3B 7231   5.502   5.084   8.433 -0.0227  0.0883 -0.1438
  452loPI   C4B 7232   5.828   5.123   8.164 -0.1243 -0.0939 -0.1502
  453loPI    C1 7233  17.079   4.874  10.854  0.0374  0.2049 -0.1550
  453loPI    C2 7234  17.298   5.208  10.874  0.1908  0.1012 -0.0792
  453loPI    C3 7235  17.446   4.864  11.014  0.0113  0.0127 -0.1050
  453loPI   PO4 7236  17.015   4.830  10.554 -0.0141 -0.1822  0.0207
  453loPI   GL1 7237  17.153   4.674  10.102  0.1342  0.1740  0.0825
  453loPI   GL2 7238  16.847   4.865  10.040 -0.1165 -0.0108  0.0942
  453loPI   C1A 7239  17.255   4.913   9.629 -0.1187 -0.1056 -0.2015
  453loPI   C2A 7240  17.232   4.910   9.251 -0.1941 -0.0260  0.1304
  453loPI   C3A 7241  17.305   4.948   8.893  0.1423  0.1517  0.2293
  453loPI   C4A 7242  17.218   4.948   8.408  0.3138  0.0847 -0.1264
  453loPI   C5A 7243  17.224   5.080   7.970  0.0629 -0.1084 -0.1100
  453loPI   C6A 7244  17.261   5.291   7.647  0.1224  0.2884 -0.5063
  453loPI   C1B 7245  16.811   4.729   9.615  0.1956  0.3676 -0.1746
  453loPI   C2B 7246  16.787   4.663   9.147 -0.0889 -0.0644 -0.1772
  453loPI   C3B 7247  16.812   4.706   8.681  0.3221 -0.2068 -0.0078
  453loPI   C4B 7248  16.740   4.742   8.134  0.4061  0.1166  0.0444
  454loPI    C1 7249  17.117  15.789  10.541 -0.2407 -0.0443 -0.0838
  454loPI    C2 7250  17.112  16.064  10.832  0.1393 -0.0972 -0.0224
  454loPI    C3 7251  16.879  15.739  10.859  0.0005  0.0118  0.1083
  454loPI   PO4 7252  17.123  15.904  10.292  0.2448 -0.1059 -0.0674
  454loPI   GL1 7253  16.932  16.155  10.018  0.0428 -0.2309  0.2220
  454loPI   GL2 7254  17.228  16.257   9.854  0.0061 -0.4185 -0.1852
  454loPI   C1A 7255  16.815  15.952   9.697  0.1188  0.1158 -0.1753
  454loPI   C2A 7256  16.954  15.929   9.318  0.2817  0.0327 -0.0117
  454loPI   C3A 7257  16.922  15.911   8.924  0.0727 -0.1563 -0.0328
  454loPI   C4A 7258  16.978  15.798   8.484 -0.2706 -0.1932 -0.0657
  454loPI   C5A 7259  17.117  15.779   8.012  0.2151 -0.1563  0.0063
  454loPI   C6A 7260  17.368  15.852   7.723  0.0534  0.2138  0.4337
  454loPI   C1B 7261  17.119  16.421   9.425  0.1551 -0.0641  0.2366
  454loPI   C2B 7262  17.188  16.427   8.976 -0.1359  0.1527  0.1378
  454loPI   C3B 7263  17.187  16.266   8.624 -0.0658  0.0638  0.2575
  454loPI   C4B 7264  17.166  16.279   8.139  0.2169 -0.0860  0.1955
  455loPI    C1 7265   2.824  16.020  10.574  0.2096 -0.0788 -0.0592
  455loPI    C2 7266   2.915  16.269  10.874  0.4156  0.0182 -0.1993
  455loPI    C3 7267   2.690  15.945  10.943  0.4513  0.0462  0.0561
  455loPI   PO4 7268   2.722  16.282  10.383 -0.0368  0.1062 -0.3346
  455loPI   GL1 7269   2.703  16.397   9.921  0.1321  0.0198 -0.0674
  455loPI   GL2 7270   2.766  16.651   9.960 -0.3043 -0.4551  0.0068
  455loPI   C1A 7271   2.853  16.412   9.563  0.0140  0.1548  0.2812
  455loPI   C2A 7272   2.561  16.661   9.272 -0.3146  0.1002  0.0816
  455loPI   C3A 7273   2.494  16.739   8.886 -0.0683 -0.1512 -0.1615
  455loPI   C4A 7274   2.668  16.851   8.492 -0.0490  0.1853 -0.1235
  455loPI   C5A 7275   2.698  16.907   8.067  0.1015 -0.0839  0.3186
  455loPI   C6A 7276   2.765  16.585   7.752  0.3269  0.1424  0.1246
  455loPI   C1B 7277   2.852  16.933   9.665 -0.0816  0.1871  0.1948
  455loPI   C2B 7278   3.008  16.875   9.259  0.0175 -0.1100 -0.0865
  455loPI   C3B 7279   2.958  16.945   8.909  0.1643  0.0413  0.0435
  455loPI   C4B 7280   3.034  17.182   8.522 -0.1684 -0.0896  0.1392
  456loPI    C1 7281  15.935   3.858  10.737  0.1636 -0.0186 -0.0609
  456loPI    C2 7282  16.225   3.963  10.991 -0.1012  0.0697  0.2121
  456loPI    C3 7283  15.943   3.704  11.106 -0.1110 -0.0454 -0.0635
  456loPI   PO4 7284  15.801   4.141  10.625 -0.0767 -0.3369 -0.1543
  456loPI   GL1 7285  15.728   4.221  10.246 -0.0451 -0.1839  0.1351
  456loPI   GL2 7286  15.696   4.490  10.175  0.0914 -0.0149 -0.1682
  456loPI   C1A 7287  15.849   4.076   9.875  0.1807 -0.2394 -0.0173
  456loPI   C2A 7288  15.837   4.237   9.448 -0.0607  0.0806  0.0072
  456loPI   C3A 7289  15.858   4.223   9.005 -0.0436 -0.0545  0.1363
  456loPI   C4A 7290  15.843   4.201   8.494 -0.1890 -0.2062  0.1854
  456loPI   C5A 7291  15.816   4.449   8.136 -0.1150 -0.0721 -0.2216
  456loPI   C6A 7292  15.836   4.882   8.064  0.0045 -0.0590  0.3582
  456loPI   C1B 7293  15.840   4.622   9.818  0.1195 -0.0402 -0.1272
  456loPI   C2B 7294  15.941   4.778   9.349  0.0310 -0.1426  0.0280
  456loPI   C3B 7295  15.938   4.793   8.901 -0.0645 -0.1902  0.1501
  456loPI   C4B 7296  15.987   4.745   8.495 -0.1608 -0.0957 -0.0860
  457loPI    C1 7297   8.866  15.930  10.426  0.1845 -0.0086  0.1645
  457loPI    C2 7298   8.793  15.551  10.532 -0.0100 -0.0145  0.0150
  457loPI    C3 7299   8.574  15.848  10.687 -0.0978  0.0032 -0.1403
  457loPI   PO4 7300   8.921  15.865  10.181  0.1486  0.0200  0.0024
  457loPI   GL1 7301   8.759  15.724   9.856  0.0695 -0.2093  0.0768
  457loPI   GL2 7302   8.791  15.964   9.662  0.2637 -0.2944  0.0891
  457loPI   C1A 7303   8.443  15.495   9.728  0.0541  0.0805 -0.0196
  457loPI   C2A 7304   8.110  15.208   9.505  0.1372 -0.0887 -0.0037
  457loPI   C3A 7305   8.157  15.049   9.131  0.1526 -0.1777  0.4613
  457loPI   C4A 7306   8.072  14.982   8.663  0.2593  0.1071 -0.2188
  457loPI   C5A 7307   8.233  14.936   8.270  0.2314  0.2360 -0.1384
  457loPI   C6A 7308   8.377  14.972   7.883  0.0871  0.1769 -0.1044
  457loPI   C1B 7309   8.577  15.797   9.342 -0.3424 -0.1506  0.0871
  457loPI   C2B 7310   8.366  15.524   9.231  0.1885 -0.2046  0.1621
  457loPI   C3B 7311   8.110  15.468   8.849  0.4418  0.0523  0.3346
  457loPI   C4B 7312   8.005  15.737   8.466  0.0863 -0.0983  0.0002
  458loPI    C1 7313   4.502   2.648  10.453  0.0158 -0.1668 -0.2340
  458loPI    C2 7314   4.193   2.420  10.561  0.0025 -0.1437 -0.2230
  458loPI    C3 7315   4.521   2.432  10.789 -0.0542 -0.0373 -0.1459
  458loPI   PO4 7316   4.484   2.663  10.262  0.1790  0.2547 -0.0393
  458loPI   GL1 7317   4.341   2.439   9.871 -0.0572 -0.4126  0.0532
  458loPI   GL2 7318   4.526   2.134   9.778 -0.0411 -0.1578 -0.2662
  458loPI   C1A 7319   4.689   2.501   9.513  0.0909 -0.0107 -0.1478
  458loPI   C2A 7320   4.723   2.411   9.066  0.3145  0.1416 -0.0857
  458loPI   C3A 7321   4.601   2.318   8.597  0.0456 -0.2687  0.0063
  458loPI   C4A 7322   4.692   2.037   8.308  0.1502 -0.0618 -0.4433
  458loPI   C5A 7323   4.813   1.894   7.924 -0.2197 -0.2585  0.0573
  458loPI   C6A 7324   5.163   2.132   7.667  0.3105 -0.0438  0.1739
  458loPI   C1B 7325   4.363   2.152   9.340 -0.0010  0.1730  0.2680
  458loPI   C2B 7326   4.375   2.044   8.933 -0.1164  0.0364 -0.0448
  458loPI   C3B 7327   4.247   1.950   8.498 -0.2245 -0.1309  0.3263
  458loPI   C4B 7328   4.194   2.085   8.078 -0.1000  0.0950 -0.1825
  459loPI    C1 7329  17.590  11.212  10.169 -0.0407 -0.0262  0.2289
  459loPI    C2 7330  17.303  11.468  10.062 -0.2236 -0.2288  0.2280
  459loPI    C3 7331  17.257  11.240  10.388 -0.0046 -0.1675  0.3033
  459loPI   PO4 7332  17.658  11.134   9.951  0.0891  0.4398 -0.2736
  459loPI   GL1 7333  17.694  11.219   9.629  0.1324  0.1785 -0.0176
  459loPI   GL2 7334  17.557  11.560   9.594 -0.0009 -0.0063 -0.0454
  459loPI   C1A 7335  17.521  10.945   9.285 -0.0692  0.0763 -0.2662
  459loPI   C2A 7336  17.311  10.761   8.884  0.0083  0.0534  0.1006
  459loPI   C3A 7337  17.279  10.610   8.483 -0.0721  0.1986 -0.0111
  459loPI   C4A 7338  17.467  10.713   8.124  0.0907 -0.0986 -0.0142
  459loPI   C5A 7339  17.696  11.145   7.930 -0.1375  0.1456 -0.0044
  459loPI   C6A 7340  17.769  11.594   8.155 -0.2267 -0.2157  0.1601
  459loPI   C1B 7341  17.475  11.458   9.213 -0.1158 -0.0562 -0.0659
  459loPI   C2B 7342  17.486  11.242   8.869 -0.1248 -0.2057  0.1985
  459loPI   C3B 7343  17.623  11.046   8.489  0.1309 -0.2524 -0.2591
  459loPI   C4B 7344  17.926  10.835   8.312  0.1661  0.0667  0.0846
  460loPI    C1 7345   1.066  12.572  10.338 -0.1614  0.1539  0.1392
  460loPI    C2 7346   1.241  12.453  10.677 -0.0322  0.4733  0.1874
  460loPI    C3 7347   1.456  12.637  10.394 -0.0927  0.0223 -0.1637
  460loPI   PO4 7348   1.008  12.330  10.206  0.0360  0.0133  0.0443
  460loPI   GL1 7349   1.080  12.283   9.797 -0.1672 -0.1585 -0.2893
  460loPI   GL2 7350   0.730  12.165   9.758  0.0673 -0.0286 -0.0819
  460loPI   C1A 7351   1.106  12.211   9.431 -0.2126 -0.3172  0.2810
  460loPI   C2A 7352   0.952  12.291   9.141  0.1329 -0.0186 -0.1828
  460loPI   C3A 7353   0.855  12.333   8.743  0.0084 -0.1588 -0.0474
  460loPI   C4A 7354   0.855  12.361   8.246  0.0330  0.1734  0.2432
  460loPI   C5A 7355   0.739  12.055   7.927  0.1891 -0.4743  0.1496
  460loPI   C6A 7356   0.612  12.031   7.538  0.2739  0.1082 -0.1885
  460loPI   C1B 7357   0.541  12.254   9.439  0.0048  0.0472  0.1700
  460loPI   C2B 7358   0.384  12.391   8.973  0.1318  0.0556  0.0967
  460loPI   C3B 7359   0.381  12.448   8.592 -0.1241  0.0572  0.0326
  460loPI   C4B 7360   0.416  12.452   8.047 -0.3867  0.0091 -0.1735
  461loPI    C1 7361   6.334   5.626   9.985 -0.0456 -0.1461 -0.0497
  461loPI    C2 7362   6.608   5.872   9.828 -0.1031 -0.0499  0.0001
  461loPI    C3 7363   6.600   5.807  10.223 -0.0684 -0.1563 -0.0164
  461loPI   PO4 7364   6.375   5.371   9.843 -0.0309 -0.2430  0.3522
  461loPI   GL1 7365   6.708   5.178   9.787 -0.2368 -0.0737 -0.1204
  461loPI   GL2 7366   7.057   5.227   9.601  0.0089  0.0856  0.0669
  461loPI   C1A 7367   6.624   5.079   9.365 -0.1041 -0.0095  0.3366
  461loPI   C2A 7368   6.625   5.053   9.000 -0.0350 -0.0143 -0.2681
  461loPI   C3A 7369   6.649   4.978   8.578 -0.2631 -0.2518  0.0504
  461loPI   C4A 7370   6.813   5.014   8.166  0.0162  0.2447  0.2788
  461loPI   C5A 7371   6.938   5.120   7.820 -0.0182 -0.1753 -0.1746
  461loPI   C6A 7372   6.973   4.934   7.380  0.1973 -0.1055 -0.1155
  461loPI   C1B 7373   7.048   4.892   9.232 -0.4255 -0.1044 -0.0538
  461loPI   C2B 7374   7.071   4.749   8.775  0.2867 -0.2820  0.0551
  461loPI   C3B 7375   7.117   4.710   8.379  0.0936 -0.0350  0.1023
  461loPI   C4B 7376   7.308   4.810   7.949 -0.1342 -0.0290  0.0352
  462loPI    C1 7377   8.896   7.406  10.183 -0.2646  0.0657  0.0297
  462loPI    C2 7378   9.060   7.723  10.363  0.0769 -0.0844 -0.0094
  462loPI    C3 7379   8.744   7.541  10.528 -0.0786  0.2301  0.0490
  462loPI   PO4 7380   9.052   7.233  10.057 -0.0762  0.0463 -0.1340
  462loPI   GL1 7381   9.089   7.121   9.591  0.1309  0.0586 -0.2145
  462loPI   GL2 7382   9.102   7.509   9.656 -0.1540  0.0622 -0.3767
  462loPI   C1A 7383   9.229   6.948   9.217  0.3586 -0.1742 -0.1123
  462loPI   C2A 7384   9.476   6.712   8.913  0.0379 -0.2589 -0.1581
  462loPI   C3A 7385   9.613   6.705   8.467 -0.0828  0.0703  0.0684
  462loPI   C4A 7386   9.798   6.715   8.067 -0.1454  0.0610  0.2319
  462loPI   C5A 7387   9.743   6.994   7.743 -0.1623 -0.0457 -0.0274
  462loPI   C6A 7388   9.456   7.332   7.710  0.1152  0.2538  0.0499
  462loPI   C1B 7389   9.153   7.643   9.267 -0.0641  0.1263 -0.0999
  462loPI   C2B 7390   9.030   7.656   8.760 -0.0313 -0.0496 -0.0497
  462loPI   C3B 7391   8.902   7.464   8.408  0.3615 -0.0752  0.0984
  462loPI   C4B 7392   8.985   7.459   7.987  0.0683 -0.0782  0.0278
  463loPI    C1 7393  10.183   2.589  10.950  0.0954 -0.2108 -0.2434
  463loPI    C2 7394  10.527   2.651  11.144  0.0987 -0.1876 -0.2565
  463loPI    C3 7395  10.240   2.429  11.312 -0.0942  0.2366 -0.0081
  463loPI   PO4 7396  10.130   2.551  10.700 -0.2120 -0.1503 -0.2274
  463loPI   GL1 7397  10.422   2.420  10.351  0.1929 -0.0383  0.2418
  463loPI   GL2 7398  10.168   2.262  10.280  0.0247  0.1902 -0.0794
  463loPI   C1A 7399  10.567   2.374   9.929  0.1442  0.1223  0.2902
  463loPI   C2A 7400  10.555   2.207   9.484  0.2303  0.1986  0.0215
  463loPI   C3A 7401  10.461   2.114   9.075  0.1755 -0.2913  0.1693
  463loPI   C4A 7402  10.594   2.005   8.677  0.1091 -0.1120  0.0278
  463loPI   C5A 7403  10.620   1.688   8.358  0.0968 -0.1805 -0.1758
  463loPI   C6A 7404  10.982   1.694   8.007 -0.1526  0.0195  0.0661
  463loPI   C1B 7405  10.076   2.444   9.918 -0.3129 -0.1735  0.0146
  463loPI   C2B 7406  10.106   2.353   9.635 -0.1130  0.2097 -0.0929
  463loPI   C3B 7407  10.038   2.271   9.278  0.0002 -0.1594 -0.0976
  463loPI   C4B 7408  10.009   2.197   8.888 -0.2218 -0.0884  0.2501
  464loPI    C1 7409   4.998   0.482  10.471 -0.2251  0.1251 -0.0130
  464loPI    C2 7410   5.187   0.829  10.405 -0.1165  0.0741  0.0277
  464loPI    C3 7411   4.962   0.782  10.733 -0.3182  0.1843 -0.0929
  464loPI   PO4 7412   4.931   0.408  10.279  0.0744 -0.3084 -0.1651
  464loPI   GL1 7413   4.852   0.429   9.935  0.0940 -0.0540  0.1744
  464loPI   GL2 7414   4.565   0.391   9.732 -0.2116  0.2092 -0.2334
  464loPI   C1A 7415   4.995   0.490   9.551 -0.1810  0.0879  0.1193
  464loPI   C2A 7416   4.937   0.433   9.113 -0.2324 -0.1368  0.0910
  464loPI   C3A 7417   4.820   0.558   8.681  0.1162 -0.0916 -0.0423
  464loPI   C4A 7418   4.761   0.541   8.322 -0.1235  0.1704  0.1211
  464loPI   C5A 7419   4.454   0.674   7.973 -0.1305 -0.1607  0.1949
  464loPI   C6A 7420   4.023   0.682   7.798 -0.1695  0.0186 -0.0024
  464loPI   C1B 7421   4.529   0.370   9.381 -0.0320 -0.2753  0.0474
  464loPI   C2B 7422   4.480   0.303   8.980  0.0247  0.1092 -0.2290
  464loPI   C3B 7423   4.587   0.135   8.585  0.1454 -0.2334  0.0891
  464loPI   C4B 7424   4.672  -0.005   8.196 -0.0196 -0.2026 -0.0787
  465loPI    C1 7425  15.316   6.298  10.599 -0.3173  0.2505 -0.1106
  465loPI    C2 7426  15.380   6.575  10.880 -0.0212 -0.1675  0.2471
  465loPI    C3 7427  15.149   6.259  10.960  0.1279 -0.3296  0.0474
  465loPI   PO4 7428  15.208   6.431  10.397 -0.4034  0.2314 -0.0457
  465loPI   GL1 7429  15.277   6.423   9.892 -0.0527  0.4657 -0.0243
  465loPI   GL2 7430  15.570   6.585   9.975 -0.0020 -0.2810 -0.1465
  465loPI   C1A 7431  15.071   6.321   9.515  0.1453 -0.0122  0.0722
  465loPI   C2A 7432  15.168   6.418   9.147  0.2308 -0.2679 -0.1994
  465loPI   C3A 7433  15.173   6.463   8.798 -0.1987 -0.1014 -0.1982
  465loPI   C4A 7434  15.175   6.421   8.437  0.0904  0.0566  0.0053
  465loPI   C5A 7435  15.169   6.311   8.022 -0.3216  0.2223 -0.1194
  465loPI   C6A 7436  14.831   6.401   7.768 -0.1829  0.2337 -0.2653
  465loPI   C1B 7437  15.500   6.609   9.437  0.1052 -0.0206 -0.0313
  465loPI   C2B 7438  15.630   6.678   9.033 -0.1348 -0.0394  0.1166
  465loPI   C3B 7439  15.649   6.610   8.660  0.2770  0.1164  0.0952
  465loPI   C4B 7440  15.634   6.551   8.225  0.4736 -0.0041 -0.0234
  466loPI    C1 7441  15.627   3.343  10.898 -0.0904 -0.0714  0.0871
  466loPI    C2 7442  15.415   3.021  11.008  0.0176 -0.2181 -0.1271
  466loPI    C3 7443  15.662   3.197  11.269 -0.0823 -0.2759  0.0074
  466loPI   PO4 7444  15.504   3.559  10.770  0.1017  0.1396 -0.2301
  466loPI   GL1 7445  15.610   3.675  10.407  0.1331 -0.1143 -0.1764
  466loPI   GL2 7446  15.587   3.385  10.277 -0.2486 -0.0065  0.1164
  466loPI   C1A 7447  15.443   3.813  10.048 -0.1349 -0.1646  0.2609
  466loPI   C2A 7448  15.361   3.988   9.679  0.1691  0.2281  0.1048
  466loPI   C3A 7449  15.299   4.009   9.234 -0.3402  0.0277  0.0035
  466loPI   C4A 7450  15.379   4.004   8.758  0.0220  0.1189  0.1832
  466loPI   C5A 7451  15.444   3.883   8.430  0.2697  0.1967 -0.0028
  466loPI   C6A 7452  15.623   4.013   8.051 -0.0222  0.0022 -0.3739
  466loPI   C1B 7453  15.418   3.337   9.791 -0.0323  0.1410 -0.1247
  466loPI   C2B 7454  15.380   3.500   9.382 -0.1453  0.0508 -0.1461
  466loPI   C3B 7455  15.295   3.559   8.928  0.1361  0.0981  0.0624
  466loPI   C4B 7456  15.005   3.430   8.606 -0.0829  0.1514 -0.0365
  467loPI    C1 7457  11.594  17.367  10.524 -0.2450 -0.0723 -0.2777
  467loPI    C2 7458  11.369  17.098  10.716 -0.1082  0.0248  0.0246
  467loPI    C3 7459  11.392  17.474  10.853  0.1023  0.0592 -0.1022
  467loPI   PO4 7460  11.579  17.280  10.294  0.1591 -0.2481 -0.0956
  467loPI   GL1 7461  11.609  17.618   9.914  0.2051  0.2234 -0.0165
  467loPI   GL2 7462  11.443  17.731  10.137 -0.1957 -0.0528  0.1451
  467loPI   C1A 7463  11.529  17.732   9.481 -0.1190 -0.1394 -0.0511
  467loPI   C2A 7464  11.539  17.783   9.091 -0.0531  0.1717 -0.2611
  467loPI   C3A 7465  11.358  17.781   8.757  0.0144  0.0544 -0.0030
  467loPI   C4A 7466  11.507  17.992   8.428 -0.0136  0.1903 -0.0599
  467loPI   C5A 7467  11.917  18.183   8.313 -0.0144 -0.0696  0.0806
  467loPI   C6A 7468  12.317  18.407   8.371  0.4129 -0.2342  0.2357
  467loPI   C1B 7469  11.084  17.766   9.743  0.0935  0.0538 -0.1306
  467loPI   C2B 7470  11.034  17.956   9.286  0.0216 -0.0377  0.0875
  467loPI   C3B 7471  10.957  18.135   8.933 -0.2204 -0.0103 -0.4876
  467loPI   C4B 7472  10.931  18.046   8.568  0.0860 -0.0740 -0.0300
  468loPI    C1 7473   9.713  10.585  10.317  0.1174  0.0575  0.0448
  468loPI    C2 7474   9.791  10.975  10.273  0.0949  0.0411 -0.1446
  468loPI    C3 7475   9.705  10.828  10.635  0.0999  0.2125 -0.0733
  468loPI   PO4 7476   9.566  10.545  10.095  0.2254 -0.0358 -0.2213
  468loPI   GL1 7477   9.673  10.580   9.711  0.2666 -0.0766  0.2729
  468loPI   GL2 7478   9.769  10.845   9.739  0.0499  0.1077 -0.0245
  468loPI   C1A 7479   9.758  10.541   9.220 -0.1223  0.0962 -0.0470
  468loPI   C2A 7480   9.724  10.694   8.804 -0.0456 -0.0622 -0.0387
  468loPI   C3A 7481   9.610  10.778   8.385  0.1269  0.1025 -0.0553
  468loPI   C4A 7482   9.755  10.775   8.050  0.0339 -0.0191 -0.1636
  468loPI   C5A 7483  10.122  10.804   7.904  0.1399 -0.0937 -0.3009
  468loPI   C6A 7484  10.485  11.095   7.846 -0.0671 -0.0036 -0.1588
  468loPI   C1B 7485  10.094  10.897   9.306 -0.1134  0.0301  0.2117
  468loPI   C2B 7486  10.082  11.067   8.934 -0.3895  0.2873  0.3322
  468loPI   C3B 7487   9.999  11.055   8.493 -0.1379 -0.2807  0.2127
  468loPI   C4B 7488  10.045  11.301   8.153  0.0483  0.2708 -0.0562
  469loPI    C1 7489   3.210   6.151  10.263 -0.2623 -0.1807  0.1265
  469loPI    C2 7490   3.007   6.228   9.927 -0.1071  0.2078  0.1160
  469loPI    C3 7491   2.845   6.313  10.283 -0.2151 -0.0748  0.1372
  469loPI   PO4 7492   3.343   5.914  10.159  0.2857  0.1686  0.1393
  469loPI   GL1 7493   3.242   5.825   9.790  0.1061  0.0738 -0.1594
  469loPI   GL2 7494   3.250   5.530   9.732 -0.2464 -0.0245  0.2684
  469loPI   C1A 7495   3.325   5.824   9.300  0.2119  0.3422  0.0763
  469loPI   C2A 7496   3.242   5.559   8.965 -0.1918 -0.0701  0.0585
  469loPI   C3A 7497   3.206   5.423   8.572  0.0253 -0.1603 -0.1999
  469loPI   C4A 7498   2.971   5.413   8.391 -0.1775  0.1609  0.2069
  469loPI   C5A 7499   2.823   5.556   7.943  0.2083 -0.3180 -0.1640
  469loPI   C6A 7500   2.878   5.669   7.529  0.1677  0.0477  0.1476
  469loPI   C1B 7501   3.103   5.336   9.403  0.1281  0.0221 -0.2859
  469loPI   C2B 7502   3.094   4.832   9.191  0.0541 -0.1305  0.1460
  469loPI   C3B 7503   3.136   4.507   8.904  0.0634 -0.1022 -0.1551
  469loPI   C4B 7504   2.786   4.267   8.652 -0.0528 -0.1170 -0.1089
  470loPI    C1 7505  12.329  13.600  10.330 -0.1152  0.1150 -0.0623
  470loPI    C2 7506  12.547  13.778  10.614 -0.0964 -0.0417  0.0227
  470loPI    C3 7507  12.158  13.709  10.675 -0.1175  0.0251 -0.0347
  470loPI   PO4 7508  12.548  13.629  10.131  0.0069 -0.0834 -0.2848
  470loPI   GL1 7509  12.538  13.294   9.847  0.0726  0.0490  0.1773
  470loPI   GL2 7510  12.663  12.955   9.920  0.2707  0.2226 -0.1035
  470loPI   C1A 7511  12.400  13.243   9.450 -0.1060 -0.1736  0.0620
  470loPI   C2A 7512  12.428  13.284   8.942 -0.0205 -0.2052 -0.0426
  470loPI   C3A 7513  12.202  12.982   8.718 -0.0508  0.3030 -0.0271
  470loPI   C4A 7514  12.154  12.426   8.471  0.0545 -0.0394 -0.1367
  470loPI   C5A 7515  12.282  12.054   8.323 -0.0540 -0.0798  0.1676
  470loPI   C6A 7516  12.350  11.806   8.050 -0.2385  0.0405  0.0429
  470loPI   C1B 7517  12.181  12.917   9.744 -0.1637  0.0054  0.1651
  470loPI   C2B 7518  11.919  12.888   9.434 -0.0451  0.0041 -0.1088
  470loPI   C3B 7519  11.815  12.794   9.031  0.0421 -0.3204  0.1572
  470loPI   C4B 7520  11.664  12.936   8.637 -0.2073 -0.0536 -0.2641
  471loPI    C1 7521   5.847   5.936   9.950  0.0115 -0.1174 -0.1179
  471loPI    C2 7522   6.131   6.048  10.208 -0.2664  0.1592  0.0750
  471loPI    C3 7523   5.794   5.878  10.342 -0.2409 -0.0688 -0.1428
  471loPI   PO4 7524   5.916   5.830   9.783  0.3592  0.1244 -0.3138
  471loPI   GL1 7525   6.256   5.675   9.504 -0.0129 -0.1836  0.1934
  471loPI   GL2 7526   5.929   5.615   9.336 -0.2993 -0.0443 -0.3725
  471loPI   C1A 7527   6.344   5.421   9.108 -0.0026 -0.2886  0.2868
  471loPI   C2A 7528   6.365   5.464   8.632 -0.0130  0.2563 -0.2878
  471loPI   C3A 7529   6.337   5.287   8.191  0.0473 -0.1688 -0.1717
  471loPI   C4A 7530   6.430   5.272   7.746  0.0558 -0.1630  0.2517
  471loPI   C5A 7531   6.726   5.367   7.364 -0.2720 -0.1022  0.0238
  471loPI   C6A 7532   6.928   5.233   6.973 -0.2213 -0.0145 -0.1923
  471loPI   C1B 7533   5.810   5.578   9.025 -0.1016  0.1930  0.4621
  471loPI   C2B 7534   5.877   5.474   8.559 -0.2081 -0.1603  0.2425
  471loPI   C3B 7535   5.941   5.684   8.116  0.1572  0.1507  0.1594
  471loPI   C4B 7536   5.989   6.107   7.868  0.0231  0.1600 -0.2875
  472loPI    C1 7537  15.430   7.385  10.791 -0.0059 -0.2188 -0.1227
  472loPI    C2 7538  15.735   7.547  10.993 -0.2328 -0.0049  0.0535
  472loPI    C3 7539  15.806   7.270  10.713  0.1257  0.0801  0.0551
  472loPI   PO4 7540  15.215   7.628  10.722  0.0833  0.1587  0.0841
  472loPI   GL1 7541  15.026   7.668  10.261  0.0162 -0.2768 -0.0321
  472loPI   GL2 7542  14.881   7.378  10.076 -0.1377 -0.2564 -0.1379
  472loPI   C1A 7543  15.224   7.549   9.842  0.1060  0.0001  0.0006
  472loPI   C2A 7544  15.196   7.364   9.376 -0.0941  0.1629  0.1776
  472loPI   C3A 7545  15.183   7.366   9.002  0.0508  0.2398  0.0987
  472loPI   C4A 7546  15.252   7.444   8.519 -0.2576 -0.1136 -0.2640
  472loPI   C5A 7547  15.112   7.435   8.092 -0.0478 -0.0247 -0.1326
  472loPI   C6A 7548  14.786   7.424   7.872 -0.0098  0.3055 -0.0804
  472loPI   C1B 7549  14.713   7.161   9.801 -0.0843  0.0389  0.0902
  472loPI   C2B 7550  14.777   7.151   9.350  0.2162 -0.1011  0.1727
  472loPI   C3B 7551  14.763   7.128   8.872 -0.1020 -0.0970 -0.1907
  472loPI   C4B 7552  14.766   7.211   8.416 -0.3781  0.0708  0.2702
  473loPI    C1 7553   4.125   8.205  10.411 -0.0743 -0.1476  0.0344
  473loPI    C2 7554   3.997   7.961  10.701 -0.1047 -0.1007  0.0606
  473loPI    C3 7555   4.187   8.301  10.795  0.0898 -0.1974  0.0210
  473loPI   PO4 7556   3.928   8.203  10.283  0.1773 -0.2180 -0.0042
  473loPI   GL1 7557   3.840   8.137   9.871  0.2025  0.0594  0.0474
  473loPI   GL2 7558   3.662   8.331   9.743  0.0721 -0.1915 -0.0456
  473loPI   C1A 7559   3.621   7.888   9.469 -0.0086  0.0257 -0.2713
  473loPI   C2A 7560   3.304   7.764   9.146 -0.3072 -0.3940  0.0992
  473loPI   C3A 7561   3.163   7.492   8.810  0.1006 -0.0425 -0.1928
  473loPI   C4A 7562   3.128   7.736   8.348 -0.0119  0.2632  0.2414
  473loPI   C5A 7563   3.113   7.514   7.906  0.1086  0.2608 -0.3038
  473loPI   C6A 7564   3.101   7.187   7.614  0.1259  0.1336 -0.2830
  473loPI   C1B 7565   3.325   8.279   9.467  0.0248  0.1703  0.3396
  473loPI   C2B 7566   3.223   8.267   9.092 -0.1267  0.1440 -0.3050
  473loPI   C3B 7567   3.165   8.136   8.714 -0.0143 -0.0497  0.1918
  473loPI   C4B 7568   3.443   8.102   8.353 -0.0673  0.0560  0.0706
  474POPI    C1 7569  13.836  15.143  10.416  0.2608  0.0885  0.0483
  474POPI    C2 7570  13.844  15.521  10.546 -0.1235  0.1340 -0.0497
  474POPI    C3 7571  13.573  15.265  10.691  0.0782 -0.0820 -0.0487
  474POPI   PO4 7572  13.909  15.198  10.126 -0.2702  0.2863  0.0182
  474POPI   GL1 7573  14.079  15.124   9.736  0.1654 -0.0588 -0.0485
  474POPI   GL2 7574  14.206  15.458   9.724  0.2248  0.3746 -0.2634
  474POPI   C1A 7575  14.142  15.003   9.292 -0.0791  0.1004 -0.1662
  474POPI   D2A 7576  14.418  14.683   9.167  0.1427 -0.2308 -0.0020
  474POPI   C3A 7577  14.534  14.465   8.869  0.0308 -0.2850  0.1694
  474POPI   C4A 7578  14.502  14.573   8.490  0.0839 -0.0932 -0.2479
  474POPI   C1B 7579  14.267  15.549   9.254 -0.1336  0.3351  0.1094
  474POPI   C2B 7580  14.293  15.483   8.842 -0.1550 -0.0182  0.1270
  474POPI   C3B 7581  14.464  15.582   8.346  0.0542 -0.0247 -0.0950
  474POPI   C4B 7582  14.766  15.606   7.972  0.0388  0.1265  0.2295
  475POPI    C1 7583  11.097   1.394  10.710 -0.1953  0.1118 -0.1496
  475POPI    C2 7584  10.732   1.232  10.685 -0.1033 -0.1108 -0.0739
  475POPI    C3 7585  10.942   1.203  11.025 -0.1429  0.2976 -0.0091
  475POPI   PO4 7586  11.097   1.633  10.531  0.1996 -0.2013  0.2118
  475POPI   GL1 7587  10.789   1.600  10.268  0.0138  0.0064  0.2006
  475POPI   GL2 7588  10.995   1.491   9.997  0.0213 -0.2280 -0.1049
  475POPI   C1A 7589  10.435   1.819  10.173  0.2176 -0.0521  0.1451
  475POPI   D2A 7590  10.107   1.837   9.998 -0.1279  0.1656  0.1363
  475POPI   C3A 7591  10.115   1.812   9.526  0.0814  0.0084 -0.1725
  475POPI   C4A 7592  10.046   1.752   9.095 -0.0010 -0.1241 -0.0395
  475POPI   C1B 7593  10.852   1.368   9.525  0.0534 -0.0432 -0.2420
  475POPI   C2B 7594  10.932   1.280   9.085 -0.1768  0.2236 -0.0246
  475POPI   C3B 7595  11.165   1.315   8.699  0.2063 -0.1800 -0.1421
  475POPI   C4B 7596  10.950   1.236   8.321 -0.1843  0.0030 -0.0672
  476POPI    C1 7597  17.166   7.426  10.433  0.0530 -0.0509  0.0460
  476POPI    C2 7598  17.558   7.504  10.448  0.0242  0.0883  0.0854
  476POPI    C3 7599  17.350   7.459  10.787  0.0031  0.0296  0.0647
  476POPI   PO4 7600  17.031   7.184  10.276 -0.0490 -0.0150  0.1204
  476POPI   GL1 7601  16.980   7.176   9.882 -0.2026  0.0598 -0.1378
  476POPI   GL2 7602  16.699   7.224   9.882  0.0347  0.2309  0.2235
  476POPI   C1A 7603  17.372   7.101   9.613  0.1218 -0.1196  0.1165
  476POPI   D2A 7604  17.471   7.013   9.143 -0.0774  0.4449  0.0415
  476POPI   C3A 7605  17.347   6.987   8.696  0.3031 -0.1271 -0.2584
  476POPI   C4A 7606  17.482   7.152   8.394 -0.0603  0.0742 -0.1895
  476POPI   C1B 7607  16.529   7.089   9.465  0.0761 -0.1566 -0.2299
  476POPI   C2B 7608  16.521   7.131   9.079  0.0061  0.0224 -0.1846
  476POPI   C3B 7609  16.544   7.068   8.623  0.2020 -0.0373  0.1676
  476POPI   C4B 7610  16.589   7.133   8.167  0.0813  0.4078  0.0335
  477POPI    C1 7611  13.686   4.537  10.540  0.0253  0.1620  0.0806
  477POPI    C2 7612  13.537   4.364  10.869 -0.1199  0.0693 -0.0326
  477POPI    C3 7613  13.933   4.373  10.809 -0.0990 -0.0125  0.0898
  477POPI   PO4 7614  13.505   4.479  10.286 -0.1169 -0.0416 -0.0885
  477POPI   GL1 7615  13.395   4.388   9.896 -0.0102  0.1060 -0.2515
  477POPI   GL2 7616  13.302   4.148   9.978  0.0370 -0.3121  0.2462
  477POPI   C1A 7617  13.670   4.173   9.527 -0.1568 -0.1139  0.2052
  477POPI   D2A 7618  13.964   4.269   9.225  0.1840  0.3772 -0.2734
  477POPI   C3A 7619  13.752   4.391   8.880  0.0155 -0.1935  0.0521
  477POPI   C4A 7620  13.638   4.574   8.486  0.2709 -0.1199  0.0554
  477POPI   C1B 7621  12.941   4.162   9.667 -0.2376  0.0392  0.0984
  477POPI   C2B 7622  12.589   3.942   9.313  0.0788 -0.0340 -0.0693
  477POPI   C3B 7623  12.575   3.825   8.936  0.1659 -0.0076  0.0874
  477POPI   C4B 7624  12.525   3.769   8.505  0.1176  0.0320  0.1773
  478POPI    C1 7625  16.770   9.109  10.335 -0.0898  0.3034  0.1102
  478POPI    C2 7626  16.442   8.944  10.492  0.0734  0.1589  0.3054
  478POPI    C3 7627  16.802   8.854  10.642  0.2393 -0.0252 -0.1857
  478POPI   PO4 7628  16.769   9.162  10.115  0.0674 -0.1914 -0.0207
  478POPI   GL1 7629  16.499   9.325   9.831 -0.2570 -0.0058 -0.3388
  478POPI   GL2 7630  16.426   9.065   9.727 -0.1042  0.2187  0.0459
  478POPI   C1A 7631  16.558   9.655   9.492 -0.0274 -0.0276  0.0637
  478POPI   D2A 7632  16.882   9.819   9.079  0.0441 -0.2342 -0.1632
  478POPI   C3A 7633  16.816  10.231   8.827 -0.1231  0.0907  0.0487
  478POPI   C4A 7634  16.600  10.459   8.457  0.0414 -0.1542  0.0049
  478POPI   C1B 7635  16.347   9.054   9.263 -0.1522  0.0639 -0.0335
  478POPI   C2B 7636  16.187   8.940   8.850 -0.1635 -0.1341  0.1431
  478POPI   C3B 7637  16.032   9.029   8.444  0.1870  0.0510  0.1347
  478POPI   C4B 7638  15.858   9.080   8.041 -0.1557  0.2841  0.2733
  479POPI    C1 7639   4.696   4.780  10.248 -0.0754  0.1201  0.0169
  479POPI    C2 7640   4.505   5.086  10.421 -0.0385  0.1321  0.0367
  479POPI    C3 7641   4.744   4.850  10.639  0.0741  0.1980 -0.0147
  479POPI   PO4 7642   4.467   4.573  10.124 -0.0333  0.2072  0.2314
  479POPI   GL1 7643   4.646   4.231   9.827  0.1099 -0.1781  0.1833
  479POPI   GL2 7644   4.843   4.108   9.657 -0.0736  0.1456  0.2683
  479POPI   C1A 7645   4.369   4.381   9.476 -0.0241  0.2024 -0.1167
  479POPI   D2A 7646   4.131   4.176   9.124 -0.1700  0.0049  0.0863
  479POPI   C3A 7647   4.268   4.171   8.643  0.0009  0.0925  0.0317
  479POPI   C4A 7648   4.283   4.027   8.166 -0.0903 -0.1210 -0.0805
  479POPI   C1B 7649   4.823   4.402   9.339 -0.0013  0.2409 -0.3313
  479POPI   C2B 7650   4.735   4.318   8.918 -0.0374 -0.0336 -0.0648
  479POPI   C3B 7651   4.766   4.253   8.494 -0.0743  0.0088 -0.1345
  479POPI   C4B 7652   4.780   4.301   7.980  0.1203 -0.2200 -0.1653
  480POPI    C1 7653   3.882   9.307   9.916  0.1957  0.1871 -0.0585
  480POPI    C2 7654   3.804   9.109  10.255  0.2983 -0.1354 -0.2197
  480POPI    C3 7655   3.918   9.492  10.269 -0.0472 -0.0382  0.0880
  480POPI   PO4 7656   4.086   9.081   9.741 -0.0068 -0.1587  0.3336
  480POPI   GL1 7657   4.283   9.203   9.312 -0.0684  0.3356 -0.0906
  480POPI   GL2 7658   4.123   9.431   9.359 -0.0904  0.2014 -0.3458
  480POPI   C1A 7659   4.554   9.098   8.980 -0.2514 -0.2088 -0.2338
  480POPI   D2A 7660   4.487   8.986   8.532 -0.1598 -0.1020  0.4150
  480POPI   C3A 7661   4.063   8.979   8.231 -0.1204  0.2173  0.0539
  480POPI   C4A 7662   3.907   8.792   7.881  0.0049 -0.1352  0.0926
  480POPI   C1B 7663   4.153   9.487   8.895  0.5331  0.0858 -0.2503
  480POPI   C2B 7664   4.215   9.444   8.433  0.1587 -0.4029  0.0395
  480POPI   C3B 7665   4.346   9.331   8.022  0.1087 -0.1776  0.0697
  480POPI   C4B 7666   4.529   8.984   7.987  0.0063  0.1758 -0.2129
  481POPI    C1 7667   0.897  10.979  10.468 -0.1941  0.3093  0.2060
  481POPI    C2 7668   1.063  11.329  10.369  0.1616  0.0695 -0.0713
  481POPI    C3 7669   1.209  11.119  10.677  0.0947  0.0578 -0.0474
  481POPI   PO4 7670   0.795  10.939  10.209  0.2765  0.0426  0.0864
  481POPI   GL1 7671   0.974  10.842   9.856 -0.1722  0.2111 -0.0086
  481POPI   GL2 7672   1.142  11.122   9.850 -0.1487 -0.1407  0.1629
  481POPI   C1A 7673   0.906  10.376   9.667  0.0313  0.0525  0.0885
  481POPI   D2A 7674   0.586  10.253   9.347  0.1671  0.4057  0.0982
  481POPI   C3A 7675   0.455  10.476   8.999  0.2238  0.0900 -0.1880
  481POPI   C4A 7676   0.267  10.917   9.049  0.0581  0.0814  0.1377
  481POPI   C1B 7677   1.152  11.490   9.672  0.0401  0.0475  0.1410
  481POPI   C2B 7678   1.014  11.768   9.350  0.2181 -0.1330  0.1046
  481POPI   C3B 7679   1.148  11.866   8.930  0.1070 -0.1270  0.0457
  481POPI   C4B 7680   0.998  11.897   8.412  0.0314  0.3625 -0.0448
  482POPI    C1 7681   0.467   4.403  10.728  0.1159  0.2766 -0.0303
  482POPI    C2 7682   0.613   4.427  11.100  0.0395 -0.2003  0.0365
  482POPI    C3 7683   0.226   4.503  11.031  0.0025 -0.3348  0.0934
  482POPI   PO4 7684   0.606   4.559  10.577  0.0711  0.1634 -0.2003
  482POPI   GL1 7685   0.632   4.681  10.196  0.1064 -0.1071  0.2157
  482POPI   GL2 7686   0.769   4.387  10.173 -0.1094  0.2259 -0.1607
  482POPI   C1A 7687   0.495   4.543   9.826 -0.1102 -0.1015 -0.0788
  482POPI   D2A 7688   0.305   4.653   9.444 -0.0759  0.1920  0.0497
  482POPI   C3A 7689   0.285   4.619   9.012 -0.2916  0.1982  0.0520
  482POPI   C4A 7690   0.247   4.555   8.540 -0.1321  0.2090 -0.2900
  482POPI   C1B 7691   0.954   4.392   9.793 -0.0426 -0.0470 -0.1713
  482POPI   C2B 7692   0.775   4.391   9.387 -0.0791 -0.6026  0.0161
  482POPI   C3B 7693   0.711   4.273   8.917 -0.0041  0.3312  0.2715
  482POPI   C4B 7694   0.673   4.144   8.527 -0.3605 -0.0543 -0.1451
  483POPI    C1 7695   6.876   4.922  10.161 -0.3862  0.0453 -0.0410
  483POPI    C2 7696   6.889   4.619  10.421  0.2267  0.0816 -0.0156
  483POPI    C3 7697   6.848   4.994  10.553 -0.2267  0.0414 -0.0282
  483POPI   PO4 7698   7.038   4.766   9.898  0.0146  0.1196  0.0574
  483POPI   GL1 7699   6.763   4.570   9.617  0.1675 -0.0568 -0.1001
  483POPI   GL2 7700   6.516   4.632   9.656 -0.3663  0.1641  0.1761
  483POPI   C1A 7701   6.860   4.406   9.173  0.0887  0.0062 -0.0631
  483POPI   D2A 7702   7.000   4.279   8.819 -0.1044  0.0936  0.0839
  483POPI   C3A 7703   6.919   3.977   8.431  0.0064 -0.0189  0.0848
  483POPI   C4A 7704   7.209   3.774   8.245 -0.0220 -0.0164  0.0160
  483POPI   C1B 7705   6.303   4.603   9.320  0.2309  0.0747  0.0303
  483POPI   C2B 7706   6.509   4.615   8.861  0.2812 -0.0636 -0.2859
  483POPI   C3B 7707   6.657   4.439   8.489  0.0122 -0.2356  0.3862
  483POPI   C4B 7708   6.662   4.292   8.092  0.3500 -0.3742  0.1623
  484POPI    C1 7709  16.974   6.687  10.460  0.0628  0.2205  0.0519
  484POPI    C2 7710  17.313   6.492  10.546 -0.0288  0.0011 -0.0747
  484POPI    C3 7711  17.025   6.522  10.821  0.0387  0.0728 -0.0114
  484POPI   PO4 7712  16.942   6.554  10.223 -0.0077  0.0445 -0.0506
  484POPI   GL1 7713  16.978   6.416   9.907 -0.1555 -0.0432 -0.0601
  484POPI   GL2 7714  16.871   6.700   9.760 -0.1369  0.1121  0.2308
  484POPI   C1A 7715  16.924   6.214   9.522 -0.1858 -0.0597 -0.0724
  484POPI   D2A 7716  16.906   6.167   9.071  0.3190 -0.2800 -0.0864
  484POPI   C3A 7717  16.910   6.305   8.759  0.0367 -0.1621 -0.0151
  484POPI   C4A 7718  16.977   6.329   8.334 -0.2011 -0.1149 -0.0324
  484POPI   C1B 7719  16.921   6.826   9.351  0.0148  0.1464 -0.4797
  484POPI   C2B 7720  16.949   6.776   8.986  0.0115 -0.3196  0.3294
  484POPI   C3B 7721  16.957   6.831   8.503 -0.1199  0.1757  0.2307
  484POPI   C4B 7722  17.136   6.786   8.184 -0.0821 -0.0234  0.1189
  485POPI    C1 7723   6.174  10.407  10.268 -0.1585  0.0545 -0.0372
  485POPI    C2 7724   6.252  10.567  10.627 -0.1729  0.0340 -0.0249
  485POPI    C3 7725   6.147  10.182  10.598  0.4905 -0.1529 -0.1111
  485POPI   PO4 7726   6.376  10.436  10.076  0.2134  0.2171  0.1765
  485POPI   GL1 7727   6.199  10.527   9.662  0.2530  0.0631 -0.3717
  485POPI   GL2 7728   6.092  10.829   9.688 -0.0702 -0.2219 -0.0526
  485POPI   C1A 7729   6.240  10.491   9.220  0.2378  0.2061 -0.3152
  485POPI   D2A 7730   6.361  10.242   8.920 -0.1900  0.2576  0.0249
  485POPI   C3A 7731   6.527  10.397   8.492  0.0115 -0.2890 -0.1027
  485POPI   C4A 7732   6.457  10.358   8.099  0.1876  0.1737 -0.0975
  485POPI   C1B 7733   5.841  10.781   9.248 -0.1536 -0.1426 -0.0115
  485POPI   C2B 7734   5.871  10.851   8.945 -0.3106 -0.2292  0.2751
  485POPI   C3B 7735   6.021  10.554   8.724 -0.2129 -0.2373 -0.2634
  485POPI   C4B 7736   5.731  10.331   8.536  0.1829  0.2833 -0.1825
  486POPI    C1 7737  15.995   4.839  10.351  0.2117  0.3286  0.1462
  486POPI    C2 7738  15.686   4.950  10.578 -0.1683 -0.2610 -0.0599
  486POPI    C3 7739  15.922   4.649  10.695  0.0436 -0.1250 -0.1315
  486POPI   PO4 7740  16.054   5.079  10.297  0.0963  0.0060 -0.0398
  486POPI   GL1 7741  15.912   5.361  10.003  0.1816 -0.0286 -0.0831
  486POPI   GL2 7742  15.652   5.567  10.138  0.3320 -0.0323  0.0541
  486POPI   C1A 7743  15.996   5.235   9.597  0.2318  0.0437  0.1700
  486POPI   D2A 7744  15.946   5.308   9.184 -0.0590  0.2544  0.0706
  486POPI   C3A 7745  15.987   5.283   8.671 -0.0154 -0.1050 -0.2599
  486POPI   C4A 7746  15.739   5.356   8.327 -0.0622  0.0005  0.0463
  486POPI   C1B 7747  15.470   5.586   9.688 -0.2208  0.3548  0.0384
  486POPI   C2B 7748  15.556   5.606   9.161 -0.0368 -0.0957  0.3045
  486POPI   C3B 7749  15.531   5.582   8.693  0.2015  0.2019  0.2145
  486POPI   C4B 7750  15.448   5.766   8.243 -0.2751  0.0018 -0.1732
  487POPI    C1 7751   2.858   5.732  10.123  0.0168  0.0420 -0.0213
  487POPI    C2 7752   2.730   5.505  10.427  0.2032 -0.0226  0.0099
  487POPI    C3 7753   2.947   5.834  10.499  0.3902 -0.1290 -0.0592
  487POPI   PO4 7754   2.708   5.831   9.999 -0.0581  0.1139 -0.2015
  487POPI   GL1 7755   2.719   5.910   9.592  0.1450  0.1753 -0.0481
  487POPI   GL2 7756   2.404   5.702   9.631  0.0964 -0.3301  0.1404
  487POPI   C1A 7757   2.721   5.713   9.219 -0.0034  0.0335 -0.0774
  487POPI   D2A 7758   2.771   5.658   8.773  0.0371  0.1968  0.0990
  487POPI   C3A 7759   2.453   5.700   8.465  0.1473 -0.1431  0.3365
  487POPI   C4A 7760   2.485   5.898   8.054  0.3295 -0.1596 -0.2177
  487POPI   C1B 7761   2.277   5.909   9.277  0.0327 -0.0146  0.1100
  487POPI   C2B 7762   2.311   5.796   8.917  0.2799  0.0245 -0.0493
  487POPI   C3B 7763   1.983   5.742   8.726 -0.0864  0.0625  0.0609
  487POPI   C4B 7764   1.597   5.576   8.478  0.0546 -0.0078 -0.2776
  488POPI    C1 7765   3.297   4.598  10.504 -0.0091 -0.0276 -0.4394
  488POPI    C2 7766   3.340   4.959  10.338 -0.2945  0.1443 -0.1513
  488POPI    C3 7767   3.115   4.915  10.666  0.1922 -0.2003  0.1505
  488POPI   PO4 7768   3.572   4.426  10.356 -0.3607 -0.3703 -0.1360
  488POPI   GL1 7769   3.533   4.351   9.977  0.1118 -0.0243 -0.0877
  488POPI   GL2 7770   3.301   4.591   9.982  0.1175 -0.2114  0.0407
  488POPI   C1A 7771   3.688   4.190   9.580 -0.1203 -0.1166 -0.1052
  488POPI   D2A 7772   3.606   3.922   9.218 -0.0341  0.0603 -0.1379
  488POPI   C3A 7773   3.747   3.995   8.790  0.0076  0.2709  0.1390
  488POPI   C4A 7774   3.855   3.872   8.442 -0.1925  0.1682  0.4430
  488POPI   C1B 7775   3.312   4.476   9.480  0.2099  0.1280 -0.0315
  488POPI   C2B 7776   3.572   4.399   9.148  0.1487 -0.0486 -0.2900
  488POPI   C3B 7777   3.894   4.563   8.888 -0.2465  0.0363  0.0677
  488POPI   C4B 7778   4.288   4.617   9.026  0.0152 -0.1003  0.1796
  489POPI    C1 7779  11.933  17.383  10.908 -0.2226  0.0223 -0.2501
  489POPI    C2 7780  11.724  17.576  11.190  0.0580 -0.0032 -0.0206
  489POPI    C3 7781  11.668  17.184  11.132  0.1029 -0.0280  0.0996
  489POPI   PO4 7782  12.005  17.522  10.724  0.0386  0.1011 -0.0349
  489POPI   GL1 7783  12.134  17.644  10.380  0.0933 -0.0009 -0.1127
  489POPI   GL2 7784  12.031  17.434  10.261 -0.1668  0.1413  0.0452
  489POPI   C1A 7785  12.289  17.954  10.160 -0.2158  0.0641 -0.1813
  489POPI   D2A 7786  12.335  18.002   9.767  0.0018 -0.0879 -0.0096
  489POPI   C3A 7787  12.231  17.758   9.447  0.1400 -0.0377 -0.1933
  489POPI   C4A 7788  12.278  17.760   9.051  0.3447 -0.0675  0.0187
  489POPI   C1B 7789  12.237  17.515   9.877  0.1689  0.2116 -0.1195
  489POPI   C2B 7790  12.573  17.429   9.587  0.1252 -0.0016  0.0781
  489POPI   C3B 7791  12.607  17.408   9.228  0.0680  0.0520 -0.1086
  489POPI   C4B 7792  12.512  17.251   8.955 -0.0788  0.0402 -0.2996
  490POPI    C1 7793   8.358   1.602  10.717  0.0045  0.0938 -0.0994
  490POPI    C2 7794   8.180   1.534  11.069  0.1894  0.2327  0.0229
  490POPI    C3 7795   8.531   1.725  11.056  0.3782 -0.1176 -0.2075
  490POPI   PO4 7796   8.442   1.339  10.575  0.0044  0.1735  0.1170
  490POPI   GL1 7797   8.483   1.216  10.128  0.0306 -0.0275  0.1055
  490POPI   GL2 7798   8.659   0.886  10.062  0.3494 -0.0393  0.1367
  490POPI   C1A 7799   8.411   1.101   9.622 -0.0015 -0.1086  0.0441
  490POPI   D2A 7800   8.466   0.909   9.153  0.1442 -0.3464 -0.1058
  490POPI   C3A 7801   8.484   1.156   8.807 -0.1710 -0.4970 -0.0042
  490POPI   C4A 7802   8.289   1.042   8.389 -0.1987  0.2099  0.1434
  490POPI   C1B 7803   8.850   0.836   9.632 -0.1412 -0.0591 -0.1454
  490POPI   C2B 7804   9.002   0.792   9.278  0.0334  0.0297  0.2103
  490POPI   C3B 7805   8.868   0.779   8.860  0.1118  0.0026 -0.3769
  490POPI   C4B 7806   8.715   0.808   8.475 -0.0890  0.2198  0.0281
  491POPI    C1 7807   5.187   7.453  10.246 -0.1648  0.0843  0.1548
  491POPI    C2 7808   5.340   7.814  10.329  0.1092  0.0592 -0.2169
  491POPI    C3 7809   5.443   7.497  10.550  0.0188  0.1720 -0.0102
  491POPI   PO4 7810   5.135   7.515   9.982 -0.0334  0.0302 -0.3041
  491POPI   GL1 7811   5.220   7.604   9.609  0.0702  0.1178  0.0356
  491POPI   GL2 7812   5.142   7.307   9.494 -0.0099 -0.1067  0.0209
  491POPI   C1A 7813   4.885   7.851   9.286  0.0378  0.0151  0.2228
  491POPI   D2A 7814   4.837   8.174   9.058 -0.1880 -0.0214  0.0994
  491POPI   C3A 7815   4.452   8.405   9.128 -0.2512 -0.2988  0.0071
  491POPI   C4A 7816   4.316   8.529   8.752 -0.1027  0.1735 -0.0226
  491POPI   C1B 7817   5.051   7.320   9.091  0.0324  0.1158 -0.2534
  491POPI   C2B 7818   4.970   7.415   8.760  0.1103  0.0063 -0.0392
  491POPI   C3B 7819   4.703   7.822   8.751  0.2925 -0.0829  0.2514
  491POPI   C4B 7820   4.545   8.132   8.586  0.2637  0.0682  0.0855
  492POPI    C1 7821  11.774   3.370  10.871  0.0558 -0.1403 -0.0539
  492POPI    C2 7822  11.874   3.677  11.107  0.2180 -0.0831 -0.1951
  492POPI    C3 7823  11.715   3.346  11.266 -0.1175  0.1376 -0.0602
  492POPI   PO4 7824  11.645   3.464  10.733 -0.2028 -0.2587  0.2281
  492POPI   GL1 7825  11.863   3.380  10.198 -0.2719  0.1384 -0.2746
  492POPI   GL2 7826  11.591   3.300  10.263  0.1243  0.1239  0.1744
  492POPI   C1A 7827  11.506   3.719  10.095 -0.0242  0.1258 -0.1667
  492POPI   D2A 7828  11.141   3.967   9.973  0.1407  0.4060 -0.0249
  492POPI   C3A 7829  11.181   3.888   9.509  0.2346  0.1310 -0.1797
  492POPI   C4A 7830  11.106   3.787   9.072  0.3862  0.3935 -0.3362
  492POPI   C1B 7831  11.646   3.376   9.779  0.2796 -0.2211 -0.0039
  492POPI   C2B 7832  11.699   3.549   9.402  0.0041  0.1016 -0.0628
  492POPI   C3B 7833  11.638   3.683   8.906  0.2830  0.2977  0.0037
  492POPI   C4B 7834  11.358   3.677   8.643 -0.1639  0.1992 -0.1114
  493POPI    C1 7835  13.377   2.321  10.676 -0.0810  0.0132 -0.2522
  493POPI    C2 7836  13.247   1.946  10.628  0.1715 -0.0915 -0.1396
  493POPI    C3 7837  13.624   2.041  10.533  0.1325  0.1165 -0.0926
  493POPI   PO4 7838  13.185   2.488  10.635 -0.0114 -0.1746 -0.1053
  493POPI   GL1 7839  12.922   2.627  10.358  0.2096  0.1131 -0.1022
  493POPI   GL2 7840  12.858   2.951  10.195  0.0285  0.1105  0.0071
  493POPI   C1A 7841  13.188   2.695   9.950  0.0118  0.2713  0.0629
  493POPI   D2A 7842  13.345   2.862   9.590 -0.1941 -0.1261 -0.0405
  493POPI   C3A 7843  13.278   2.788   9.134 -0.2539  0.2312 -0.0634
  493POPI   C4A 7844  13.362   2.650   8.748  0.1114 -0.0739 -0.0386
  493POPI   C1B 7845  12.877   3.070   9.781 -0.1865 -0.0628  0.0803
  493POPI   C2B 7846  12.799   3.047   9.380  0.0175 -0.0887  0.1195
  493POPI   C3B 7847  13.042   3.288   9.004 -0.1513 -0.1365 -0.2467
  493POPI   C4B 7848  13.057   3.698   9.005  0.1958 -0.2033 -0.0701
  494POPI    C1 7849   9.298   9.953  10.178  0.1734  0.0638 -0.0056
  494POPI    C2 7850   9.656  10.064  10.319  0.0759  0.2819  0.0758
  494POPI    C3 7851   9.386   9.901  10.565  0.2059 -0.1160 -0.0363
  494POPI   PO4 7852   9.230  10.211   9.961 -0.2178  0.1903  0.0217
  494POPI   GL1 7853   9.220  10.060   9.552  0.0992 -0.3400 -0.3661
  494POPI   GL2 7854   9.559  10.081   9.554 -0.2472  0.2270 -0.2329
  494POPI   C1A 7855   9.133   9.809   9.256  0.0651  0.1410 -0.0085
  494POPI   D2A 7856   9.106   9.518   8.876 -0.0307 -0.0027 -0.1417
  494POPI   C3A 7857   9.000   9.488   8.431  0.2127  0.1963  0.3294
  494POPI   C4A 7858   8.675   9.757   8.301 -0.0352 -0.0172  0.0288
  494POPI   C1B 7859   9.516  10.123   9.108 -0.2378 -0.2911  0.1674
  494POPI   C2B 7860   9.419   9.852   8.710 -0.2029 -0.1045 -0.1745
  494POPI   C3B 7861   9.436   9.679   8.258 -0.1625 -0.2289 -0.1536
  494POPI   C4B 7862   9.666   9.383   7.945  0.0165  0.1282  0.0753
  495POPI    C1 7863  16.028   8.708  10.421  0.0398  0.0210 -0.3169
  495POPI    C2 7864  15.942   8.536  10.772 -0.1424  0.0612 -0.3409
  495POPI    C3 7865  15.996   8.932  10.751  0.3412  0.0055 -0.2739
  495POPI   PO4 7866  15.807   8.642  10.249 -0.3742  0.1208 -0.1062
  495POPI   GL1 7867  15.573   8.378   9.944 -0.1446 -0.1643 -0.0496
  495POPI   GL2 7868  15.412   8.618   9.894 -0.0970  0.2121 -0.1542
  495POPI   C1A 7869  15.749   8.206   9.611  0.0389 -0.2092 -0.1001
  495POPI   D2A 7870  15.656   8.062   9.211  0.0573 -0.1622  0.2485
  495POPI   C3A 7871  15.808   8.129   8.778 -0.2421  0.0523 -0.0867
  495POPI   C4A 7872  15.735   8.209   8.355  0.0864  0.0998  0.2306
  495POPI   C1B 7873  15.292   8.405   9.503  0.2134 -0.0282 -0.1512
  495POPI   C2B 7874  15.297   8.393   9.021 -0.0643  0.0627  0.0403
  495POPI   C3B 7875  15.342   8.508   8.651 -0.1108 -0.0476  0.2248
  495POPI   C4B 7876  15.244   8.507   8.266  0.0547  0.2809  0.1456
  496POPI    C1 7877  12.482   0.898  10.511 -0.0071  0.0053  0.1261
  496POPI    C2 7878  12.342   1.133  10.803  0.2381  0.1137  0.1586
  496POPI    C3 7879  12.554   0.805  10.893 -0.1465 -0.1539  0.1151
  496POPI   PO4 7880  12.714   1.017  10.280 -0.0420  0.0791  0.0987
  496POPI   GL1 7881  12.877   1.047   9.818 -0.1162 -0.4573  0.1145
  496POPI   GL2 7882  13.184   1.325   9.801 -0.0633 -0.1104  0.1053
  496POPI   C1A 7883  12.431   0.779   9.607  0.0931  0.0046 -0.3114
  496POPI   D2A 7884  12.084   0.534   9.516  0.0802  0.3071  0.0532
  496POPI   C3A 7885  11.900   0.363   9.121 -0.2020 -0.1522 -0.2441
  496POPI   C4A 7886  11.833   0.205   8.738  0.1351 -0.2869  0.1233
  496POPI   C1B 7887  13.185   1.187   9.397  0.0465  0.0914 -0.3193
  496POPI   C2B 7888  13.081   1.287   8.916 -0.0140  0.1737  0.0966
  496POPI   C3B 7889  13.261   1.323   8.647  0.0939  0.1528 -0.0710
  496POPI   C4B 7890  13.522   1.397   8.325  0.0611  0.1663  0.6004
  497POPI    C1 7891  14.509  16.687  10.436  0.0914  0.3219 -0.2934
  497POPI    C2 7892  14.140  16.634  10.291  0.0640 -0.1428 -0.0710
  497POPI    C3 7893  14.191  16.783  10.659  0.1019  0.0103 -0.1379
  497POPI   PO4 7894  14.673  16.771  10.166 -0.1960  0.3347  0.0755
  497POPI   GL1 7895  14.729  17.164   9.980 -0.1897 -0.1409  0.0449
  497POPI   GL2 7896  14.871  16.886   9.749  0.1492 -0.1644  0.2304
  497POPI   C1A 7897  14.515  17.264   9.565 -0.0172 -0.3730  0.1049
  497POPI   D2A 7898  14.184  17.578   9.375  0.2428 -0.1783 -0.3211
  497POPI   C3A 7899  14.008  17.723   9.003 -0.1160  0.1264  0.0144
  497POPI   C4A 7900  13.831  17.602   8.602 -0.0049 -0.0021  0.0699
  497POPI   C1B 7901  14.726  16.864   9.337 -0.0302 -0.0456 -0.1707
  497POPI   C2B 7902  14.836  16.999   8.883  0.1003 -0.1118  0.1331
  497POPI   C3B 7903  14.848  17.063   8.423  0.1358 -0.0028 -0.0403
  497POPI   C4B 7904  14.912  16.816   7.999 -0.0156 -0.3864  0.0828
  498POPI    C1 7905  13.339  12.350  10.270 -0.0403  0.1635  0.0758
  498POPI    C2 7906  13.227  12.677  10.472 -0.3786  0.0165  0.1330
  498POPI    C3 7907  13.007  12.344  10.492 -0.0309 -0.2220  0.0854
  498POPI   PO4 7908  13.414  12.352  10.056  0.0644  0.3257  0.0812
  498POPI   GL1 7909  13.229  12.257   9.615 -0.0119  0.1177  0.3262
  498POPI   GL2 7910  13.595  12.279   9.588 -0.4015  0.0528  0.0361
  498POPI   C1A 7911  13.190  12.033   9.300  0.0675  0.0407  0.0322
  498POPI   D2A 7912  13.248  11.780   9.128  0.1058  0.1039  0.1599
  498POPI   C3A 7913  13.142  11.607   8.793  0.1463  0.0558  0.3084
  498POPI   C4A 7914  13.138  11.544   8.296  0.0589 -0.0690 -0.3703
  498POPI   C1B 7915  13.659  12.165   9.245  0.2158 -0.2346  0.2134
  498POPI   C2B 7916  13.514  12.049   8.832 -0.1082  0.0931  0.2472
  498POPI   C3B 7917  13.342  12.139   8.448  0.0563 -0.2554  0.0144
  498POPI   C4B 7918  13.134  12.105   8.046 -0.1012  0.0480  0.2158
  499POPI    C1 7919  17.373  16.795  10.711 -0.2284  0.2078  0.0421
  499POPI    C2 7920  17.105  16.563  10.895 -0.0382  0.1115  0.2021
  499POPI    C3 7921  17.495  16.498  10.950  0.0193  0.2218 -0.0641
  499POPI   PO4 7922  17.283  16.874  10.499  0.0247  0.1537  0.0219
  499POPI   GL1 7923  17.403  16.737  10.107 -0.0972  0.3117 -0.0733
  499POPI   GL2 7924  17.079  16.625  10.138 -0.0193  0.1546 -0.0754
  499POPI   C1A 7925  17.391  16.806   9.733  0.1211  0.0261 -0.1147
  499POPI   D2A 7926  17.459  16.742   9.295 -0.1451 -0.0705 -0.1082
  499POPI   C3A 7927  17.424  16.892   8.907 -0.3047  0.1432 -0.1465
  499POPI   C4A 7928  17.367  16.833   8.528  0.1142  0.1505  0.1768
  499POPI   C1B 7929  16.847  16.750   9.817 -0.2144 -0.1142  0.3089
  499POPI   C2B 7930  16.844  16.859   9.328 -0.0818  0.3293  0.0958
  499POPI   C3B 7931  16.963  16.945   8.931  0.0168 -0.0039 -0.2527
  499POPI   C4B 7932  16.912  17.015   8.457 -0.0525 -0.0076 -0.0388
  500POPI    C1 7933   0.652  12.844  10.331  0.1823 -0.0282  0.1652
  500POPI    C2 7934   0.564  12.508  10.131 -0.0300  0.1184  0.0082
  500POPI    C3 7935   0.538  12.516  10.530 -0.1547 -0.0136  0.0036
  500POPI   PO4 7936   0.511  13.007  10.095  0.0715  0.0400  0.0738
  500POPI   GL1 7937   0.582  13.133   9.675  0.3146 -0.2971  0.2000
  500POPI   GL2 7938   0.211  13.169   9.702 -0.1305 -0.0595 -0.0337
  500POPI   C1A 7939   0.547  13.195   9.246 -0.5176 -0.2305 -0.0996
  500POPI   D2A 7940   0.492  13.338   8.999  0.0942 -0.2165 -0.1106
  500POPI   C3A 7941   0.505  13.351   8.556 -0.0588 -0.0331  0.2411
  500POPI   C4A 7942   0.530  13.444   8.188  0.1938 -0.0476 -0.1541
  500POPI   C1B 7943  -0.008  13.338   9.381  0.0517  0.1052  0.0216
  500POPI   C2B 7944  -0.011  13.438   8.903  0.2502 -0.1724  0.2318
  500POPI   C3B 7945  -0.012  13.351   8.508  0.3144 -0.0035 -0.1039
  500POPI   C4B 7946   0.001  13.580   8.113 -0.1319  0.0782 -0.1414
  501POPI    C1 7947   4.583  13.699  10.758  0.2318 -0.0341  0.0505
  501POPI    C2 7948   4.229  13.869  10.828  0.3312  0.1268  0.1690
  501POPI    C3 7949   4.287  13.484  10.919  0.0449 -0.0313 -0.2808
  501POPI   PO4 7950   4.629  13.782  10.477 -0.0133  0.3819 -0.1110
  501POPI   GL1 7951   4.668  13.684   9.996 -0.2368  0.0309  0.1249
  501POPI   GL2 7952   4.919  13.601   9.912  0.0253 -0.1360 -0.1042
  501POPI   C1A 7953   4.434  13.918   9.713 -0.2300  0.2538 -0.0700
  501POPI   D2A 7954   4.433  13.967   9.221 -0.3900  0.0525 -0.0258
  501POPI   C3A 7955   4.355  13.917   8.767  0.1658 -0.2477 -0.2725
  501POPI   C4A 7956   4.443  13.987   8.315  0.1387  0.2648  0.3395
  501POPI   C1B 7957   4.885  13.961   9.534 -0.5191 -0.0418 -0.3136
  501POPI   C2B 7958   4.876  13.946   8.985  0.1119  0.1313  0.1537
  501POPI   C3B 7959   4.957  13.859   8.574  0.3767  0.0047 -0.0926
  501POPI   C4B 7960   5.092  13.668   8.184  0.0729  0.1682  0.0888
  502POPI    C1 7961  13.578   5.132  10.666  0.0542 -0.0623 -0.0238
  502POPI    C2 7962  13.393   4.825  10.844  0.0798 -0.0768 -0.0222
  502POPI    C3 7963  13.510   5.141  11.060 -0.0952  0.0086 -0.0505
  502POPI   PO4 7964  13.732   5.043  10.560  0.0536 -0.2913  0.0346
  502POPI   GL1 7965  13.842   4.872  10.138 -0.0641 -0.1030  0.0865
  502POPI   GL2 7966  13.462   4.983  10.174  0.0456 -0.0901  0.0183
  502POPI   C1A 7967  13.998   4.571   9.745 -0.3075  0.0568 -0.2647
  502POPI   D2A 7968  14.150   4.824   9.425 -0.2321  0.3158 -0.1785
  502POPI   C3A 7969  14.108   4.787   9.015 -0.5229  0.2460  0.0353
  502POPI   C4A 7970  14.075   4.838   8.581 -0.0151 -0.2622 -0.1748
  502POPI   C1B 7971  13.505   4.829   9.702  0.1885  0.3523  0.0591
  502POPI   C2B 7972  13.472   4.585   9.275 -0.0655  0.1151 -0.2327
  502POPI   C3B 7973  13.275   4.539   8.872  0.0389 -0.0064  0.0739
  502POPI   C4B 7974  13.084   4.872   8.520 -0.1017  0.0749 -0.1101
  503POPI    C1 7975  17.787  16.358  10.500 -0.1444  0.1143  0.2647
  503POPI    C2 7976  17.387  16.357  10.488 -0.1372 -0.0489 -0.0937
  503POPI    C3 7977  17.584  16.036  10.621 -0.1226 -0.0214 -0.0488
  503POPI   PO4 7978  17.842  16.511  10.219 -0.4896 -0.3563 -0.1657
  503POPI   GL1 7979  18.031  16.424   9.783  0.2959 -0.0845  0.2348
  503POPI   GL2 7980  17.708  16.369   9.691  0.0556  0.2545 -0.0940
  503POPI   C1A 7981  18.083  16.606   9.359 -0.0850  0.2417  0.3107
  503POPI   D2A 7982  17.966  16.764   8.883 -0.1320  0.0853  0.0255
  503POPI   C3A 7983  17.889  16.845   8.508 -0.1549 -0.1954  0.1807
  503POPI   C4A 7984  18.160  16.896   8.139  0.0740  0.2376 -0.2379
  503POPI   C1B 7985  17.737  16.314   9.234  0.1090 -0.0813 -0.3523
  503POPI   C2B 7986  17.690  16.407   8.740 -0.1451  0.1760  0.1788
  503POPI   C3B 7987  17.632  16.439   8.219  0.2764  0.0442  0.1424
  503POPI   C4B 7988  17.666  16.836   7.926  0.1502 -0.0929 -0.2477
  504POPI    C1 7989  14.730  15.814  10.372 -0.2251  0.0849 -0.0401
  504POPI    C2 7990  14.866  15.891  10.003  0.0096  0.0959  0.0467
  504POPI    C3 7991  14.592  15.605  10.060  0.0855 -0.0107 -0.1173
  504POPI   PO4 7992  14.962  15.854  10.489 -0.1279 -0.0018 -0.0978
  504POPI   GL1 7993  15.320  15.807  10.180 -0.1394  0.1262  0.0312
  504POPI   GL2 7994  15.524  15.548  10.076  0.1648 -0.2425  0.0870
  504POPI   C1A 7995  15.306  16.054   9.742 -0.0095  0.2961 -0.1081
  504POPI   D2A 7996  15.271  16.062   9.305 -0.1708 -0.2643 -0.0283
  504POPI   C3A 7997  14.940  16.132   8.949  0.3726 -0.0281 -0.0658
  504POPI   C4A 7998  14.643  16.042   8.649 -0.0099 -0.3522 -0.3444
  504POPI   C1B 7999  15.430  15.565   9.588 -0.4074 -0.1464 -0.0600
  504POPI   C2B 8000  15.551  15.623   9.168 -0.0586  0.3234 -0.0962
  504POPI   C3B 8001  15.391  15.831   8.865  0.1029 -0.3263 -0.2501
  504POPI   C4B 8002  15.118  15.767   8.370 -0.0441 -0.0556  0.3755
  505POPI    C1 8003  12.048   1.953  10.836 -0.2603  0.0410 -0.2433
  505POPI    C2 8004  12.013   1.578  10.700 -0.0733 -0.1046  0.0969
  505POPI    C3 8005  12.265   1.659  11.000 -0.1317  0.2912  0.0444
  505POPI   PO4 8006  11.892   2.111  10.752  0.2129 -0.1901  0.0587
  505POPI   GL1 8007  11.764   2.317  10.387 -0.1049 -0.2448 -0.3520
  505POPI   GL2 8008  11.889   2.616  10.549 -0.2043  0.0837 -0.0067
  505POPI   C1A 8009  11.566   2.436  10.021 -0.0187 -0.1266  0.0251
  505POPI   D2A 8010  11.435   2.270   9.714  0.0608 -0.0269  0.0947
  505POPI   C3A 8011  11.436   2.256   9.338 -0.0566 -0.1409  0.1500
  505POPI   C4A 8012  11.346   2.089   9.017  0.2061 -0.1537 -0.1024
  505POPI   C1B 8013  11.841   2.870  10.179  0.3851  0.0098 -0.1423
  505POPI   C2B 8014  12.010   3.014   9.820  0.2629  0.0431 -0.0313
  505POPI   C3B 8015  11.874   3.112   9.457  0.0956  0.3716 -0.2926
  505POPI   C4B 8016  11.645   3.136   9.058  0.2832 -0.1562  0.0596
  506POPI    C1 8017   4.467   9.334  10.149 -0.1139 -0.1419 -0.0902
  506POPI    C2 8018   4.268   8.990  10.193  0.0104 -0.2066 -0.0299
  506POPI    C3 8019   4.312   9.237  10.505 -0.0637 -0.1437 -0.0688
  506POPI   PO4 8020   4.386   9.467   9.912 -0.2674  0.0764 -0.1585
  506POPI   GL1 8021   4.715   9.462   9.547  0.1069 -0.2414 -0.2677
  506POPI   GL2 8022   5.038   9.561   9.470  0.2709 -0.1453  0.0108
  506POPI   C1A 8023   4.593   9.577   9.177 -0.0574 -0.1197  0.0380
  506POPI   D2A 8024   4.641   9.607   8.762  0.3604 -0.1641  0.0458
  506POPI   C3A 8025   4.771   9.369   8.304 -0.0570 -0.0078  0.1861
  506POPI   C4A 8026   4.937   9.424   7.904 -0.1009 -0.0200  0.1296
  506POPI   C1B 8027   5.066   9.568   9.034 -0.0866 -0.1886 -0.1151
  506POPI   C2B 8028   5.123   9.646   8.598  0.2604  0.2418  0.0405
  506POPI   C3B 8029   5.225   9.807   8.181  0.0178  0.0209  0.1178
  506POPI   C4B 8030   5.338  10.132   7.917 -0.0424  0.0517 -0.1145
  507POPI    C1 8031  13.630   5.862  10.500  0.0710 -0.0468 -0.0909
  507POPI    C2 8032  14.012   5.950  10.576  0.0666 -0.0920 -0.0160
  507POPI    C3 8033  13.735   6.006  10.858  0.0475 -0.2431 -0.0039
  507POPI   PO4 8034  13.603   5.612  10.402 -0.0192  0.2286  0.0681
  507POPI   GL1 8035  13.766   5.377  10.075  0.4119 -0.2427 -0.0696
  507POPI   GL2 8036  13.917   5.661  10.051  0.0012 -0.1220 -0.5005
  507POPI   C1A 8037  13.661   5.290   9.718 -0.1248  0.2181  0.1386
  507POPI   D2A 8038  13.682   5.046   9.302  0.1701  0.1917  0.1868
  507POPI   C3A 8039  13.660   4.972   8.828  0.1187 -0.1045  0.0674
  507POPI   C4A 8040  13.522   5.059   8.460 -0.0390 -0.0693 -0.0361
  507POPI   C1B 8041  14.132   5.817   9.658 -0.0021  0.2510  0.1534
  507POPI   C2B 8042  14.192   5.961   9.306  0.0002  0.1284 -0.3113
  507POPI   C3B 8043  14.216   5.799   8.868  0.1846  0.0223  0.1286
  507POPI   C4B 8044  14.120   5.705   8.432  0.1972  0.1335 -0.3243
  508POPI    C1 8045   7.588   9.034  10.424 -0.0136  0.0631  0.1203
  508POPI    C2 8046   7.639   8.648  10.331 -0.1025  0.1080 -0.1232
  508POPI    C3 8047   7.388   8.752  10.625 -0.0851 -0.0187 -0.0630
  508POPI   PO4 8048   7.612   9.087  10.077  0.1078 -0.2072  0.1532
  508POPI   GL1 8049   7.477   9.071   9.651  0.2606 -0.3100 -0.0317
  508POPI   GL2 8050   7.851   9.096   9.520  0.1330  0.3377  0.1636
  508POPI   C1A 8051   7.349   9.282   9.285 -0.0365 -0.0845 -0.1449
  508POPI   D2A 8052   7.359   9.548   8.907 -0.0551  0.0709  0.2121
  508POPI   C3A 8053   7.403   9.301   8.533  0.4367 -0.1779  0.3296
  508POPI   C4A 8054   7.512   9.280   8.110 -0.0594 -0.2472  0.1284
  508POPI   C1B 8055   7.684   8.949   9.160 -0.1904  0.0550 -0.1847
  508POPI   C2B 8056   7.284   8.738   9.154 -0.2164  0.0824  0.0581
  508POPI   C3B 8057   7.116   8.555   8.775  0.1616  0.4515 -0.0374
  508POPI   C4B 8058   6.953   8.143   8.570 -0.1183  0.0807  0.0119
  509POPI    C1 8059  12.299  14.820  10.448  0.0164  0.0106  0.0210
  509POPI    C2 8060  12.222  14.673  10.811 -0.3427  0.0713 -0.0272
  509POPI    C3 8061  12.480  14.976  10.769 -0.1105 -0.0986  0.1462
  509POPI   PO4 8062  12.407  14.624  10.310  0.0467 -0.2323 -0.2241
  509POPI   GL1 8063  12.295  14.606   9.882  0.0547  0.0560  0.1718
  509POPI   GL2 8064  12.308  14.312   9.671 -0.1789 -0.3747 -0.1286
  509POPI   C1A 8065  12.363  14.852   9.602 -0.0968  0.0815  0.0024
  509POPI   D2A 8066  12.466  14.792   9.236 -0.1619  0.3206 -0.3216
  509POPI   C3A 8067  12.389  14.713   8.835 -0.0646  0.1814 -0.1548
  509POPI   C4A 8068  12.263  14.662   8.466  0.0649  0.0141  0.2051
  509POPI   C1B 8069  12.033  14.481   9.304 -0.3478  0.0217 -0.1309
  509POPI   C2B 8070  11.963  14.386   8.953 -0.2590 -0.1780  0.2426
  509POPI   C3B 8071  11.788  14.476   8.635  0.0023 -0.1754  0.0091
  509POPI   C4B 8072  11.622  14.274   8.283  0.2789 -0.0844 -0.4006
  510POPI    C1 8073  15.401  16.439  10.619 -0.1848  0.2366  0.1927
  510POPI    C2 8074  15.167  16.189  10.826  0.1641 -0.1475  0.1348
  510POPI    C3 8075  15.468  16.378  11.009 -0.0777  0.2119  0.1707
  510POPI   PO4 8076  15.506  16.345  10.353  0.1432 -0.1572 -0.2660
  510POPI   GL1 8077  15.511  16.601  10.019 -0.2401  0.0703  0.0365
  510POPI   GL2 8078  15.191  16.477   9.946  0.0923  0.0885  0.0502
  510POPI   C1A 8079  15.543  16.458   9.549 -0.0788 -0.1555 -0.0716
  510POPI   D2A 8080  15.612  16.499   9.095  0.0891 -0.2370 -0.0673
  510POPI   C3A 8081  15.503  16.333   8.723  0.1063 -0.0220 -0.0403
  510POPI   C4A 8082  15.587  16.146   8.353  0.0260 -0.0033 -0.2555
  510POPI   C1B 8083  15.064  16.468   9.529 -0.0737  0.0004  0.0285
  510POPI   C2B 8084  15.049  16.563   9.112 -0.0638 -0.1130  0.2450
  510POPI   C3B 8085  14.651  16.523   8.923  0.0705 -0.1282 -0.0421
  510POPI   C4B 8086  14.252  16.416   8.829 -0.2038 -0.3087  0.3240
  511POPI    C1 8087   3.808   7.379  10.169  0.0104  0.1002 -0.2584
  511POPI    C2 8088   3.605   7.635   9.938  0.1498  0.1804 -0.2935
  511POPI    C3 8089   3.912   7.765  10.159 -0.0113  0.1137 -0.0249
  511POPI   PO4 8090   3.818   7.173  10.065 -0.3018 -0.2689 -0.0646
  511POPI   GL1 8091   3.670   6.905   9.765 -0.2960  0.1256  0.0427
  511POPI   GL2 8092   3.456   7.155   9.683 -0.0955  0.2148  0.2192
  511POPI   C1A 8093   3.799   6.634   9.480  0.5040  0.0670 -0.1602
  511POPI   D2A 8094   3.569   6.320   9.274 -0.0453 -0.3888  0.2301
  511POPI   C3A 8095   3.772   5.952   8.964 -0.0185  0.2322 -0.0331
  511POPI   C4A 8096   4.156   5.733   8.975 -0.0232 -0.0849 -0.1649
  511POPI   C1B 8097   3.442   7.278   9.322 -0.0571 -0.2316 -0.2382
  511POPI   C2B 8098   3.720   7.480   9.094  0.0249  0.3902 -0.0954
  511POPI   C3B 8099   3.987   7.479   8.735 -0.2270 -0.0401 -0.0692
  511POPI   C4B 8100   3.920   7.273   8.293  0.0787  0.0213  0.1941
  512POPI    C1 8101  16.592   6.348  10.502 -0.0196 -0.0267  0.1281
  512POPI    C2 8102  16.339   6.071  10.641 -0.0988 -0.0138  0.0112
  512POPI    C3 8103  16.697   6.119  10.813 -0.1455 -0.0830  0.1298
  512POPI   PO4 8104  16.417   6.527  10.429  0.0574  0.1862  0.1498
  512POPI   GL1 8105  16.452   6.559   9.952 -0.2052 -0.1785 -0.2103
  512POPI   GL2 8106  16.544   6.203   9.997 -0.1481  0.4360  0.0946
  512POPI   C1A 8107  16.458   6.555   9.421 -0.0379  0.2168  0.2391
  512POPI   D2A 8108  16.519   6.475   9.018 -0.3881  0.1409  0.0849
  512POPI   C3A 8109  16.529   6.592   8.600  0.1454  0.2965  0.0926
  512POPI   C4A 8110  16.641   6.627   8.178 -0.2467 -0.0895 -0.1436
  512POPI   C1B 8111  16.469   6.065   9.640 -0.0316  0.2262 -0.0419
  512POPI   C2B 8112  16.440   5.984   9.163 -0.1073  0.0340  0.2003
  512POPI   C3B 8113  16.451   6.076   8.767 -0.3696 -0.0529 -0.1445
  512POPI   C4B 8114  16.495   6.113   8.318  0.0819 -0.0283  0.2675
  513POPI    C1 8115  11.207  14.084  10.457 -0.2459 -0.0129  0.0646
  513POPI    C2 8116  10.985  14.372  10.292  0.0940  0.1672 -0.0870
  513POPI    C3 8117  11.051  14.372  10.686 -0.3057  0.0194 -0.0164
  513POPI   PO4 8118  11.383  14.067  10.340  0.2408 -0.0918 -0.3178
  513POPI   GL1 8119  11.441  14.117   9.887  0.0344  0.0356 -0.0446
  513POPI   GL2 8120  11.324  13.889   9.622 -0.2641  0.1695 -0.3421
  513POPI   C1A 8121  11.611  14.291   9.429 -0.0953  0.0995 -0.0913
  513POPI   D2A 8122  11.541  14.570   9.198 -0.1617 -0.1520 -0.1383
  513POPI   C3A 8123  11.289  14.460   8.859 -0.3554 -0.0149 -0.0595
  513POPI   C4A 8124  11.163  14.122   8.525  0.1498 -0.1484 -0.0610
  513POPI   C1B 8125  11.474  13.836   9.278  0.1790  0.2533  0.1613
  513POPI   C2B 8126  11.580  14.006   8.948  0.0958 -0.0938 -0.0285
  513POPI   C3B 8127  11.855  13.958   8.628 -0.0046 -0.1946  0.1511
  513POPI   C4B 8128  12.107  14.143   8.358  0.1786 -0.0076 -0.1996
  514POPI    C1 8129  11.640   9.988  10.415  0.0644  0.2216  0.0844
  514POPI    C2 8130  11.946   9.755  10.524  0.0465  0.1767  0.0394
  514POPI    C3 8131  11.579   9.684  10.668 -0.0598 -0.1446 -0.3706
  514POPI   PO4 8132  11.546   9.966  10.204  0.0461 -0.1438  0.0547
  514POPI   GL1 8133  11.592   9.891   9.857  0.0215 -0.3304  0.1217
  514POPI   GL2 8134  11.983   9.955   9.951 -0.0909  0.1174 -0.0514
  514POPI   C1A 8135  11.732   9.706   9.467 -0.3376 -0.0027 -0.0687
  514POPI   D2A 8136  12.092   9.586   9.176  0.1255  0.0109  0.0536
  514POPI   C3A 8137  12.183   9.573   8.786 -0.2305  0.5160 -0.0103
  514POPI   C4A 8138  12.190   9.618   8.325 -0.3382  0.1062 -0.0078
  514POPI   C1B 8139  12.237   9.804   9.643  0.2400  0.1418 -0.2840
  514POPI   C2B 8140  12.403   9.493   9.509 -0.0231 -0.2273 -0.0411
  514POPI   C3B 8141  12.577   9.256   9.169 -0.1375 -0.0957  0.0735
  514POPI   C4B 8142  12.615   9.227   8.676  0.0771  0.1265 -0.1940
  515POPI    C1 8143   0.337  15.287  10.289  0.0141  0.1247 -0.0622
  515POPI    C2 8144   0.276  15.633  10.481 -0.0008 -0.0258  0.2102
  515POPI    C3 8145   0.025  15.327  10.536 -0.0779 -0.0318 -0.1517
  515POPI   PO4 8146   0.381  15.301  10.054 -0.1084  0.0913 -0.0193
  515POPI   GL1 8147   0.828  15.121   9.804  0.2243  0.0885 -0.3117
  515POPI   GL2 8148   0.750  15.471   9.759 -0.1119 -0.0136  0.2098
  515POPI   C1A 8149   0.578  15.060   9.434  0.1045 -0.1507 -0.0765
  515POPI   D2A 8150   0.529  15.208   9.060 -0.0203 -0.0570 -0.0167
  515POPI   C3A 8151   0.385  15.189   8.683 -0.0325  0.0230  0.0564
  515POPI   C4A 8152   0.343  15.110   8.262  0.2434  0.2631  0.0671
  515POPI   C1B 8153   0.960  15.449   9.332  0.1126 -0.1393  0.0161
  515POPI   C2B 8154   0.947  15.475   8.855 -0.2048 -0.4166 -0.0353
  515POPI   C3B 8155   1.076  15.505   8.522 -0.1374 -0.0968  0.0252
  515POPI   C4B 8156   0.781  15.450   8.158  0.1448 -0.3159 -0.0598
  516POPI    C1 8157   6.962  16.494  10.479 -0.2018 -0.0889 -0.1139
  516POPI    C2 8158   6.720  16.750  10.291  0.0592  0.1532 -0.1275
  516POPI    C3 8159   6.640  16.639  10.667 -0.0543  0.2578 -0.1198
  516POPI   PO4 8160   7.188  16.532  10.470  0.0184  0.1369 -0.4013
  516POPI   GL1 8161   7.553  16.717  10.183  0.2796 -0.0472 -0.2144
  516POPI   GL2 8162   7.259  16.886  10.085 -0.2174  0.1988 -0.0127
  516POPI   C1A 8163   7.877  16.859   9.878  0.2672 -0.0254  0.0783
  516POPI   D2A 8164   7.876  16.864   9.440  0.2512 -0.0647  0.0254
  516POPI   C3A 8165   7.830  16.960   9.033 -0.1225  0.3651  0.2020
  516POPI   C4A 8166   8.011  17.076   8.643  0.1260  0.1227 -0.2368
  516POPI   C1B 8167   7.383  16.871   9.587  0.0890 -0.1002  0.0741
  516POPI   C2B 8168   7.356  16.933   9.158  0.0898 -0.4379 -0.0259
  516POPI   C3B 8169   7.371  17.038   8.763 -0.1187 -0.3166  0.2113
  516POPI   C4B 8170   7.072  17.053   8.483  0.0942 -0.0257 -0.3055
  517POPI    C1 8171   4.654   3.556  10.482 -0.0663 -0.1949 -0.0198
  517POPI    C2 8172   4.398   3.435  10.764 -0.0789  0.1241  0.1085
  517POPI    C3 8173   4.550   3.805  10.776  0.2708 -0.0101 -0.0525
  517POPI   PO4 8174   4.571   3.493  10.241 -0.2224 -0.1461 -0.1687
  517POPI   GL1 8175   4.561   3.092   9.953  0.3482  0.1063  0.1003
  517POPI   GL2 8176   4.756   2.920   9.868 -0.3486 -0.1069  0.0743
  517POPI   C1A 8177   4.342   3.306   9.496 -0.0453 -0.2352  0.0418
  517POPI   D2A 8178   4.226   3.206   9.092 -0.1148 -0.2340 -0.0031
  517POPI   C3A 8179   3.918   3.146   8.800  0.3108 -0.0121  0.2009
  517POPI   C4A 8180   3.445   3.129   8.789 -0.2337  0.1941  0.0589
  517POPI   C1B 8181   4.747   2.991   9.444  0.2982 -0.1265 -0.0333
  517POPI   C2B 8182   4.691   2.905   9.054 -0.3394  0.0137  0.2388
  517POPI   C3B 8183   4.611   2.830   8.655 -0.3232  0.2189 -0.0734
  517POPI   C4B 8184   4.586   2.716   8.227  0.0073 -0.1611  0.0328
  518POPI    C1 8185  16.023   9.249  10.278  0.0193 -0.1882  0.3487
  518POPI    C2 8186  16.353   9.476  10.290 -0.1047  0.0212 -0.0377
  518POPI    C3 8187  16.167   9.375  10.630  0.3534 -0.1005  0.1847
  518POPI   PO4 8188  16.037   9.073  10.074 -0.0634  0.2276  0.0099
  518POPI   GL1 8189  15.846   8.958   9.677 -0.0905 -0.1430  0.0280
  518POPI   GL2 8190  15.811   8.673   9.584  0.0173 -0.0552 -0.3380
  518POPI   C1A 8191  15.902   9.076   9.246 -0.1156  0.0139  0.3437
  518POPI   D2A 8192  15.873   9.331   8.820  0.1813  0.0176 -0.2349
  518POPI   C3A 8193  16.062   9.577   8.641 -0.0672  0.0221  0.0034
  518POPI   C4A 8194  16.377   9.589   8.249 -0.1287  0.0623  0.0137
  518POPI   C1B 8195  15.752   8.524   9.167 -0.2342 -0.0942  0.1350
  518POPI   C2B 8196  15.741   8.749   8.732  0.0160 -0.0541 -0.1371
  518POPI   C3B 8197  15.670   8.676   8.259  0.2281  0.0813 -0.1225
  518POPI   C4B 8198  15.283   8.829   7.918 -0.0419 -0.1100 -0.1096
  519POPI    C1 8199  14.423  16.233  10.415 -0.0533 -0.0634  0.2156
  519POPI    C2 8200  14.371  15.939  10.681 -0.0272 -0.1797  0.0929
  519POPI    C3 8201  14.659  16.211  10.737  0.1855 -0.3875  0.0232
  519POPI   PO4 8202  14.425  16.137  10.218  0.1508 -0.0267  0.2414
  519POPI   GL1 8203  14.677  16.320   9.869  0.2108  0.0209 -0.2951
  519POPI   GL2 8204  14.364  16.523   9.853 -0.3122  0.3250 -0.1722
  519POPI   C1A 8205  14.791  15.984   9.559 -0.0293 -0.3019  0.0807
  519POPI   D2A 8206  14.784  15.720   9.471  0.3592  0.0220 -0.0566
  519POPI   C3A 8207  14.833  15.632   9.037  0.1135 -0.0444  0.1452
  519POPI   C4A 8208  14.778  15.375   8.704 -0.0588  0.0230  0.1819
  519POPI   C1B 8209  14.509  16.414   9.405 -0.3342  0.0841  0.0260
  519POPI   C2B 8210  14.402  16.037   9.180  0.1507 -0.1843  0.0998
  519POPI   C3B 8211  14.160  15.962   8.846 -0.0901  0.0138  0.0900
  519POPI   C4B 8212  14.152  16.089   8.425  0.2247  0.0269 -0.1134
  520POPI    C1 8213   2.478   7.727  10.267  0.2582  0.1493 -0.0140
  520POPI    C2 8214   2.236   8.043  10.226  0.1616  0.0604 -0.1374
  520POPI    C3 8215   2.426   7.980  10.572  0.0807  0.1818 -0.0702
  520POPI   PO4 8216   2.525   7.763   9.981 -0.0731 -0.0336 -0.1987
  520POPI   GL1 8217   2.585   7.656   9.551  0.0157 -0.2281 -0.1052
  520POPI   GL2 8218   2.290   7.589   9.518  0.0149  0.0307 -0.1494
  520POPI   C1A 8219   2.781   7.693   9.248  0.0268  0.0583  0.5174
  520POPI   D2A 8220   2.756   7.866   8.856  0.2975  0.0439  0.0484
  520POPI   C3A 8221   2.701   7.738   8.520 -0.0103 -0.0459 -0.1811
  520POPI   C4A 8222   2.637   7.707   8.094 -0.1280 -0.0266 -0.1673
  520POPI   C1B 8223   2.306   7.769   9.130 -0.0774 -0.0858  0.1716
  520POPI   C2B 8224   2.256   7.682   8.695  0.1936  0.0315  0.1464
  520POPI   C3B 8225   2.273   7.556   8.355 -0.0303 -0.0985 -0.0425
  520POPI   C4B 8226   2.143   7.460   7.969  0.0400  0.0631  0.1759
  521POPI    C1 8227   8.078   7.203   9.884 -0.2949 -0.1008  0.1976
  521POPI    C2 8228   8.187   6.839   9.760 -0.0077  0.0055  0.1292
  521POPI    C3 8229   8.329   6.984  10.105  0.0503  0.1368  0.0509
  521POPI   PO4 8230   8.107   7.338   9.629  0.1885  0.2093 -0.0033
  521POPI   GL1 8231   8.251   7.069   9.296  0.0622 -0.0524  0.1124
  521POPI   GL2 8232   8.526   7.025   9.442 -0.1941  0.3340 -0.0228
  521POPI   C1A 8233   8.211   7.154   8.907 -0.1395 -0.1042 -0.0000
  521POPI   D2A 8234   8.145   7.212   8.508 -0.0460  0.0220 -0.3016
  521POPI   C3A 8235   8.563   7.009   8.378  0.2362  0.0450  0.2866
  521POPI   C4A 8236   8.883   7.004   8.130 -0.0229 -0.1068  0.1583
  521POPI   C1B 8237   8.649   6.697   9.154  0.0886 -0.0840 -0.2373
  521POPI   C2B 8238   8.699   6.566   8.689 -0.2235 -0.0891  0.0776
  521POPI   C3B 8239   8.781   6.470   8.287  0.0120  0.1355 -0.0755
  521POPI   C4B 8240   8.920   6.506   7.814 -0.1893 -0.1151 -0.2261
  522POPI    C1 8241  11.744   6.656  10.747  0.0480  0.2353 -0.1507
  522POPI    C2 8242  11.574   6.309  10.847 -0.0432  0.3217 -0.0017
  522POPI    C3 8243  11.799   6.334  10.517  0.0889  0.0841  0.0682
  522POPI   PO4 8244  11.472   6.831  10.714 -0.0646 -0.3488 -0.0111
  522POPI   GL1 8245  11.428   6.943  10.248  0.0458 -0.0245  0.0205
  522POPI   GL2 8246  11.655   6.693  10.176 -0.1634 -0.1926 -0.3612
  522POPI   C1A 8247  11.451   7.026   9.796  0.0578  0.0476  0.0717
  522POPI   D2A 8248  11.740   7.005   9.374 -0.1577 -0.1328 -0.1018
  522POPI   C3A 8249  11.794   6.861   8.877  0.3238 -0.0749  0.1836
  522POPI   C4A 8250  12.244   6.790   8.669 -0.1399 -0.1328  0.0685
  522POPI   C1B 8251  11.796   6.606   9.796 -0.0297 -0.1960 -0.0191
  522POPI   C2B 8252  11.913   6.405   9.338  0.1604 -0.1251 -0.0216
  522POPI   C3B 8253  11.941   6.393   8.967  0.0382 -0.3396 -0.1307
  522POPI   C4B 8254  11.999   6.267   8.583  0.4956  0.2380  0.2109
  523POPI    C1 8255  18.052  14.131  10.572 -0.3057 -0.3581 -0.0765
  523POPI    C2 8256  18.243  13.946  10.870  0.0140 -0.0093 -0.0577
  523POPI    C3 8257  17.991  14.245  10.950 -0.1588 -0.1372 -0.1176
  523POPI   PO4 8258  18.174  14.190  10.309 -0.0934  0.0643 -0.0511
  523POPI   GL1 8259  18.166  14.428   9.892 -0.1469  0.3196  0.0895
  523POPI   GL2 8260  18.492  14.222   9.762  0.1020  0.0033  0.1472
  523POPI   C1A 8261  17.884  14.436   9.557 -0.1273 -0.0475 -0.0344
  523POPI   D2A 8262  17.878  14.411   9.111  0.0114 -0.4000 -0.1725
  523POPI   C3A 8263  17.901  14.454   8.603 -0.1419 -0.0400  0.0224
  523POPI   C4A 8264  17.769  14.483   8.164  0.0099  0.1245 -0.0427
  523POPI   C1B 8265  18.401  14.346   9.341  0.0440  0.0771  0.2631
  523POPI   C2B 8266  18.337  14.425   8.916  0.2158 -0.2002 -0.0045
  523POPI   C3B 8267  18.453  14.350   8.607 -0.1305 -0.0463 -0.0633
  523POPI   C4B 8268  18.289  14.357   8.180  0.1768 -0.4391  0.1727
  524DPPI    C1 8269  14.391   5.564  10.821  0.0548  0.1185 -0.0275
  524DPPI    C2 8270  14.213   5.817  11.076  0.1436 -0.0090  0.1629
  524DPPI    C3 8271  14.479   5.550  11.211  0.2870  0.0066 -0.0824
  524DPPI   PO4 8272  14.452   5.746  10.598  0.0695  0.0183  0.0931
  524DPPI   GL1 8273  14.417   5.848  10.151  0.1454  0.0096  0.1897
  524DPPI   GL2 8274  14.183   6.119  10.101 -0.2462 -0.0356 -0.0885
  524DPPI   C1A 8275  14.729   5.704   9.791 -0.0326 -0.2470 -0.2351
  524DPPI   C2A 8276  14.648   5.637   9.350  0.0597  0.0231 -0.1904
  524DPPI   C3A 8277  14.673   5.588   8.966  0.0156 -0.0696 -0.2228
  524DPPI   C4A 8278  14.624   5.664   8.534  0.0720 -0.2112  0.2928
  524DPPI   C1B 8279  13.864   6.229   9.711 -0.0345  0.1668 -0.2385
  524DPPI   C2B 8280  13.723   6.203   9.364 -0.1343  0.0523 -0.2308
  524DPPI   C3B 8281  13.772   5.974   8.934 -0.0244 -0.3490  0.0569
  524DPPI   C4B 8282  13.966   6.175   8.563  0.2380 -0.1165  0.0803
  525DPPI    C1 8283   8.201   7.818   9.833  0.2028 -0.1352  0.0082
  525DPPI    C2 8284   7.803   7.847   9.802  0.2405  0.1845 -0.2278
  525DPPI    C3 8285   7.966   7.679  10.126 -0.0858  0.0001 -0.1540
  525DPPI   PO4 8286   8.333   8.083   9.774 -0.1606  0.0430 -0.1215
  525DPPI   GL1 8287   8.393   8.338   9.346 -0.1683 -0.1168 -0.2253
  525DPPI   GL2 8288   8.198   8.652   9.219 -0.1195 -0.0818 -0.1022
  525DPPI   C1A 8289   8.172   8.140   9.058 -0.0793 -0.2704  0.2464
  525DPPI   C2A 8290   8.081   7.690   8.911  0.1001 -0.2159  0.0852
  525DPPI   C3A 8291   7.759   7.521   8.652 -0.1832  0.0998  0.1741
  525DPPI   C4A 8292   7.511   7.233   8.456  0.1256  0.2050 -0.5278
  525DPPI   C1B 8293   8.062   8.574   8.816 -0.1260  0.0370 -0.0449
  525DPPI   C2B 8294   7.999   8.166   8.589 -0.0714  0.1481 -0.1534
  525DPPI   C3B 8295   7.883   7.876   8.328 -0.0665 -0.0650 -0.0012
  525DPPI   C4B 8296   7.933   7.435   8.096  0.1182 -0.1325  0.1919
  526DPPI    C1 8297   0.566  13.888  10.331  0.1274  0.1875 -0.2004
  526DPPI    C2 8298   0.334  14.085  10.591  0.0053 -0.2964  0.0711
  526DPPI    C3 8299   0.732  14.088  10.635  0.0155  0.0005 -0.0138
  526DPPI   PO4 8300   0.484  13.935  10.146 -0.1055  0.0276 -0.2260
  526DPPI   GL1 8301   0.791  14.104   9.816 -0.1591 -0.0506  0.0255
  526DPPI   GL2 8302   1.078  14.023   9.672  0.0634 -0.0346  0.2205
  526DPPI   C1A 8303   0.585  14.110   9.403  0.1315 -0.1481  0.1773
  526DPPI   C2A 8304   0.545  14.181   8.970  0.1638  0.1305 -0.0156
  526DPPI   C3A 8305   0.669  14.239   8.606  0.1254 -0.0220  0.1163
  526DPPI   C4A 8306   0.788  14.213   8.208  0.2039 -0.0212 -0.2303
  526DPPI   C1B 8307   1.109  14.121   9.208  0.0091 -0.0583 -0.0142
  526DPPI   C2B 8308   1.161  14.118   8.732  0.1755  0.2620  0.1317
  526DPPI   C3B 8309   1.316  14.146   8.339  0.0247  0.0969  0.2145
  526DPPI   C4B 8310   1.177  14.308   7.842 -0.1761  0.1110  0.0282
  527DPPI    C1 8311   3.717  15.762  10.510 -0.2415  0.2337  0.2182
  527DPPI    C2 8312   4.048  15.737  10.733 -0.3044  0.1056  0.2979
  527DPPI    C3 8313   3.845  16.081  10.715  0.0298  0.2925 -0.0351
  527DPPI   PO4 8314   3.740  15.639  10.342  0.0388  0.4558 -0.1741
  527DPPI   GL1 8315   3.535  15.763   9.922  0.2664  0.2276 -0.2039
  527DPPI   GL2 8316   3.252  15.965   9.856  0.1324 -0.1415  0.1938
  527DPPI   C1A 8317   3.631  15.772   9.468  0.2415  0.0430 -0.0890
  527DPPI   C2A 8318   3.481  15.477   9.104  0.1881 -0.0730 -0.1351
  527DPPI   C3A 8319   3.407  15.064   8.896  0.1520 -0.2313 -0.0313
  527DPPI   C4A 8320   3.263  14.927   8.470  0.0677  0.3350 -0.1792
  527DPPI   C1B 8321   3.239  16.121   9.448  0.3323  0.0578 -0.0912
  527DPPI   C2B 8322   3.072  16.381   9.078  0.0850 -0.2453  0.1667
  527DPPI   C3B 8323   2.901  16.445   8.745  0.0281  0.1997 -0.0445
  527DPPI   C4B 8324   2.618  16.166   8.496 -0.3285 -0.1074  0.1111
  528DPPI    C1 8325   5.208   8.749  10.017 -0.0408 -0.0440  0.1422
  528DPPI    C2 8326   5.545   8.768   9.801 -0.2069  0.1359 -0.1061
  528DPPI    C3 8327   5.563   8.766  10.200  0.1039 -0.1986 -0.1173
  528DPPI   PO4 8328   5.035   8.774   9.822 -0.1212  0.0897 -0.0919
  528DPPI   GL1 8329   4.865   8.898   9.284  0.2381 -0.1534  0.0852
  528DPPI   GL2 8330   4.755   8.648   9.402 -0.0072  0.1940 -0.1710
  528DPPI   C1A 8331   5.082   9.070   9.067 -0.1969  0.0158 -0.1363
  528DPPI   C2A 8332   5.057   9.079   8.614  0.0870  0.3300  0.1592
  528DPPI   C3A 8333   5.316   9.307   8.276 -0.4068 -0.0868  0.0230
  528DPPI   C4A 8334   5.594   9.573   7.889  0.1978  0.2252 -0.0342
  528DPPI   C1B 8335   4.823   8.670   8.894 -0.1401  0.0660 -0.0930
  528DPPI   C2B 8336   4.875   8.661   8.422  0.3354 -0.1890  0.3234
  528DPPI   C3B 8337   4.972   8.850   8.046 -0.1416 -0.0809 -0.2571
  528DPPI   C4B 8338   5.311   9.127   7.806  0.2015 -0.1250 -0.0682
  529DPPI    C1 8339  14.137   0.890  10.930  0.0729 -0.1943 -0.1246
  529DPPI    C2 8340  13.789   0.725  10.822 -0.0518 -0.1500  0.1989
  529DPPI    C3 8341  13.907   0.711  11.204  0.2436 -0.0543  0.1140
  529DPPI   PO4 8342  14.303   0.779  10.622 -0.1517  0.1184  0.3993
  529DPPI   GL1 8343  14.367   1.031  10.225  0.0369  0.4001  0.0174
  529DPPI   GL2 8344  14.471   0.664  10.049  0.0225 -0.1900 -0.1844
  529DPPI   C1A 8345  14.553   1.030   9.786  0.1451 -0.3688 -0.0257
  529DPPI   C2A 8346  14.665   0.906   9.394  0.1775 -0.0371  0.0456
  529DPPI   C3A 8347  14.584   1.177   8.999  0.1596  0.1078  0.3304
  529DPPI   C4A 8348  14.413   1.275   8.602 -0.1702  0.1620  0.1452
  529DPPI   C1B 8349  14.877   0.572   9.706  0.1397  0.0236 -0.0959
  529DPPI   C2B 8350  15.014   0.504   9.321  0.1146 -0.1614 -0.1021
  529DPPI   C3B 8351  14.911   0.750   8.934  0.1359 -0.1658  0.0353
  529DPPI   C4B 8352  15.227   0.917   8.597 -0.0812 -0.0321  0.1054
  530DPPI    C1 8353  10.357   7.507  10.505  0.0122 -0.1380  0.1546
  530DPPI    C2 8354  10.598   7.412  10.200 -0.2220 -0.0612 -0.0589
  530DPPI    C3 8355  10.736   7.404  10.576  0.0855 -0.1027 -0.1700
  530DPPI   PO4 8356  10.114   7.594  10.250 -0.0087 -0.0661 -0.2187
  530DPPI   GL1 8357   9.863   7.472   9.839 -0.0590 -0.1194  0.1056
  530DPPI   GL2 8358  10.143   7.259   9.714 -0.2714  0.1513  0.2370
  530DPPI   C1A 8359   9.713   7.630   9.393 -0.1858  0.1680 -0.3272
  530DPPI   C2A 8360   9.543   7.482   8.978 -0.0303 -0.2016 -0.0409
  530DPPI   C3A 8361   9.445   7.223   8.666 -0.2326  0.0434 -0.1445
  530DPPI   C4A 8362   9.367   7.211   8.247 -0.0979  0.3403 -0.1132
  530DPPI   C1B 8363  10.543   7.164   9.680 -0.2661 -0.1822  0.2691
  530DPPI   C2B 8364  10.910   7.176   9.463 -0.1526  0.3338 -0.2053
  530DPPI   C3B 8365  11.213   7.034   9.377  0.0736  0.2419 -0.1372
  530DPPI   C4B 8366  11.373   7.078   8.992 -0.0058  0.1121 -0.2556
  531DPPI    C1 8367  11.832  11.097  10.158 -0.2830  0.2136  0.0877
  531DPPI    C2 8368  11.699  11.474  10.152  0.0334  0.3276  0.0178
  531DPPI    C3 8369  11.937  11.351  10.448 -0.1083  0.1666  0.0667
  531DPPI   PO4 8370  11.988  10.968   9.939 -0.0758 -0.0617 -0.1378
  531DPPI   GL1 8371  11.849  11.149   9.573 -0.1390  0.0908  0.1643
  531DPPI   GL2 8372  11.674  11.289   9.686  0.1764 -0.1892  0.0060
  531DPPI   C1A 8373  11.762  10.978   9.177  0.1128 -0.0782 -0.0506
  531DPPI   C2A 8374  11.687  10.896   8.773  0.0989  0.4285  0.0746
  531DPPI   C3A 8375  11.890  10.939   8.412  0.4158 -0.1419  0.0608
  531DPPI   C4A 8376  11.746  10.940   7.936  0.0577  0.1147  0.2449
  531DPPI   C1B 8377  11.332  11.201   9.351  0.0463 -0.1600  0.1933
  531DPPI   C2B 8378  11.292  11.169   8.908 -0.1830 -0.0351 -0.0239
  531DPPI   C3B 8379  11.209  10.939   8.551  0.1885  0.1177 -0.3209
  531DPPI   C4B 8380  11.468  10.707   8.307  0.2178 -0.0002 -0.3627
  532DPPI    C1 8381   8.284   0.821  10.992  0.1087 -0.0735  0.0071
  532DPPI    C2 8382   8.040   0.811  11.309 -0.1366 -0.2254 -0.1825
  532DPPI    C3 8383   8.097   0.481  11.090  0.3358 -0.2237 -0.0727
  532DPPI   PO4 8384   8.229   1.048  10.908 -0.0527 -0.0723 -0.1427
  532DPPI   GL1 8385   8.089   0.963  10.474  0.2030 -0.2385  0.0061
  532DPPI   GL2 8386   8.147   0.603  10.434 -0.4199  0.3250  0.0023
  532DPPI   C1A 8387   7.953   1.187  10.177  0.2025  0.1530  0.2570
  532DPPI   C2A 8388   7.965   1.275   9.685 -0.1337 -0.4502 -0.1240
  532DPPI   C3A 8389   7.947   1.131   9.262  0.3862  0.1512 -0.0808
  532DPPI   C4A 8390   8.008   1.145   8.840 -0.0501  0.0097  0.0012
  532DPPI   C1B 8391   8.160   0.797   9.956 -0.2238 -0.1366 -0.1051
  532DPPI   C2B 8392   8.119   0.719   9.463 -0.1062  0.0575 -0.0504
  532DPPI   C3B 8393   7.980   0.615   9.140  0.1014  0.1014  0.3043
  532DPPI   C4B 8394   7.727   0.722   8.723 -0.1954  0.3842 -0.0512
  533DPPI    C1 8395  18.123  17.319  10.604  0.1610  0.1191  0.0480
  533DPPI    C2 8396  18.471  17.151  10.705 -0.0309 -0.2278  0.1475
  533DPPI    C3 8397  18.158  17.124  10.952 -0.1559  0.0005  0.0164
  533DPPI   PO4 8398  18.134  17.313  10.282  0.1364 -0.1118 -0.0583
  533DPPI   GL1 8399  18.137  17.484   9.924 -0.0459  0.0148 -0.0273
  533DPPI   GL2 8400  18.342  17.736   9.996 -0.4213 -0.0403  0.2096
  533DPPI   C1A 8401  17.985  17.725   9.549 -0.1545 -0.1857  0.0283
  533DPPI   C2A 8402  17.973  17.811   9.132 -0.2573 -0.2612 -0.0067
  533DPPI   C3A 8403  18.022  17.626   8.791 -0.2154 -0.1594 -0.0018
  533DPPI   C4A 8404  18.199  17.747   8.354 -0.2434 -0.0287  0.1613
  533DPPI   C1B 8405  18.104  18.075   9.857  0.1302 -0.0950 -0.4451
  533DPPI   C2B 8406  18.100  18.214   9.450 -0.2341 -0.2690  0.1533
  533DPPI   C3B 8407  18.046  18.285   8.942  0.0622  0.1525 -0.0447
  533DPPI   C4B 8408  17.938  18.099   8.616 -0.1375  0.0632  0.0292
  534DPPI    C1 8409  12.948  15.612  10.359  0.1263  0.1219  0.1085
  534DPPI    C2 8410  12.605  15.696  10.548 -0.0849 -0.2570 -0.0939
  534DPPI    C3 8411  12.913  15.540  10.751  0.0260  0.2200  0.1180
  534DPPI   PO4 8412  12.918  15.532  10.115  0.1569 -0.1914 -0.0431
  534DPPI   GL1 8413  12.708  15.628   9.748  0.1400 -0.3622 -0.2106
  534DPPI   GL2 8414  12.620  15.260   9.834  0.1251 -0.1895  0.0248
  534DPPI   C1A 8415  12.889  15.788   9.371 -0.2609 -0.2756 -0.0317
  534DPPI   C2A 8416  12.829  16.084   9.050  0.2922  0.0833  0.4294
  534DPPI   C3A 8417  12.908  16.119   8.661  0.2017  0.1416 -0.0718
  534DPPI   C4A 8418  13.205  16.035   8.246  0.0669  0.1908  0.0104
  534DPPI   C1B 8419  12.754  15.324   9.364  0.0365  0.1466 -0.0147
  534DPPI   C2B 8420  12.669  15.170   8.914 -0.1324  0.1836 -0.0810
  534DPPI   C3B 8421  12.614  15.096   8.476  0.3507  0.4191 -0.7062
  534DPPI   C4B 8422  12.677  15.171   8.028 -0.0334  0.0239  0.2509
  535DPPI    C1 8423  16.379  13.275  10.517 -0.0455  0.1017 -0.0936
  535DPPI    C2 8424  15.980  13.270  10.553 -0.0613 -0.1014 -0.2809
  535DPPI    C3 8425  16.209  13.132  10.850 -0.1219  0.2217 -0.0804
  535DPPI   PO4 8426  16.444  13.280  10.281  0.1830 -0.0352  0.2462
  535DPPI   GL1 8427  16.314  13.113   9.912  0.4947 -0.0071 -0.0174
  535DPPI   GL2 8428  16.445  12.870   9.827 -0.0109  0.1389 -0.4185
  535DPPI   C1A 8429  16.327  13.162   9.473  0.1047  0.2341 -0.1341
  535DPPI   C2A 8430  16.321  13.241   9.090  0.2722 -0.2489 -0.1124
  535DPPI   C3A 8431  16.372  13.122   8.742 -0.3186 -0.0041 -0.2543
  535DPPI   C4A 8432  16.320  13.166   8.286 -0.0202  0.1931 -0.0134
  535DPPI   C1B 8433  16.546  12.774   9.349  0.0936  0.0523 -0.0143
  535DPPI   C2B 8434  16.616  12.675   8.918 -0.0180 -0.0401 -0.2014
  535DPPI   C3B 8435  16.513  12.675   8.517  0.1336 -0.2176 -0.0705
  535DPPI   C4B 8436  16.507  12.623   8.130 -0.1131  0.0106  0.1897
  536DPPI    C1 8437  14.209   2.907  10.799 -0.0886 -0.1091 -0.0534
  536DPPI    C2 8438  14.360   2.588  10.987  0.0606 -0.1070 -0.1680
  536DPPI    C3 8439  14.320   2.935  11.182 -0.0681 -0.1854 -0.0536
  536DPPI   PO4 8440  14.276   2.869  10.587  0.0338  0.0252  0.2377
  536DPPI   GL1 8441  14.206   2.718  10.220  0.1913 -0.0126 -0.1906
  536DPPI   GL2 8442  14.396   2.926  10.039  0.0372  0.1372 -0.2134
  536DPPI   C1A 8443  14.067   2.385   9.874 -0.0506 -0.0664  0.4794
  536DPPI   C2A 8444  13.939   2.033   9.558 -0.1981  0.0864  0.1645
  536DPPI   C3A 8445  13.714   1.883   9.226  0.2624 -0.2832  0.0256
  536DPPI   C4A 8446  13.588   1.429   9.124  0.0720  0.0884  0.2290
  536DPPI   C1B 8447  14.220   2.769   9.625 -0.0815 -0.2588 -0.3207
  536DPPI   C2B 8448  14.274   2.658   9.257  0.3514  0.0692  0.1370
  536DPPI   C3B 8449  14.457   2.564   8.874 -0.0740 -0.2436 -0.1787
  536DPPI   C4B 8450  14.463   2.517   8.470 -0.1682 -0.0570  0.3653
  537DPPI    C1 8451  15.767  10.733  10.528  0.0103 -0.1736  0.1295
  537DPPI    C2 8452  15.759  10.471  10.831  0.1729 -0.2932  0.0321
  537DPPI    C3 8453  15.943  10.824  10.875 -0.0286 -0.2024  0.1568
  537DPPI   PO4 8454  15.844  10.557  10.281 -0.0243 -0.0562  0.0364
  537DPPI   GL1 8455  16.158  10.582   9.852  0.2789 -0.1188  0.2119
  537DPPI   GL2 8456  16.305  10.337   9.700  0.1344  0.2622  0.0656
  537DPPI   C1A 8457  15.962  10.505   9.404  0.2863 -0.0301 -0.1328
  537DPPI   C2A 8458  15.662  10.501   9.156  0.3281 -0.2168 -0.1774
  537DPPI   C3A 8459  15.542  10.474   8.633  0.1855  0.3032  0.0811
  537DPPI   C4A 8460  15.582  10.406   8.208 -0.3622 -0.0730  0.2240
  537DPPI   C1B 8461  16.191  10.020   9.357 -0.2390  0.1046  0.0601
  537DPPI   C2B 8462  16.356  10.033   8.992 -0.0866 -0.2871  0.0405
  537DPPI   C3B 8463  16.367  10.068   8.576  0.3486 -0.2987  0.2865
  537DPPI   C4B 8464  16.461  10.067   8.166  0.1687 -0.1708  0.0651
  538DPPI    C1 8465   9.219  10.831  10.490  0.1026 -0.0303 -0.2017
  538DPPI    C2 8466   9.207  10.436  10.428 -0.0507 -0.0786  0.1156
  538DPPI    C3 8467   9.117  10.585  10.788 -0.1343  0.2573 -0.0402
  538DPPI   PO4 8468   9.128  10.923  10.288 -0.0195 -0.1844  0.1380
  538DPPI   GL1 8469   9.371  11.045   9.978  0.1159  0.1539 -0.1759
  538DPPI   GL2 8470   9.119  10.798   9.788  0.1153  0.1459  0.1786
  538DPPI   C1A 8471   9.544  11.248   9.582  0.3004  0.1699  0.2849
  538DPPI   C2A 8472   9.670  11.183   9.276  0.2708 -0.1333 -0.2343
  538DPPI   C3A 8473   9.634  11.409   8.906  0.1549  0.0099  0.0448
  538DPPI   C4A 8474   9.917  11.533   8.635 -0.1599 -0.0439  0.0473
  538DPPI   C1B 8475   9.365  10.776   9.405 -0.1137 -0.3685 -0.0838
  538DPPI   C2B 8476   9.367  10.885   9.059  0.0828 -0.0352  0.0381
  538DPPI   C3B 8477   9.297  11.103   8.721  0.1358 -0.0956 -0.3933
  538DPPI   C4B 8478   9.565  11.369   8.352  0.0944 -0.1185 -0.1228
  539DPPI    C1 8479   7.367   5.016  10.288 -0.1514 -0.2174  0.0404
  539DPPI    C2 8480   7.420   4.621  10.320 -0.0877 -0.1964  0.2057
  539DPPI    C3 8481   7.296   4.832  10.637 -0.0666 -0.0755  0.1337
  539DPPI   PO4 8482   7.399   5.070  10.049 -0.2010 -0.2429  0.0646
  539DPPI   GL1 8483   7.634   5.145   9.689 -0.2880 -0.2165  0.3184
  539DPPI   GL2 8484   7.869   5.310   9.558  0.1562  0.1720 -0.2530
  539DPPI   C1A 8485   7.515   5.222   9.281  0.1241  0.0478 -0.1681
  539DPPI   C2A 8486   7.343   5.226   8.843  0.0213 -0.2708 -0.3608
  539DPPI   C3A 8487   7.258   5.155   8.420  0.0912  0.1756  0.1179
  539DPPI   C4A 8488   7.370   5.307   7.944  0.1350 -0.2626 -0.2525
  539DPPI   C1B 8489   7.859   5.613   9.235  0.2984 -0.0506 -0.2251
  539DPPI   C2B 8490   7.898   5.855   8.842  0.1656 -0.0625  0.0678
  539DPPI   C3B 8491   7.952   5.882   8.358  0.0972  0.0601 -0.1917
  539DPPI   C4B 8492   7.868   6.056   7.899 -0.1479 -0.1873 -0.1056
  540DPPI    C1 8493  11.072  13.058  10.306  0.2847  0.1169 -0.0004
  540DPPI    C2 8494  11.068  13.083  10.706  0.2467 -0.0639  0.0115
  540DPPI    C3 8495  11.411  13.133  10.505  0.2785 -0.0399  0.0714
  540DPPI   PO4 8496  10.896  13.337  10.137  0.5258  0.1697  0.0328
  540DPPI   GL1 8497  10.773  13.525   9.813 -0.0285  0.1579 -0.0015
  540DPPI   GL2 8498  10.777  13.704   9.663 -0.0233  0.0533  0.2100
  540DPPI   C1A 8499  10.400  13.279   9.587  0.1316 -0.1000  0.1757
  540DPPI   C2A 8500  10.240  13.269   9.184  0.1152 -0.0175 -0.1250
  540DPPI   C3A 8501  10.150  13.192   8.705  0.2020 -0.5104  0.1465
  540DPPI   C4A 8502  10.243  13.093   8.282  0.3035  0.1738  0.1112
  540DPPI   C1B 8503  10.532  13.687   9.264 -0.2231 -0.0830  0.1356
  540DPPI   C2B 8504  10.469  13.568   8.836  0.2008 -0.0621  0.3656
  540DPPI   C3B 8505  10.483  13.530   8.305  0.1503 -0.0954  0.3459
  540DPPI   C4B 8506  10.401  13.870   7.970  0.1295  0.3369  0.2018
  541DPPI    C1 8507  14.022  12.352  10.003 -0.0728 -0.1037  0.0098
  541DPPI    C2 8508  14.203  12.087  10.241  0.0148 -0.1238 -0.0787
  541DPPI    C3 8509  13.807  12.135  10.261  0.0435  0.0116  0.2053
  541DPPI   PO4 8510  14.220  12.217   9.793 -0.2915 -0.1195  0.0513
  541DPPI   GL1 8511  14.159  12.255   9.411  0.0604 -0.1618 -0.0912
  541DPPI   GL2 8512  14.074  11.992   9.352 -0.0269 -0.0983  0.0916
  541DPPI   C1A 8513  14.129  12.370   9.001  0.2586  0.0616  0.4609
  541DPPI   C2A 8514  14.152  12.288   8.557 -0.1928  0.0834 -0.1913
  541DPPI   C3A 8515  14.179  12.367   8.124  0.2294  0.0262  0.1859
  541DPPI   C4A 8516  14.143  12.196   7.702 -0.2703  0.2197 -0.0159
  541DPPI   C1B 8517  14.040  11.869   8.848  0.0111 -0.0847  0.2105
  541DPPI   C2B 8518  13.937  11.846   8.410  0.0726  0.2103  0.3812
  541DPPI   C3B 8519  13.737  11.840   8.035  0.1928 -0.0442  0.1924
  541DPPI   C4B 8520  13.378  11.747   7.818  0.0671  0.1495  0.1635
  542DPPI    C1 8521  11.857  14.081  10.406  0.0740  0.1977 -0.0905
  542DPPI    C2 8522  12.176  14.196  10.619  0.0809 -0.0062  0.0114
  542DPPI    C3 8523  11.949  14.470  10.437 -0.0142  0.1863  0.4085
  542DPPI   PO4 8524  11.903  13.912  10.247  0.0947 -0.0599  0.0962
  542DPPI   GL1 8525  12.132  13.840   9.818 -0.1386 -0.0710 -0.1357
  542DPPI   GL2 8526  11.832  13.852   9.740  0.1430 -0.0021 -0.0345
  542DPPI   C1A 8527  12.399  13.777   9.452 -0.0975 -0.1338  0.0120
  542DPPI   C2A 8528  12.708  13.753   9.125  0.1743 -0.1835 -0.2968
  542DPPI   C3A 8529  12.819  13.603   8.700  0.0658  0.1937 -0.1396
  542DPPI   C4A 8530  12.586  13.314   8.458 -0.0196  0.2052  0.1398
  542DPPI   C1B 8531  11.961  13.972   9.288 -0.1187 -0.0775  0.1385
  542DPPI   C2B 8532  12.180  13.832   8.993 -0.1141 -0.1001 -0.1611
  542DPPI   C3B 8533  12.260  13.683   8.584 -0.3392 -0.1468  0.2567
  542DPPI   C4B 8534  12.099  13.655   8.176  0.1748  0.4392  0.3913
  543DPPI    C1 8535   7.451  15.649  10.327 -0.0714 -0.0172 -0.0147
  543DPPI    C2 8536   7.460  15.270  10.456  0.2345 -0.0841 -0.2230
  543DPPI    C3 8537   7.594  15.565  10.691  0.0085 -0.1039 -0.0658
  543DPPI   PO4 8538   7.201  15.696  10.229  0.0922  0.0016 -0.1878
  543DPPI   GL1 8539   7.042  15.582   9.868 -0.1622  0.1378  0.2039
  543DPPI   GL2 8540   6.801  15.801   9.814  0.2563 -0.2806 -0.0290
  543DPPI   C1A 8541   7.270  15.346   9.509  0.0966 -0.1064 -0.1214
  543DPPI   C2A 8542   7.266  15.510   9.065  0.1533 -0.0574 -0.0610
  543DPPI   C3A 8543   7.156  15.761   8.661  0.2134  0.0361  0.0298
  543DPPI   C4A 8544   7.187  15.986   8.281 -0.0294 -0.2064  0.0648
  543DPPI   C1B 8545   6.967  15.821   9.408 -0.1747  0.4487 -0.3860
  543DPPI   C2B 8546   6.815  15.987   9.088 -0.0027  0.1442 -0.0999
  543DPPI   C3B 8547   6.782  16.085   8.652  0.1528 -0.2620  0.0086
  543DPPI   C4B 8548   6.698  15.867   8.292  0.0072  0.2790 -0.2793
  544DPPI    C1 8549  10.002  17.034  10.613 -0.0662 -0.0934 -0.0721
  544DPPI    C2 8550  10.302  16.866  10.408  0.0484  0.1502 -0.1066
  544DPPI    C3 8551  10.366  17.006  10.777 -0.1509 -0.2629  0.0911
  544DPPI   PO4 8552   9.880  17.172  10.397  0.0817 -0.1897 -0.0486
  544DPPI   GL1 8553   9.882  17.603  10.169  0.0162  0.1299 -0.3278
  544DPPI   GL2 8554   9.600  17.594  10.040  0.1393  0.1657 -0.0460
  544DPPI   C1A 8555  10.189  17.539   9.955 -0.0507  0.3231 -0.1529
  544DPPI   C2A 8556  10.333  17.790   9.542  0.1034 -0.1021  0.0306
  544DPPI   C3A 8557  10.539  17.791   9.129 -0.0343  0.1809 -0.3205
  544DPPI   C4A 8558  10.186  17.809   8.853  0.0242 -0.4305 -0.1534
  544DPPI   C1B 8559   9.776  17.568   9.634  0.1819 -0.0888  0.0882
  544DPPI   C2B 8560   9.951  17.568   9.268 -0.0694  0.3111  0.3584
  544DPPI   C3B 8561   9.830  17.448   8.802 -0.1248  0.2657 -0.0636
  544DPPI   C4B 8562   9.794  17.277   8.415  0.0073 -0.1262  0.3535
  545DPPI    C1 8563   6.254  12.527  10.712 -0.0755  0.1811 -0.1176
  545DPPI    C2 8564   6.421  12.889  10.678  0.0564  0.1389  0.0673
  545DPPI    C3 8565   6.046  12.853  10.813  0.0708  0.2021  0.1248
  545DPPI   PO4 8566   6.322  12.353  10.459  0.2865 -0.0688 -0.1376
  545DPPI   GL1 8567   6.708  12.299  10.154  0.1376  0.1242 -0.0469
  545DPPI   GL2 8568   6.775  12.029  10.046  0.2651  0.0287  0.0395
  545DPPI   C1A 8569   6.504  12.242   9.730 -0.0030  0.0904 -0.0791
  545DPPI   C2A 8570   6.565  12.232   9.323  0.2179  0.2759  0.2942
  545DPPI   C3A 8571   6.540  12.144   8.976 -0.3680 -0.1835  0.1583
  545DPPI   C4A 8572   6.561  12.143   8.561 -0.2774 -0.1905  0.2222
  545DPPI   C1B 8573   6.903  11.900   9.670 -0.1715  0.3749 -0.3158
  545DPPI   C2B 8574   6.875  11.854   9.178 -0.0359  0.0463  0.2124
  545DPPI   C3B 8575   6.812  11.775   8.638  0.1583  0.3613  0.1033
  545DPPI   C4B 8576   6.668  11.790   8.131  0.2043  0.2048  0.3047
  546DPPI    C1 8577  13.355   6.600  10.521  0.0345  0.1089 -0.2450
  546DPPI    C2 8578  13.278   6.217  10.437 -0.1656  0.1037 -0.0470
  546DPPI    C3 8579  13.301   6.338  10.818  0.1918  0.2322 -0.1050
  546DPPI   PO4 8580  13.509   6.696  10.371 -0.3428 -0.1749  0.1261
  546DPPI   GL1 8581  13.536   6.675   9.952 -0.1220  0.1551 -0.1317
  546DPPI   GL2 8582  13.823   6.695   9.851 -0.1253  0.2205  0.2120
  546DPPI   C1A 8583  13.344   6.349   9.717 -0.3161  0.0113 -0.0175
  546DPPI   C2A 8584  13.226   6.121   9.374  0.1757 -0.4323 -0.3819
  546DPPI   C3A 8585  13.295   6.027   8.936  0.2515  0.1766  0.1581
  546DPPI   C4A 8586  13.037   6.006   8.636 -0.0266  0.1231 -0.0648
  546DPPI   C1B 8587  13.803   6.678   9.522  0.0444 -0.3938 -0.0041
  546DPPI   C2B 8588  13.954   6.781   9.101  0.0711  0.1251  0.1945
  546DPPI   C3B 8589  13.854   6.827   8.667 -0.0896  0.1043 -0.0545
  546DPPI   C4B 8590  13.841   7.015   8.234 -0.1951  0.0973  0.0946
  547DPPI    C1 8591  13.416   9.571  10.536 -0.3224  0.0061 -0.0306
  547DPPI    C2 8592  13.585   9.770  10.234 -0.2047 -0.0516 -0.0032
  547DPPI    C3 8593  13.460   9.968  10.558  0.1267 -0.0467  0.1259
  547DPPI   PO4 8594  13.333   9.378  10.380  0.0436 -0.0612 -0.0221
  547DPPI   GL1 8595  13.328   9.409  10.005  0.2086 -0.2985  0.1003
  547DPPI   GL2 8596  13.653   9.427   9.893  0.1439  0.2873  0.2085
  547DPPI   C1A 8597  13.219   9.551   9.604  0.1268  0.0230 -0.1222
  547DPPI   C2A 8598  13.166   9.331   9.242 -0.0649 -0.0819  0.3262
  547DPPI   C3A 8599  13.028   9.389   8.931  0.3180 -0.3238  0.1468
  547DPPI   C4A 8600  13.080   9.497   8.493  0.0352 -0.0531  0.0853
  547DPPI   C1B 8601  13.543   9.172   9.532 -0.2674  0.0568 -0.1220
  547DPPI   C2B 8602  13.616   9.131   9.075  0.2033 -0.3887  0.0889
  547DPPI   C3B 8603  13.428   9.096   8.670 -0.3137 -0.0254  0.0999
  547DPPI   C4B 8604  13.473   9.236   8.283 -0.2276 -0.0236  0.1032
  548DPPI    C1 8605  16.262  10.812  10.343 -0.0493 -0.0713  0.0364
  548DPPI    C2 8606  16.549  11.050  10.489  0.0203 -0.2379  0.1739
  548DPPI    C3 8607  16.164  11.139  10.552  0.0382  0.0141 -0.0547
  548DPPI   PO4 8608  16.495  10.618  10.183  0.2112 -0.1243  0.0507
  548DPPI   GL1 8609  16.774  10.685   9.770 -0.0201 -0.0434 -0.1142
  548DPPI   GL2 8610  17.031  10.489   9.778 -0.0995 -0.2090 -0.0358
  548DPPI   C1A 8611  16.434  10.845   9.463  0.1160  0.0894 -0.1376
  548DPPI   C2A 8612  16.419  10.986   9.045  0.3629  0.1301 -0.0119
  548DPPI   C3A 8613  16.301  10.945   8.651  0.0300  0.0026 -0.3387
  548DPPI   C4A 8614  16.392  10.877   8.274  0.0872  0.3502 -0.1973
  548DPPI   C1B 8615  17.128  10.677   9.400  0.1987  0.0844  0.0391
  548DPPI   C2B 8616  16.846  10.710   9.093 -0.0933  0.0128 -0.0853
  548DPPI   C3B 8617  16.793  10.831   8.679 -0.1189 -0.1386  0.1190
  548DPPI   C4B 8618  16.880  10.893   8.312 -0.0303 -0.2027  0.1542
  549DPPI    C1 8619  13.591  13.055  10.309 -0.1276 -0.0236  0.1192
  549DPPI    C2 8620  13.431  13.409  10.215 -0.0687 -0.0204  0.0299
  549DPPI    C3 8621  13.303  13.212  10.538  0.1499  0.2500  0.2873
  549DPPI   PO4 8622  13.568  12.917  10.128 -0.0520 -0.0548  0.2648
  549DPPI   GL1 8623  13.886  12.840   9.885 -0.1857 -0.2041 -0.2346
  549DPPI   GL2 8624  13.782  12.723   9.699  0.0668 -0.0767  0.0173
  549DPPI   C1A 8625  14.030  13.156   9.585 -0.1026 -0.0179  0.1181
  549DPPI   C2A 8626  14.030  13.282   9.142 -0.0238  0.2674 -0.3737
  549DPPI   C3A 8627  14.079  13.264   8.623  0.1225 -0.0507  0.0758
  549DPPI   C4A 8628  14.207  13.243   8.173  0.0114 -0.1283  0.2946
  549DPPI   C1B 8629  13.798  12.787   9.233 -0.0340  0.0303 -0.5986
  549DPPI   C2B 8630  13.770  12.816   8.830 -0.0932 -0.2202 -0.1788
  549DPPI   C3B 8631  13.651  12.582   8.559  0.0046 -0.2186  0.0807
  549DPPI   C4B 8632  13.659  12.351   8.111  0.0286  0.0254  0.0412
  550DPPI    C1 8633   0.086   5.754  10.587  0.0324  0.1278 -0.2045
  550DPPI    C2 8634   0.322   6.076  10.617  0.0596  0.0793  0.1506
  550DPPI    C3 8635   0.299   5.816  10.920 -0.2238 -0.0743  0.0020
  550DPPI   PO4 8636  -0.107   5.771  10.437 -0.0131 -0.2088 -0.0729
  550DPPI   GL1 8637  -0.124   5.877  10.070 -0.1191  0.2062  0.1120
  550DPPI   GL2 8638   0.082   6.236  10.041 -0.1598 -0.1912  0.0460
  550DPPI   C1A 8639  -0.022   5.882   9.684  0.1368 -0.1832  0.0080
  550DPPI   C2A 8640  -0.052   5.924   9.261 -0.1750  0.0030 -0.0173
  550DPPI   C3A 8641  -0.005   5.969   8.794  0.0896  0.0343  0.2539
  550DPPI   C4A 8642   0.013   5.919   8.379 -0.0706  0.0489 -0.2178
  550DPPI   C1B 8643  -0.078   6.494   9.713  0.2406 -0.0220 -0.0406
  550DPPI   C2B 8644  -0.118   6.474   9.305  0.1488 -0.1168 -0.3159
  550DPPI   C3B 8645  -0.008   6.418   8.909 -0.0569 -0.1275  0.0651
  550DPPI   C4B 8646  -0.053   6.480   8.445  0.0760  0.2943  0.0478
  551DPPI    C1 8647  12.668  16.250  10.511 -0.1075  0.1034 -0.1240
  551DPPI    C2 8648  12.770  16.636  10.513  0.0552  0.0613 -0.1911
  551DPPI    C3 8649  12.571  16.481  10.823  0.2123  0.1405 -0.0487
  551DPPI   PO4 8650  12.631  16.168  10.256 -0.0831 -0.0513 -0.1986
  551DPPI   GL1 8651  12.648  16.169   9.804 -0.1196 -0.0399  0.4680
  551DPPI   GL2 8652  12.985  16.056   9.812  0.2623 -0.2502  0.2112
  551DPPI   C1A 8653  12.362  15.927   9.525  0.1180 -0.2543  0.0372
  551DPPI   C2A 8654  12.467  15.741   9.024  0.1287  0.0125  0.2364
  551DPPI   C3A 8655  12.520  15.545   8.611 -0.0085 -0.1181 -0.3123
  551DPPI   C4A 8656  12.299  15.535   8.187  0.0518  0.0085  0.2531
  551DPPI   C1B 8657  13.034  16.385   9.543 -0.1627  0.3032 -0.4056
  551DPPI   C2B 8658  12.810  16.539   9.243 -0.1728  0.0936  0.0179
  551DPPI   C3B 8659  12.776  16.591   8.813 -0.1772 -0.2433  0.3102
  551DPPI   C4B 8660  12.849  16.456   8.327 -0.1317 -0.0053 -0.1310
  552DPPI    C1 8661   4.925   7.005   9.940 -0.0570  0.0948 -0.1883
  552DPPI    C2 8662   4.984   6.644  10.101 -0.1273  0.1177 -0.1106
  552DPPI    C3 8663   5.026   6.972  10.325 -0.1172  0.1552 -0.1672
  552DPPI   PO4 8664   4.748   7.003   9.866  0.1505  0.0368 -0.2487
  552DPPI   GL1 8665   4.688   7.007   9.426 -0.0345 -0.1721  0.3875
  552DPPI   GL2 8666   4.419   7.088   9.526 -0.1110  0.0605  0.2405
  552DPPI   C1A 8667   4.769   6.918   8.991 -0.1895 -0.0657 -0.2583
  552DPPI   C2A 8668   4.783   6.944   8.587 -0.0967 -0.2419 -0.2363
  552DPPI   C3A 8669   4.763   7.256   8.294  0.2438  0.0455  0.0777
  552DPPI   C4A 8670   4.560   7.439   7.941  0.0024 -0.0266  0.0842
  552DPPI   C1B 8671   3.986   7.076   9.342  0.0727  0.0749 -0.1213
  552DPPI   C2B 8672   3.785   6.754   9.021 -0.0111  0.2009 -0.0881
  552DPPI   C3B 8673   3.737   6.397   8.694  0.2041 -0.0678  0.0553
  552DPPI   C4B 8674   3.880   6.229   8.322 -0.0222 -0.5660 -0.0225
  553DPPI    C1 8675  13.300  11.672  10.550 -0.0563  0.1325  0.1614
  553DPPI    C2 8676  13.647  11.626  10.744 -0.0513 -0.0720  0.1063
  553DPPI    C3 8677  13.301  11.576  10.938 -0.0463 -0.2420  0.0728
  553DPPI   PO4 8678  13.389  11.847  10.356 -0.1799  0.0802  0.1968
  553DPPI   GL1 8679  13.473  11.898   9.915 -0.2233  0.4030 -0.0819
  553DPPI   GL2 8680  13.590  11.482   9.870  0.1120  0.2619 -0.1493
  553DPPI   C1A 8681  13.616  11.795   9.489 -0.1089  0.1789 -0.4166
  553DPPI   C2A 8682  13.693  11.638   9.155  0.0755  0.1047  0.0138
  553DPPI   C3A 8683  13.643  11.446   8.719  0.2313  0.1443 -0.1606
  553DPPI   C4A 8684  13.616  11.450   8.331  0.0319 -0.0433 -0.0381
  553DPPI   C1B 8685  13.463  11.268   9.476  0.0775  0.0481 -0.0988
  553DPPI   C2B 8686  13.343  11.240   9.082  0.1652  0.0979 -0.0494
  553DPPI   C3B 8687  13.234  11.158   8.631 -0.1831  0.2413 -0.2699
  553DPPI   C4B 8688  13.240  11.076   8.288 -0.1446 -0.1479  0.1334
  554PYPI    C1 8689  18.060  15.625  10.255  0.2886 -0.1768 -0.0990
  554PYPI    C2 8690  18.158  16.012  10.268  0.0918 -0.1243 -0.1467
  554PYPI    C3 8691  18.054  15.821  10.604  0.0954 -0.1109 -0.1380
  554PYPI   PO4 8692  17.927  15.616  10.058 -0.2096  0.2192  0.1753
  554PYPI   GL1 8693  18.025  15.439   9.633 -0.1772  0.1388 -0.2806
  554PYPI   GL2 8694  18.319  15.546   9.779 -0.0271  0.0625  0.0624
  554PYPI   C1A 8695  17.978  15.577   9.291  0.1976  0.3595  0.2066
  554PYPI   C2A 8696  17.954  15.927   9.050 -0.3430 -0.0436  0.0047
  554PYPI   D3A 8697  18.140  16.271   8.846 -0.1580  0.1386  0.0195
  554PYPI   C4A 8698  18.097  16.385   8.444 -0.2139 -0.1443  0.0709
  554PYPI   C1B 8699  18.489  15.469   9.361 -0.0324  0.0107  0.0541
  554PYPI   C2B 8700  18.377  15.594   9.019  0.1345  0.0321 -0.1475
  554PYPI   C3B 8701  18.264  15.701   8.643  0.1171  0.0053  0.0835
  554PYPI   C4B 8702  17.935  15.942   8.473 -0.0589  0.2055  0.1579
  555PYPI    C1 8703   0.587   6.969  10.367  0.1075  0.1256 -0.2305
  555PYPI    C2 8704   0.919   6.887  10.574  0.0300 -0.1633 -0.2156
  555PYPI    C3 8705   0.566   6.904  10.761  0.0408  0.2025 -0.2210
  555PYPI   PO4 8706   0.704   7.032  10.140  0.0604 -0.1288  0.0756
  555PYPI   GL1 8707   0.469   7.281   9.769  0.0216  0.0707 -0.2884
  555PYPI   GL2 8708   0.649   7.175   9.662 -0.1704  0.5779  0.2367
  555PYPI   C1A 8709   0.221   6.888   9.449 -0.1240 -0.0319  0.0998
  555PYPI   C2A 8710   0.152   6.912   9.056  0.0383 -0.0339  0.0070
  555PYPI   D3A 8711   0.530   7.101   8.794 -0.2679  0.2218  0.2021
  555PYPI   C4A 8712   0.576   7.021   8.290  0.3656  0.0987 -0.2236
  555PYPI   C1B 8713   0.733   6.840   9.378 -0.2062  0.0704  0.0610
  555PYPI   C2B 8714   0.752   6.693   9.016 -0.0606 -0.2563 -0.0495
  555PYPI   C3B 8715   0.564   6.627   8.624 -0.2122 -0.1401  0.2343
  555PYPI   C4B 8716   0.394   6.538   8.301 -0.2730  0.0335  0.1229
  556PYPI    C1 8717  14.826   2.489  10.506 -0.1299  0.1476  0.3556
  556PYPI    C2 8718  14.479   2.321  10.616 -0.0397 -0.2256  0.0912
  556PYPI    C3 8719  14.779   2.353  10.880 -0.2421  0.0214  0.2965
  556PYPI   PO4 8720  14.706   2.720  10.322 -0.2735  0.2062 -0.1190
  556PYPI   GL1 8721  14.852   2.911   9.961 -0.2165  0.0424  0.0061
  556PYPI   GL2 8722  14.942   3.179   9.956 -0.3542  0.0550  0.2137
  556PYPI   C1A 8723  14.757   2.776   9.511  0.2348  0.3181 -0.0824
  556PYPI   C2A 8724  14.873   2.789   9.107  0.1791 -0.0196  0.0214
  556PYPI   D3A 8725  14.930   2.610   8.667  0.1972 -0.0457  0.0528
  556PYPI   C4A 8726  14.925   3.042   8.215 -0.0513  0.0559 -0.0398
  556PYPI   C1B 8727  15.001   3.174   9.495  0.3326  0.0194  0.1845
  556PYPI   C2B 8728  14.908   3.254   9.085 -0.1087 -0.0119  0.0704
  556PYPI   C3B 8729  14.677   3.019   8.721  0.1646 -0.2644  0.1565
  556PYPI   C4B 8730  14.417   2.977   8.389  0.0054  0.1142  0.0014
  557PYPI    C1 8731  10.696  13.806  10.379 -0.0212 -0.2530  0.0786
  557PYPI    C2 8732  10.411  13.854  10.655  0.0020  0.2125  0.0299
  557PYPI    C3 8733  10.793  13.934  10.745  0.0492  0.0858 -0.0543
  557PYPI   PO4 8734  10.619  13.974  10.128  0.1139  0.2438  0.1655
  557PYPI   GL1 8735  10.370  14.106   9.833 -0.2862 -0.2163 -0.0536
  557PYPI   GL2 8736  10.093  14.323   9.826 -0.0473 -0.1965 -0.0358
  557PYPI   C1A 8737  10.464  14.180   9.338 -0.0236 -0.1272  0.0039
  557PYPI   C2A 8738  10.436  14.052   8.902 -0.1061 -0.0093 -0.1821
  557PYPI   D3A 8739  10.550  13.955   8.528  0.0794  0.1310  0.2326
  557PYPI   C4A 8740  10.391  14.259   8.295 -0.0066 -0.1241 -0.0038
  557PYPI   C1B 8741   9.897  14.323   9.497 -0.1314  0.1305 -0.2802
  557PYPI   C2B 8742   9.800  14.199   9.054 -0.0169  0.2818 -0.1281
  557PYPI   C3B 8743   9.931  14.219   8.666  0.0568  0.2131  0.6157
  557PYPI   C4B 8744   9.975  14.541   8.367  0.1696 -0.1066 -0.2273
  558PYPI    C1 8745  17.759   8.943  10.212  0.0169  0.1603  0.2615
  558PYPI    C2 8746  17.698   8.705  10.528 -0.1900  0.0384  0.1315
  558PYPI    C3 8747  17.924   9.032  10.566  0.1256 -0.1940  0.3045
  558PYPI   PO4 8748  17.779   8.773   9.977 -0.0280  0.0452 -0.2967
  558PYPI   GL1 8749  17.712   8.717   9.651  0.0235 -0.2300  0.0745
  558PYPI   GL2 8750  17.952   8.436   9.576  0.0273 -0.0884  0.1132
  558PYPI   C1A 8751  17.724   8.667   9.221 -0.0138  0.1309  0.2303
  558PYPI   C2A 8752  17.691   8.577   8.822 -0.2189 -0.3346  0.3263
  558PYPI   D3A 8753  17.416   8.686   8.599 -0.0538  0.0882 -0.3819
  558PYPI   C4A 8754  17.355   8.607   8.223  0.3579  0.0822  0.0061
  558PYPI   C1B 8755  18.130   8.343   9.250  0.0017  0.1505 -0.0520
  558PYPI   C2B 8756  18.107   8.269   8.830  0.0107 -0.0682 -0.2564
  558PYPI   C3B 8757  17.902   8.310   8.413 -0.0090 -0.1820 -0.0737
  558PYPI   C4B 8758  17.764   8.430   7.912  0.0092  0.3611 -0.0009
  559PYPI    C1 8759   2.213  13.657  10.387  0.0824 -0.1486 -0.0799
  559PYPI    C2 8760   1.877  13.653  10.171 -0.1360  0.0932  0.2453
  559PYPI    C3 8761   1.861  13.725  10.564  0.2724 -0.1652  0.3151
  559PYPI   PO4 8762   2.382  13.760  10.200  0.2405 -0.1502  0.0578
  559PYPI   GL1 8763   2.441  13.896   9.787 -0.1043  0.1165 -0.0414
  559PYPI   GL2 8764   2.460  14.144   9.685  0.0336  0.1463  0.2943
  559PYPI   C1A 8765   2.736  13.640   9.415  0.0403 -0.1332  0.3017
  559PYPI   C2A 8766   2.763  13.475   9.005 -0.1403  0.2543 -0.0550
  559PYPI   D3A 8767   2.815  13.147   8.785 -0.3344 -0.0160 -0.0728
  559PYPI   C4A 8768   3.178  13.087   8.555 -0.1533  0.0683  0.0703
  559PYPI   C1B 8769   2.464  14.097   9.235  0.0369  0.3256  0.0476
  559PYPI   C2B 8770   2.440  13.916   8.809  0.0318  0.1021  0.2376
  559PYPI   C3B 8771   2.469  13.644   8.488 -0.1489 -0.1980  0.1715
  559PYPI   C4B 8772   2.813  13.352   8.318  0.5010  0.0406  0.1159
  560PYPI    C1 8773   7.881  13.554  10.351 -0.1076 -0.0416 -0.0722
  560PYPI    C2 8774   7.968  13.231  10.131  0.1750  0.0747 -0.1357
  560PYPI    C3 8775   8.200  13.330  10.441 -0.1199  0.0127  0.1092
  560PYPI   PO4 8776   7.645  13.559  10.291 -0.1348 -0.0674  0.0957
  560PYPI   GL1 8777   7.443  13.384   9.959  0.0834 -0.0725 -0.1071
  560PYPI   GL2 8778   7.182  13.445   9.692  0.1960 -0.1371  0.2066
  560PYPI   C1A 8779   7.537  13.111   9.559 -0.1761  0.0044 -0.1282
  560PYPI   C2A 8780   7.559  13.041   9.131  0.0772  0.1927 -0.2392
  560PYPI   D3A 8781   7.893  12.772   9.047 -0.0855 -0.2616  0.1520
  560PYPI   C4A 8782   8.095  12.617   9.385 -0.0484  0.0703 -0.4079
  560PYPI   C1B 8783   7.172  13.395   9.261 -0.1392 -0.0033 -0.0048
  560PYPI   C2B 8784   7.258  13.363   8.850  0.0468  0.3499 -0.1150
  560PYPI   C3B 8785   7.255  13.191   8.521  0.2121 -0.4869 -0.3893
  560PYPI   C4B 8786   7.236  13.368   8.154  0.0193 -0.0794  0.1674
  561PYPI    C1 8787   9.740   1.108  10.920 -0.2199  0.0654 -0.1621
  561PYPI    C2 8788   9.675   1.308  11.261 -0.1153  0.1079 -0.1664
  561PYPI    C3 8789   9.849   0.948  11.270 -0.1175  0.1066 -0.1747
  561PYPI   PO4 8790   9.931   1.230  10.756  0.1080  0.2769 -0.2168
  561PYPI   GL1 8791   9.700   1.407  10.337 -0.3301 -0.1344  0.2098
  561PYPI   GL2 8792   9.805   1.377  10.102  0.2089 -0.0343  0.1073
  561PYPI   C1A 8793   9.426   1.666  10.008  0.0985 -0.2812 -0.1687
  561PYPI   C2A 8794   9.293   1.727   9.618  0.3271 -0.2069  0.3488
  561PYPI   D3A 8795   9.246   1.579   9.214  0.1662  0.2472  0.2522
  561PYPI   C4A 8796   9.219   1.713   8.739 -0.0724  0.0491 -0.0398
  561PYPI   C1B 8797   9.774   1.447   9.680 -0.0826  0.0343  0.3310
  561PYPI   C2B 8798   9.740   1.418   9.275 -0.4880  0.1464 -0.2681
  561PYPI   C3B 8799   9.732   1.336   8.846 -0.0781 -0.1395  0.0750
  561PYPI   C4B 8800   9.726   1.394   8.402 -0.0059 -0.3405 -0.1026
  562PYPI    C1 8801   8.607  10.900  10.403 -0.0705 -0.1635  0.1259
  562PYPI    C2 8802   8.385  11.142  10.630 -0.3130 -0.4044  0.1511
  562PYPI    C3 8803   8.750  11.033  10.752 -0.1550  0.0325  0.0872
  562PYPI   PO4 8804   8.534  10.982  10.155  0.1498  0.1848 -0.2130
  562PYPI   GL1 8805   8.552  10.967   9.749  0.2359 -0.1698  0.2538
  562PYPI   GL2 8806   8.502  10.727   9.686 -0.1706 -0.2418  0.0293
  562PYPI   C1A 8807   8.785  10.851   9.312  0.1957 -0.0648 -0.0948
  562PYPI   C2A 8808   8.877  10.848   8.893  0.0919 -0.4024 -0.1999
  562PYPI   D3A 8809   8.845  11.094   8.469 -0.0819 -0.0969 -0.1027
  562PYPI   C4A 8810   9.206  11.090   8.203  0.1826  0.2109 -0.2371
  562PYPI   C1B 8811   8.206  10.871   9.353  0.0929  0.1466 -0.0078
  562PYPI   C2B 8812   8.359  10.824   9.002 -0.1351 -0.0812  0.0613
  562PYPI   C3B 8813   8.414  10.862   8.480 -0.1327 -0.3374  0.2489
  562PYPI   C4B 8814   8.306  10.622   8.168  0.1528 -0.2052 -0.2436
  563PYPI    C1 8815   4.281  11.322  10.701 -0.3960 -0.1355 -0.4347
  563PYPI    C2 8816   4.206  11.692  10.833 -0.0021 -0.2242  0.0687
  563PYPI    C3 8817   3.924  11.409  10.858 -0.2348 -0.0141 -0.1263
  563PYPI   PO4 8818   4.411  11.376  10.471 -0.1515 -0.0624 -0.1358
  563PYPI   GL1 8819   4.356  11.284  10.018  0.2323  0.0894 -0.0741
  563PYPI   GL2 8820   4.164  11.030   9.899  0.2596 -0.1877  0.0527
  563PYPI   C1A 8821   4.552  11.526   9.740  0.0880 -0.3810 -0.0768
  563PYPI   C2A 8822   4.783  11.732   9.539  0.2066 -0.0201  0.0617
  563PYPI   D3A 8823   4.972  12.127   9.289  0.0434 -0.1956  0.2158
  563PYPI   C4A 8824   4.939  12.120   8.915  0.1471 -0.0028 -0.0096
  563PYPI   C1B 8825   4.184  11.302   9.497  0.0537  0.1606 -0.3410
  563PYPI   C2B 8826   4.456  11.451   9.268 -0.1817  0.1395 -0.0246
  563PYPI   C3B 8827   4.468  11.861   9.143  0.0695 -0.1213  0.0400
  563PYPI   C4B 8828   4.460  12.111   8.799  0.1462 -0.0386  0.0460
  564PYPI    C1 8829   8.755  14.981  10.556  0.1933  0.1358  0.0206
  564PYPI    C2 8830   9.118  15.139  10.613  0.1439  0.2309  0.0747
  564PYPI    C3 8831   8.886  15.054  10.927  0.1711  0.0467  0.0462
  564PYPI   PO4 8832   8.736  14.836  10.242  0.1003  0.0934 -0.1768
  564PYPI   GL1 8833   8.893  14.814   9.850 -0.1239 -0.0224  0.0208
  564PYPI   GL2 8834   8.854  15.087   9.652  0.0803 -0.2687  0.3223
  564PYPI   C1A 8835   8.964  14.595   9.536  0.3653 -0.2060  0.0835
  564PYPI   C2A 8836   9.005  14.459   9.085  0.0878  0.0530 -0.1284
  564PYPI   D3A 8837   8.890  14.250   8.685 -0.3683 -0.0081  0.0041
  564PYPI   C4A 8838   9.107  13.975   8.327  0.2591 -0.0063 -0.0352
  564PYPI   C1B 8839   8.657  14.962   9.297 -0.0731 -0.0377  0.0519
  564PYPI   C2B 8840   8.865  14.878   8.897 -0.2473  0.0078 -0.0441
  564PYPI   C3B 8841   9.036  14.716   8.486 -0.2700  0.1352  0.3341
  564PYPI   C4B 8842   9.115  14.442   8.192  0.0572  0.0414 -0.0790
  565PYPI    C1 8843   4.919  17.406  10.691 -0.0163  0.0567  0.0287
  565PYPI    C2 8844   4.708  17.312  10.364 -0.0261 -0.1595  0.0956
  565PYPI    C3 8845   4.549  17.260  10.727  0.0239 -0.0189  0.1385
  565PYPI   PO4 8846   5.132  17.273  10.641  0.0094  0.0406 -0.2035
  565PYPI   GL1 8847   5.169  17.237  10.171 -0.0971  0.0172 -0.1693
  565PYPI   GL2 8848   5.434  17.226  10.014 -0.2079  0.1365 -0.2463
  565PYPI   C1A 8849   4.960  17.308   9.678  0.1286  0.0427  0.0268
  565PYPI   C2A 8850   5.101  17.126   9.362 -0.5179 -0.1357 -0.0765
  565PYPI   D3A 8851   5.338  16.767   9.100  0.0071  0.2758 -0.1216
  565PYPI   C4A 8852   5.607  16.707   8.853  0.1957 -0.3473 -0.1273
  565PYPI   C1B 8853   5.454  17.436   9.653 -0.2604 -0.2082  0.0623
  565PYPI   C2B 8854   5.666  17.642   9.211 -0.0989 -0.1252 -0.1955
  565PYPI   C3B 8855   5.882  17.972   8.933  0.1052 -0.1016  0.1325
  565PYPI   C4B 8856   5.995  18.078   8.509  0.0466  0.1170 -0.0361
  566PYPI    C1 8857   3.017  17.358  10.643 -0.0732 -0.0364 -0.0294
  566PYPI    C2 8858   3.030  17.014  10.847 -0.1064  0.0545  0.1281
  566PYPI    C3 8859   3.296  17.303  10.924  0.1005 -0.0420 -0.2011
  566PYPI   PO4 8860   3.009  17.313  10.395 -0.2469  0.1499  0.3377
  566PYPI   GL1 8861   3.144  17.191   9.979 -0.0693 -0.0591 -0.1267
  566PYPI   GL2 8862   3.447  17.178   9.938  0.0417  0.1789 -0.2160
  566PYPI   C1A 8863   3.165  17.556   9.599  0.1044 -0.1347  0.0087
  566PYPI   C2A 8864   3.157  17.401   9.133  0.2565 -0.0421 -0.0821
  566PYPI   D3A 8865   3.406  17.239   8.840  0.1018 -0.0096 -0.2464
  566PYPI   C4A 8866   3.468  17.324   8.385 -0.1513 -0.0154  0.2880
  566PYPI   C1B 8867   3.436  17.172   9.494  0.0009 -0.0931 -0.1135
  566PYPI   C2B 8868   3.665  16.995   9.139 -0.1606 -0.2762 -0.1359
  566PYPI   C3B 8869   3.972  16.671   9.249  0.1992 -0.1370  0.3239
  566PYPI   C4B 8870   4.405  16.799   9.406 -0.0946 -0.2839 -0.1901
  567PYPI    C1 8871  11.820   8.860  10.411  0.2148 -0.0824  0.0243
  567PYPI    C2 8872  11.601   9.179  10.513  0.0829 -0.1810  0.0520
  567PYPI    C3 8873  11.704   8.910  10.790  0.2376 -0.1368  0.0385
  567PYPI   PO4 8874  11.852   9.002  10.133 -0.4353 -0.0129 -0.0953
  567PYPI   GL1 8875  11.727   8.821   9.720  0.3171  0.2089  0.3035
  567PYPI   GL2 8876  11.518   8.589   9.751 -0.0514 -0.1685 -0.1725
  567PYPI   C1A 8877  11.719   8.687   9.272 -0.1560 -0.2144 -0.0255
  567PYPI   C2A 8878  11.721   8.729   8.829 -0.0598  0.3371 -0.0881
  567PYPI   D3A 8879  11.530   8.575   8.509 -0.2154 -0.1554 -0.0965
  567PYPI   C4A 8880  11.681   8.843   8.203 -0.3311 -0.2302  0.1683
  567PYPI   C1B 8881  11.238   8.409   9.379  0.0368 -0.0338 -0.1245
  567PYPI   C2B 8882  11.236   8.439   8.889  0.0078 -0.1806  0.2085
  567PYPI   C3B 8883  11.141   8.216   8.432  0.1981  0.0938  0.0278
  567PYPI   C4B 8884  11.245   8.133   8.064  0.0709 -0.0486  0.0735
  568PYPI    C1 8885   1.445  17.083  10.615  0.0977 -0.2644  0.0707
  568PYPI    C2 8886   1.427  17.192  10.999 -0.0893  0.1709 -0.0559
  568PYPI    C3 8887   1.092  17.095  10.802  0.0039 -0.0356 -0.1148
  568PYPI   PO4 8888   1.606  17.292  10.474  0.3325  0.0341 -0.0253
  568PYPI   GL1 8889   1.471  17.324  10.107 -0.2192  0.0636  0.2153
  568PYPI   GL2 8890   1.653  17.519   9.950 -0.2046 -0.0123  0.0512
  568PYPI   C1A 8891   1.151  17.406   9.889  0.4399  0.1679  0.2686
  568PYPI   C2A 8892   1.040  17.448   9.361 -0.0652 -0.2163 -0.3584
  568PYPI   D3A 8893   0.687  17.457   9.132  0.0585  0.0908 -0.0284
  568PYPI   C4A 8894   0.854  17.290   8.819 -0.1783 -0.0621  0.1152
  568PYPI   C1B 8895   1.593  17.449   9.563 -0.0178 -0.3138 -0.3472
  568PYPI   C2B 8896   1.682  17.386   9.107  0.1344  0.0453 -0.0185
  568PYPI   C3B 8897   1.769  17.344   8.817  0.1473  0.1316 -0.4128
  568PYPI   C4B 8898   1.793  17.421   8.474 -0.2589 -0.1479 -0.0351
  569PYPI    C1 8899  15.183   1.091  10.616  0.2220  0.0711  0.1148
  569PYPI    C2 8900  15.096   0.831  10.908  0.2679  0.0652  0.1234
  569PYPI    C3 8901  15.398   1.089  10.954  0.1316  0.2176  0.1741
  569PYPI   PO4 8902  15.251   0.980  10.417  0.0844  0.1986 -0.1294
  569PYPI   GL1 8903  15.500   0.979  10.159  0.1234 -0.1186 -0.4022
  569PYPI   GL2 8904  15.399   0.663  10.067  0.0134  0.1147  0.0246
  569PYPI   C1A 8905  15.637   1.053   9.766 -0.0274 -0.0227  0.1200
  569PYPI   C2A 8906  15.749   0.998   9.315 -0.2758 -0.0473 -0.3524
  569PYPI   D3A 8907  15.636   1.071   8.884 -0.1003 -0.0244  0.0368
  569PYPI   C4A 8908  15.841   1.084   8.455 -0.0679  0.3510  0.1844
  569PYPI   C1B 8909  15.515   0.595   9.612  0.0685  0.0224 -0.0666
  569PYPI   C2B 8910  15.591   0.508   9.230  0.0801 -0.2906  0.2989
  569PYPI   C3B 8911  15.744   0.627   8.775  0.1565  0.2455 -0.0156
  569PYPI   C4B 8912  15.576   0.547   8.411  0.0860 -0.1512  0.0402
  570PYPI    C1 8913  13.776  14.418  10.331  0.0174  0.1915  0.0524
  570PYPI    C2 8914  13.705  14.682  10.622 -0.0630  0.0695  0.1442
  570PYPI    C3 8915  13.773  14.299  10.712 -0.0012  0.0479  0.0079
  570PYPI   PO4 8916  13.613  14.440  10.145 -0.1825 -0.0225 -0.2066
  570PYPI   GL1 8917  13.598  14.242   9.757 -0.1095 -0.3234  0.2624
  570PYPI   GL2 8918  13.521  14.022   9.601  0.1088  0.1087  0.2137
  570PYPI   C1A 8919  13.855  14.533   9.526  0.2132  0.0977  0.0960
  570PYPI   C2A 8920  13.927  14.563   9.104  0.2811  0.0872 -0.4761
  570PYPI   D3A 8921  14.058  14.617   8.760 -0.0327 -0.2173 -0.0248
  570PYPI   C4A 8922  13.998  14.562   8.337  0.0727  0.2992 -0.0748
  570PYPI   C1B 8923  13.550  14.134   9.190 -0.1574  0.1452 -0.0538
  570PYPI   C2B 8924  13.658  14.218   8.843  0.3923 -0.5543 -0.0020
  570PYPI   C3B 8925  13.689  14.181   8.419 -0.1076  0.2210 -0.1160
  570PYPI   C4B 8926  13.851  14.216   8.014  0.1279  0.0269  0.0100
  571PYPI    C1 8927  10.394   9.678  10.356  0.0197 -0.0012  0.0232
  571PYPI    C2 8928  10.478   9.724   9.967  0.2638  0.2353  0.1004
  571PYPI    C3 8929  10.119   9.831  10.108  0.1601  0.1113 -0.0648
  571PYPI   PO4 8930  10.653   9.605  10.397 -0.2860 -0.1701 -0.0790
  571PYPI   GL1 8931  10.847   9.406  10.027  0.0462 -0.0980 -0.0133
  571PYPI   GL2 8932  10.700   9.294   9.839  0.0927 -0.1900  0.2833
  571PYPI   C1A 8933  11.214   9.528   9.747 -0.0776 -0.1349  0.1262
  571PYPI   C2A 8934  11.247   9.559   9.259 -0.1279 -0.2786 -0.1810
  571PYPI   D3A 8935  11.121   9.290   8.936 -0.1363 -0.3812 -0.0129
  571PYPI   C4A 8936  11.274   8.933   8.857  0.0616  0.0451  0.0576
  571PYPI   C1B 8937  10.867   9.243   9.389  0.0848 -0.0046 -0.0113
  571PYPI   C2B 8938  10.569   9.180   9.123 -0.1644  0.0100 -0.1600
  571PYPI   C3B 8939  10.455   9.021   8.701  0.0669  0.1895 -0.2358
  571PYPI   C4B 8940  10.616   8.913   8.271  0.1724  0.1269  0.0432
  572PYPI    C1 8941   5.392  18.005  10.783  0.0753 -0.1377 -0.0654
  572PYPI    C2 8942   5.405  17.643  10.953  0.1641 -0.1073 -0.0063
  572PYPI    C3 8943   5.055  17.832  10.911  0.1317 -0.1506  0.0675
  572PYPI   PO4 8944   5.559  18.028  10.550 -0.2879  0.3462 -0.0142
  572PYPI   GL1 8945   5.468  17.997  10.098 -0.0019  0.1178  0.0288
  572PYPI   GL2 8946   5.672  17.755  10.046  0.1553 -0.0128 -0.0994
  572PYPI   C1A 8947   5.560  18.152   9.747  0.0263 -0.3046  0.0165
  572PYPI   C2A 8948   5.836  18.100   9.481 -0.1800 -0.0420  0.0289
  572PYPI   D3A 8949   6.217  18.236   9.278 -0.1840 -0.1504 -0.0119
  572PYPI   C4A 8950   6.696  18.348   9.268  0.0307  0.1703 -0.1319
  572PYPI   C1B 8951   5.926  17.598   9.677  0.3236  0.0927 -0.2563
  572PYPI   C2B 8952   6.210  17.747   9.360  0.2815  0.0273 -0.0690
  572PYPI   C3B 8953   6.645  17.762   9.108 -0.2688 -0.1348 -0.1419
  572PYPI   C4B 8954   6.934  17.929   9.037  0.3520 -0.4229  0.2162
  573PYPI    C1 8955   4.916  18.266  10.700 -0.0907 -0.1238 -0.0028
  573PYPI    C2 8956   5.160  18.509  10.903 -0.0766 -0.0567 -0.0990
  573PYPI    C3 8957   4.764  18.560  10.925 -0.0833 -0.1656  0.0570
  573PYPI   PO4 8958   5.042  18.218  10.472  0.0388 -0.3584  0.0306
  573PYPI   GL1 8959   5.030  18.161  10.126 -0.0810 -0.0707 -0.1219
  573PYPI   GL2 8960   5.160  18.352   9.931 -0.1114  0.2964  0.3514
  573PYPI   C1A 8961   5.108  17.804   9.799 -0.1224  0.0920  0.0101
  573PYPI   C2A 8962   5.168  17.754   9.352  0.2151  0.0552 -0.0811
  573PYPI   D3A 8963   5.372  18.077   9.161  0.1302 -0.3774 -0.1799
  573PYPI   C4A 8964   5.320  18.409   9.313  0.3223 -0.3099  0.1333
  573PYPI   C1B 8965   4.904  18.258   9.593  0.0913 -0.0122  0.1777
  573PYPI   C2B 8966   4.856  18.202   9.209 -0.0303  0.1019  0.0716
  573PYPI   C3B 8967   4.991  18.298   8.756 -0.3239 -0.1904 -0.1856
  573PYPI   C4B 8968   5.151  18.537   8.419  0.0159  0.0044  0.0240
  574ERGO   ROH 8969  16.610   8.123  10.039  0.0152  0.1945  0.1572
  574ERGO    R1 8970  16.533   8.188   9.774  0.1488  0.1342  0.1035
  574ERGO    R2 8971  16.713   8.280   9.585  0.2793 -0.1022  0.1168
  574ERGO    R3 8972  16.615   8.072   9.439  0.1545 -0.0885  0.1784
  574ERGO    R4 8973  16.709   8.266   9.240  0.0792 -0.0992  0.1176
  574ERGO    R5 8974  16.510   8.177   9.251  0.0626 -0.0649  0.2364
  574ERGO    C1 8975  16.614   8.064   8.902 -0.1547 -0.0845  0.1758
  574ERGO    C2 8976  16.562   8.177   8.631 -0.1264 -0.2157 -0.0824
  575ERGO   ROH 8977   1.170   5.304  10.168 -0.0279  0.0859 -0.1764
  575ERGO    R1 8978   1.159   5.100   9.972 -0.2650 -0.1163  0.0412
  575ERGO    R2 8979   0.923   4.978   9.898 -0.4756  0.3626 -0.1053
  575ERGO    R3 8980   1.000   5.052   9.648  0.0222 -0.0956 -0.1073
  575ERGO    R4 8981   0.762   4.885   9.607 -0.5125  0.6201 -0.1698
  575ERGO    R5 8982   0.958   4.859   9.513 -0.4791 -0.1018  0.0330
  575ERGO    C1 8983   0.741   4.901   9.202 -0.0668  0.3399 -0.2095
  575ERGO    C2 8984   0.789   4.852   8.865  0.3539 -0.0866  0.0208
  576ERGO   ROH 8985   2.913  10.314   9.638  0.0143 -0.2202  0.0858
  576ERGO    R1 8986   3.129  10.376   9.466 -0.0126 -0.2353  0.0468
  576ERGO    R2 8987   3.248  10.187   9.303 -0.1697 -0.2050 -0.1044
  576ERGO    R3 8988   3.192  10.368   9.108 -0.1417 -0.0610  0.0183
  576ERGO    R4 8989   3.383  10.183   8.985 -0.1906 -0.0262 -0.1169
  576ERGO    R5 8990   3.400  10.400   8.994 -0.1403 -0.0340  0.0266
  576ERGO    C1 8991   3.409  10.350   8.616 -0.1764  0.2132 -0.0089
  576ERGO    C2 8992   3.474  10.291   8.207  0.0472  0.4263 -0.4462
  577ERGO   ROH 8993   6.642   2.813   9.655 -0.5340  0.1390  0.1112
  577ERGO    R1 8994   6.549   2.921   9.410 -0.1970  0.1912  0.0008
  577ERGO    R2 8995   6.711   2.942   9.186 -0.0077 -0.1752  0.0903
  577ERGO    R3 8996   6.510   2.802   9.068 -0.1696  0.1044  0.0284
  577ERGO    R4 8997   6.652   2.929   8.846  0.1467 -0.1872  0.0639
  577ERGO    R5 8998   6.439   2.942   8.887  0.1426  0.1620 -0.0518
  577ERGO    C1 8999   6.429   2.791   8.536  0.0847  0.0682 -0.0095
  577ERGO    C2 9000   6.432   2.598   8.251 -0.1734  0.1144 -0.1841
  578ERGO   ROH 9001   6.279  13.368  10.103 -0.0291 -0.3539  0.1867
  578ERGO    R1 9002   6.295  13.234   9.854 -0.0613 -0.2072  0.1052
  578ERGO    R2 9003   6.111  13.042   9.776 -0.1471 -0.0649 -0.0415
  578ERGO    R3 9004   6.086  13.202   9.558 -0.0345  0.0826  0.0507
  578ERGO    R4 9005   6.121  12.933   9.449 -0.2745  0.1059 -0.1040
  578ERGO    R5 9006   6.237  13.109   9.398 -0.1268  0.0394 -0.0161
  578ERGO    C1 9007   6.103  13.019   9.053 -0.2429  0.3438 -0.0538
  578ERGO    C2 9008   6.277  12.988   8.788  0.1728 -0.1511  0.1196
  579ERGO   ROH 9009  10.589  10.955   9.741 -0.2882  0.0639 -0.0773
  579ERGO    R1 9010  10.618  11.061   9.480 -0.2562  0.1446 -0.0417
  579ERGO    R2 9011  10.822  10.985   9.310 -0.2020  0.2371 -0.0222
  579ERGO    R3 9012  10.617  10.931   9.140 -0.1559  0.2394 -0.0780
  579ERGO    R4 9013  10.851  10.971   8.966 -0.0366 -0.1057  0.0017
  579ERGO    R5 9014  10.658  11.074   8.951  0.0513  0.0319 -0.1920
  579ERGO    C1 9015  10.675  10.913   8.606  0.1031 -0.3031 -0.0370
  579ERGO    C2 9016  10.529  10.907   8.307  0.2442 -0.2317  0.0292
  580ERGO   ROH 9017   1.220   0.952   9.842  0.2045  0.2762  0.0370
  580ERGO    R1 9018   1.130   0.986   9.576  0.2142  0.4221  0.0509
  580ERGO    R2 9019   1.257   1.154   9.396  0.5816  0.0829 -0.0272
  580ERGO    R3 9020   1.265   0.930   9.243  0.0078  0.0063  0.0316
  580ERGO    R4 9021   1.268   1.150   9.051  0.3610 -0.0573 -0.0342
  580ERGO    R5 9022   1.130   0.982   9.053 -0.0020  0.2324  0.1013
  580ERGO    C1 9023   1.282   0.938   8.706 -0.3061 -0.2109  0.0167
  580ERGO    C2 9024   1.190   0.776   8.363 -0.0521  0.3977  0.3082
  581ERGO   ROH 9025  13.591   7.238  10.203 -0.2521  0.0996 -0.1283
  581ERGO    R1 9026  13.730   7.202   9.959  0.0422  0.2221  0.0172
  581ERGO    R2 9027  13.609   7.103   9.731  0.4229 -0.1077 -0.0539
  581ERGO    R3 9028  13.707   7.331   9.620  0.1277  0.0158 -0.0691
  581ERGO    R4 9029  13.705   7.136   9.401  0.2459  0.0365 -0.0922
  581ERGO    R5 9030  13.875   7.255   9.467  0.1476  0.2157 -0.1509
  581ERGO    C1 9031  13.852   7.369   9.104 -0.1342  0.2365 -0.1288
  581ERGO    C2 9032  13.860   7.337   8.719  0.4307  0.0449  0.0365
  582ERGO   ROH 9033  16.934   2.189   9.902  0.0839  0.1083  0.1034
  582ERGO    R1 9034  16.884   2.394   9.713 -0.1309  0.0453  0.0895
  582ERGO    R2 9035  16.946   2.367   9.445 -0.0556  0.1087  0.1024
  582ERGO    R3 9036  16.684   2.433   9.412 -0.1324 -0.2017  0.0555
  582ERGO    R4 9037  16.811   2.500   9.156 -0.1241  0.1108  0.1343
  582ERGO    R5 9038  16.690   2.632   9.279 -0.3369 -0.1117  0.1750
  582ERGO    C1 9039  16.487   2.638   8.956 -0.2359 -0.1793  0.1088
  582ERGO    C2 9040  16.509   2.738   8.626 -0.0717  0.1555 -0.2196
  583ERGO   ROH 9041   7.137  16.460   9.791 -0.0161  0.1628  0.0775
  583ERGO    R1 9042   7.090  16.399   9.518  0.0599  0.0490  0.0898
  583ERGO    R2 9043   6.838  16.402   9.406  0.0953  0.0305  0.0112
  583ERGO    R3 9044   6.955  16.571   9.228  0.1697 -0.0618 -0.0286
  583ERGO    R4 9045   6.729  16.456   9.082  0.0934  0.0313  0.0118
  583ERGO    R5 9046   6.937  16.458   9.018  0.0907 -0.0901 -0.0077
  583ERGO    C1 9047   6.775  16.645   8.727  0.1621 -0.0551 -0.0252
  583ERGO    C2 9048   6.560  16.804   8.524  0.0220 -0.0748 -0.0073
  584ERGO   ROH 9049   7.868  17.993   9.896 -0.0199  0.1493  0.0132
  584ERGO    R1 9050   7.893  18.064   9.623  0.1029  0.1528  0.0257
  584ERGO    R2 9051   8.094  17.964   9.461  0.0045 -0.0703  0.0427
  584ERGO    R3 9052   7.885  17.892   9.303 -0.0640  0.2008  0.0022
  584ERGO    R4 9053   8.100  17.959   9.115  0.1404 -0.2759  0.0461
  584ERGO    R5 9054   7.898  18.040   9.115  0.2726  0.0795 -0.0802
  584ERGO    C1 9055   7.907  17.887   8.766  0.1552 -0.1408  0.0102
  584ERGO    C2 9056   7.955  17.690   8.587  0.1794  0.2586 -0.0834
  585ERGO   ROH 9057   8.352  17.029   9.979  0.0010 -0.0482  0.1084
  585ERGO    R1 9058   8.293  17.086   9.708  0.1644  0.1743  0.1170
  585ERGO    R2 9059   8.488  17.154   9.524  0.3620 -0.2527  0.1563
  585ERGO    R3 9060   8.381  16.947   9.383 -0.1406  0.0349  0.0896
  585ERGO    R4 9061   8.511  17.116   9.182  0.3378 -0.2401  0.1531
  585ERGO    R5 9062   8.304  17.048   9.180  0.1513  0.2816  0.0935
  585ERGO    C1 9063   8.425  16.900   8.850 -0.1481  0.0372  0.0886
  585ERGO    C2 9064   8.442  16.769   8.508  0.0661 -0.1221 -0.1126
  586ERGO   ROH 9065   2.225   6.765   9.129  0.1583 -0.1701 -0.0724
  586ERGO    R1 9066   2.273   6.945   8.916  0.3027 -0.1423 -0.0186
  586ERGO    R2 9067   2.458   6.894   8.716  0.1418 -0.3136 -0.1327
  586ERGO    R3 9068   2.245   6.939   8.553  0.1164  0.0460 -0.0080
  586ERGO    R4 9069   2.471   6.897   8.371 -0.0288 -0.1376 -0.1384
  586ERGO    R5 9070   2.335   7.067   8.372  0.1863  0.0329  0.0215
  586ERGO    C1 9071   2.278   6.941   8.016 -0.1520  0.3024 -0.0248
  586ERGO    C2 9072   2.224   6.747   7.764 -0.2082 -0.0031  0.0172
  587ERGO   ROH 9073   6.018  16.656  10.083  0.1414 -0.2382 -0.0360
  587ERGO    R1 9074   6.037  16.536   9.827  0.0785 -0.1045 -0.1060
  587ERGO    R2 9075   5.856  16.588   9.625 -0.0515 -0.0974  0.0024
  587ERGO    R3 9076   6.080  16.650   9.484 -0.1495  0.0904 -0.0712
  587ERGO    R4 9077   5.870  16.618   9.281 -0.1180 -0.3875 -0.0271
  587ERGO    R5 9078   6.063  16.516   9.285  0.0232 -0.1117  0.0507
  587ERGO    C1 9079   6.088  16.693   8.948 -0.2487 -0.3800 -0.1134
  587ERGO    C2 9080   6.104  16.752   8.604  0.2245 -0.2550  0.0760
  588ERGO   ROH 9081  11.330   2.852  10.160  0.3664  0.0383  0.1364
  588ERGO    R1 9082  11.333   2.917   9.885 -0.0313  0.0222  0.1236
  588ERGO    R2 9083  11.534   2.834   9.714 -0.0036  0.4366 -0.0534
  588ERGO    R3 9084  11.327   2.734   9.570  0.0658 -0.0273  0.1497
  588ERGO    R4 9085  11.537   2.782   9.372 -0.2169  0.4303 -0.0560
  588ERGO    R5 9086  11.332   2.856   9.364 -0.3976 -0.0144  0.1340
  588ERGO    C1 9087  11.343   2.658   9.038 -0.2758 -0.0089  0.1334
  588ERGO    C2 9088  11.422   2.479   8.728 -0.0064 -0.1310 -0.0907
  589ERGO   ROH 9089  12.369   3.278  10.238 -0.2087 -0.1241  0.1463
  589ERGO    R1 9090  12.415   3.396   9.985 -0.0431 -0.0780  0.1975
  589ERGO    R2 9091  12.433   3.248   9.753 -0.1539 -0.0117  0.1503
  589ERGO    R3 9092  12.239   3.418   9.667  0.0347  0.2198  0.1705
  589ERGO    R4 9093  12.331   3.280   9.424 -0.3536 -0.1235  0.1989
  589ERGO    R5 9094  12.319   3.496   9.454  0.0001 -0.0702  0.0425
  589ERGO    C1 9095  12.090   3.458   9.152 -0.2927  0.0288  0.2462
  589ERGO    C2 9096  12.081   3.417   8.810 -0.0535  0.3630 -0.3715
  590ERGO   ROH 9097  18.020   7.938   9.581 -0.0469 -0.2067 -0.0195
  590ERGO    R1 9098  17.846   7.920   9.358 -0.0893 -0.0177 -0.0021
  590ERGO    R2 9099  17.615   8.072   9.337  0.0690  0.2279  0.0250
  590ERGO    R3 9100  17.724   8.146   9.100  0.1217  0.1178  0.0132
  590ERGO    R4 9101  17.457   8.047   9.031  0.0983  0.1704  0.0135
  590ERGO    R5 9102  17.646   7.981   8.944  0.0928  0.0861  0.0582
  590ERGO    C1 9103  17.468   8.102   8.629  0.1650  0.0338 -0.0041
  590ERGO    C2 9104  17.421   8.052   8.214 -0.0831  0.3366 -0.1477
  591ERGO   ROH 9105   4.025  14.834   9.778  0.0876 -0.0832  0.1092
  591ERGO    R1 9106   4.164  14.941   9.556 -0.0322 -0.0383  0.0556
  591ERGO    R2 9107   4.439  14.932   9.533 -0.0268  0.1943  0.0264
  591ERGO    R3 9108   4.384  14.814   9.295  0.0487  0.0634  0.0724
  591ERGO    R4 9109   4.656  14.918   9.265  0.0968 -0.0277  0.1351
  591ERGO    R5 9110   4.487  14.957   9.133  0.1644 -0.0604  0.0325
  591ERGO    C1 9111   4.730  14.799   8.885  0.2395 -0.2798  0.2416
  591ERGO    C2 9112   4.848  14.844   8.609  0.0714 -0.1001  0.3760
  592ERGO   ROH 9113   8.143  16.010   9.820  0.1438 -0.0521 -0.0903
  592ERGO    R1 9114   8.118  15.918   9.553  0.0459  0.0322 -0.1101
  592ERGO    R2 9115   7.926  16.016   9.380  0.1129  0.2324 -0.0704
  592ERGO    R3 9116   8.141  16.063   9.220  0.1391  0.0920 -0.0783
  592ERGO    R4 9117   7.910  16.081   9.041  0.1287  0.3762 -0.0446
  592ERGO    R5 9118   8.086  15.956   9.013  0.0108  0.2195 -0.1132
  592ERGO    C1 9119   8.102  16.163   8.693  0.1625  0.3283 -0.0369
  592ERGO    C2 9120   8.212  16.276   8.431  0.0869  0.1978  0.0164
  593ERGO   ROH 9121  10.970  16.358   9.481  0.0638 -0.1507 -0.1009
  593ERGO    R1 9122  10.965  16.476   9.224  0.1224 -0.0607 -0.0609
  593ERGO    R2 9123  10.999  16.330   8.992  0.0165 -0.0042 -0.1118
  593ERGO    R3 9124  10.763  16.447   8.923  0.0845  0.1675 -0.0600
  593ERGO    R4 9125  10.839  16.288   8.688 -0.0908  0.0932 -0.0696
  593ERGO    R5 9126  10.788  16.500   8.690  0.0673  0.1327 -0.0705
  593ERGO    C1 9127  10.524  16.372   8.447 -0.0896  0.3110  0.0035
  593ERGO    C2 9128  10.336  16.324   8.135  0.1213 -0.0082 -0.2900
  594ERGO   ROH 9129  18.186   0.823   9.815  0.1000  0.2606 -0.0450
  594ERGO    R1 9130  18.062   0.805   9.561  0.0815  0.1433 -0.0292
  594ERGO    R2 9131  18.083   1.004   9.370  0.0523  0.0673 -0.1200
  594ERGO    R3 9132  18.170   0.800   9.214  0.0587  0.0045 -0.0333
  594ERGO    R4 9133  18.093   1.009   9.025  0.0890 -0.0752 -0.1210
  594ERGO    R5 9134  18.024   0.803   9.024  0.0829 -0.0672 -0.0481
  594ERGO    C1 9135  18.181   0.821   8.677  0.1159 -0.2171 -0.0403
  594ERGO    C2 9136  18.132   0.895   8.459  0.2469 -0.1632 -0.0361
  595ERGO   ROH 9137   1.286  16.849   9.898  0.1074 -0.1203  0.1156
  595ERGO    R1 9138   1.144  16.906   9.660 -0.0353 -0.2040  0.1786
  595ERGO    R2 9139   1.255  17.051   9.452 -0.2694  0.0063  0.1924
  595ERGO    R3 9140   1.183  16.834   9.306 -0.0525 -0.0328  0.1414
  595ERGO    R4 9141   1.189  17.053   9.113 -0.0612 -0.0290  0.1510
  595ERGO    R5 9142   1.023  16.917   9.149 -0.0034 -0.1253  0.0440
  595ERGO    C1 9143   1.083  16.850   8.778  0.2637 -0.0861  0.0791
  595ERGO    C2 9144   1.016  16.913   8.447 -0.0991  0.1091  0.1649
  596ERGO   ROH 9145  18.113  11.453   9.823 -0.2770 -0.3722 -0.0663
  596ERGO    R1 9146  18.154  11.564   9.566 -0.1261 -0.2527  0.0078
  596ERGO    R2 9147  18.104  11.423   9.333 -0.0747 -0.1146 -0.0865
  596ERGO    R3 9148  17.949  11.638   9.274  0.0268 -0.0292 -0.0459
  596ERGO    R4 9149  17.930  11.466   9.037 -0.0896 -0.0016 -0.0618
  596ERGO    R5 9150  17.987  11.677   9.041  0.0186 -0.0281 -0.0486
  596ERGO    C1 9151  17.684  11.694   8.810 -0.0031  0.1444 -0.0091
  596ERGO    C2 9152  17.505  11.749   8.547 -0.1271  0.0433 -0.2965
  597ERGO   ROH 9153   7.902  10.552   9.791 -0.0648 -0.0963 -0.1530
  597ERGO    R1 9154   7.725  10.644   9.590  0.0174 -0.0042 -0.1823
  597ERGO    R2 9155   7.662  10.912   9.557  0.0987  0.0136 -0.1374
  597ERGO    R3 9156   7.744  10.866   9.302  0.1538  0.0571 -0.1295
  597ERGO    R4 9157   7.535  11.070   9.278  0.1116  0.0291 -0.1359
  597ERGO    R5 9158   7.543  10.880   9.172  0.1656  0.0362 -0.1599
  597ERGO    C1 9159   7.537  11.120   8.875  0.1709  0.0789 -0.1275
  597ERGO    C2 9160   7.607  11.210   8.463 -0.3420 -0.2428  0.2883
  598ERGO   ROH 9161   8.948  12.842   9.950  0.2343  0.0978 -0.0843
  598ERGO    R1 9162   9.061  12.714   9.725  0.0763 -0.1107 -0.0479
  598ERGO    R2 9163   8.927  12.520   9.581 -0.2540  0.1595 -0.1165
  598ERGO    R3 9164   8.982  12.683   9.371  0.1550  0.0745 -0.0825
  598ERGO    R4 9165   8.915  12.425   9.249 -0.2264  0.1892 -0.1262
  598ERGO    R5 9166   9.096  12.542   9.214  0.0032 -0.1218 -0.0189
  598ERGO    C1 9167   8.961  12.522   8.858  0.1734  0.1267 -0.1000
  598ERGO    C2 9168   8.931  12.588   8.585 -0.2182 -0.2963 -0.0080
  599ERGO   ROH 9169   1.524  12.585   9.902 -0.2304  0.1783  0.0491
  599ERGO    R1 9170   1.450  12.735   9.674  0.2641  0.1395 -0.1482
  599ERGO    R2 9171   1.594  12.728   9.437  0.2493 -0.6727 -0.1549
  599ERGO    R3 9172   1.353  12.662   9.331 -0.0039 -0.0047 -0.0463
  599ERGO    R4 9173   1.504  12.777   9.108  0.3441 -0.6637 -0.1812
  599ERGO    R5 9174   1.306  12.838   9.175  0.5284  0.0319 -0.1879
  599ERGO    C1 9175   1.225  12.744   8.815  0.1617 -0.0315 -0.0945
  599ERGO    C2 9176   1.145  12.731   8.436  0.1444  0.0456 -0.1105
  600ERGO   ROH 9177   1.603   1.942   9.905 -0.0352  0.0749 -0.0745
  600ERGO    R1 9178   1.512   2.084   9.677 -0.0063  0.0629 -0.0938
  600ERGO    R2 9179   1.685   2.189   9.489  0.0156  0.0025 -0.1090
  600ERGO    R3 9180   1.533   2.045   9.316 -0.0141  0.0095 -0.0884
  600ERGO    R4 9181   1.639   2.266   9.155  0.0123 -0.0233 -0.1142
  600ERGO    R5 9182   1.430   2.209   9.176  0.0052  0.0113 -0.0997
  600ERGO    C1 9183   1.469   2.175   8.798 -0.0175 -0.0316 -0.0981
  600ERGO    C2 9184   1.471   1.955   8.494 -0.0880 -0.0738  0.0881
  601ERGO   ROH 9185   1.712   7.655   9.650 -0.2148 -0.1324  0.0496
  601ERGO    R1 9186   1.668   7.763   9.392  0.0150 -0.0559  0.0405
  601ERGO    R2 9187   1.872   7.869   9.238  0.1857 -0.1860  0.1746
  601ERGO    R3 9188   1.781   7.692   9.053  0.1553 -0.0865  0.0926
  601ERGO    R4 9189   1.859   7.928   8.898 -0.0079  0.0549  0.2206
  601ERGO    R5 9190   1.666   7.827   8.893  0.0246 -0.0105  0.2472
  601ERGO    C1 9191   1.765   7.796   8.526 -0.1491  0.2886  0.1706
  601ERGO    C2 9192   1.882   7.855   8.249  0.1997 -0.1319  0.0976
  602ERGO   ROH 9193   2.967  15.495   9.767  0.1084 -0.0706  0.0730
  602ERGO    R1 9194   3.166  15.422   9.579  0.1205 -0.0495  0.0778
  602ERGO    R2 9195   3.413  15.326   9.654  0.0969 -0.1051  0.0823
  602ERGO    R3 9196   3.348  15.120   9.489  0.0879 -0.0522  0.0192
  602ERGO    R4 9197   3.625  15.066   9.570  0.0569 -0.1361  0.0774
  602ERGO    R5 9198   3.548  15.076   9.366  0.1096 -0.0715  0.0595
  602ERGO    C1 9199   3.686  14.721   9.366  0.0251 -0.1046  0.0150
  602ERGO    C2 9200   3.981  14.542   9.393  0.2117 -0.0863  0.0038
  603ERGO   ROH 9201  13.296  12.726   9.648 -0.0100  0.2795 -0.1820
  603ERGO    R1 9202  13.350  12.753   9.372  0.0211 -0.0813 -0.2172
  603ERGO    R2 9203  13.342  12.540   9.196 -0.4337 -0.2390 -0.0266
  603ERGO    R3 9204  13.169  12.699   9.060 -0.1304 -0.0004 -0.1434
  603ERGO    R4 9205  13.269  12.510   8.860 -0.4025 -0.2622 -0.0309
  603ERGO    R5 9206  13.271  12.727   8.845 -0.0274 -0.2688 -0.1307
  603ERGO    C1 9207  13.065  12.642   8.536 -0.0998 -0.0518 -0.1430
  603ERGO    C2 9208  13.059  12.564   8.181  0.3747  0.1989  0.0843
  604ERGO   ROH 9209  10.384   5.141   9.981 -0.1641  0.0167 -0.0068
  604ERGO    R1 9210  10.444   5.210   9.713 -0.0033  0.0255  0.0299
  604ERGO    R2 9211  10.610   5.058   9.554  0.0417 -0.0061  0.1026
  604ERGO    R3 9212  10.398   5.061   9.385  0.1294  0.0671 -0.0075
  604ERGO    R4 9213  10.627   4.998   9.214  0.1915 -0.0144  0.1112
  604ERGO    R5 9214  10.483   5.158   9.183  0.2646  0.0343  0.0349
  604ERGO    C1 9215  10.437   4.965   8.857  0.3610  0.0494  0.0127
  604ERGO    C2 9216  10.388   5.016   8.526 -0.0517  0.0917  0.3043
  605ERGO   ROH 9217   8.353  17.786   9.757  0.2816  0.1718  0.0285
  605ERGO    R1 9218   8.477  17.631   9.555  0.1280  0.1747 -0.0679
  605ERGO    R2 9219   8.482  17.710   9.290  0.0846  0.2664 -0.0374
  605ERGO    R3 9220   8.750  17.675   9.318  0.0767  0.1024 -0.1431
  605ERGO    R4 9221   8.699  17.627   9.033 -0.0238  0.4725 -0.1993
  605ERGO    R5 9222   8.802  17.493   9.171 -0.0504  0.2505 -0.3822
  605ERGO    C1 9223   9.077  17.546   8.911 -0.0943  0.4384 -0.3928
  605ERGO    C2 9224   9.311  17.390   8.738 -0.0820 -0.0008 -0.0343
  606ERGO   ROH 9225   3.216  12.346   9.582 -0.4823 -0.0979  0.2452
  606ERGO    R1 9226   3.174  12.146   9.386 -0.1305 -0.1056  0.1725
  606ERGO    R2 9227   2.938  12.123   9.245 -0.0121 -0.3392  0.0114
  606ERGO    R3 9228   3.103  12.137   9.029  0.1170 -0.1138  0.1202
  606ERGO    R4 9229   2.862  12.000   8.931  0.1754 -0.0437 -0.1545
  606ERGO    R5 9230   3.068  11.929   8.915  0.1961 -0.0123 -0.1019
  606ERGO    C1 9231   2.973  11.941   8.545  0.4058  0.3399 -0.1490
  606ERGO    C2 9232   2.896  11.941   8.210 -0.1069 -0.1182  0.0739
  607ERGO   ROH 9233   6.243  14.705   9.836  0.0577 -0.3509  0.0579
  607ERGO    R1 9234   6.131  14.663   9.579  0.0739 -0.3397  0.0491
  607ERGO    R2 9235   6.232  14.784   9.353 -0.1041 -0.0801  0.1037
  607ERGO    R3 9236   6.244  14.528   9.261  0.2014 -0.0160 -0.0474
  607ERGO    R4 9237   6.192  14.692   9.022 -0.3504  0.0430  0.0973
  607ERGO    R5 9238   6.076  14.520   9.089  0.0045 -0.1878  0.1472
  607ERGO    C1 9239   6.180  14.399   8.743 -0.2071  0.1749 -0.0484
  607ERGO    C2 9240   6.085  14.204   8.435 -0.0426  0.1323  0.0415
  608ERGO   ROH 9241  15.925   0.663  10.064 -0.0805  0.3399  0.0919
  608ERGO    R1 9242  16.076   0.703   9.828 -0.0470  0.2639  0.1007
  608ERGO    R2 9243  16.160   0.494   9.668 -0.0772  0.2170  0.1483
  608ERGO    R3 9244  16.033   0.634   9.473 -0.0245  0.2105  0.1081
  608ERGO    R4 9245  16.262   0.509   9.338 -0.0699  0.0870  0.1433
  608ERGO    R5 9246  16.210   0.721   9.337  0.0093  0.1070  0.0839
  608ERGO    C1 9247  16.202   0.650   8.962 -0.0159  0.0052  0.1028
  608ERGO    C2 9248  16.222   0.804   8.617 -0.0298 -0.0704 -0.0102
  609ERGO   ROH 9249   0.870   1.194   9.926 -0.1209  0.0689 -0.0350
  609ERGO    R1 9250   0.770   1.294   9.680 -0.1626 -0.0486 -0.0666
  609ERGO    R2 9251   0.929   1.429   9.498 -0.2393  0.0444 -0.0644
  609ERGO    R3 9252   0.835   1.240   9.327 -0.0686 -0.0566 -0.0486
  609ERGO    R4 9253   0.924   1.459   9.154 -0.1345 -0.0458 -0.0742
  609ERGO    R5 9254   0.728   1.365   9.153 -0.0813 -0.1620 -0.1192
  609ERGO    C1 9255   0.833   1.299   8.793  0.0867 -0.1931 -0.0651
  609ERGO    C2 9256   0.907   1.185   8.516  0.0038 -0.3204 -0.3480
  610ERGO   ROH 9257   7.213   4.316   9.561  0.1444  0.0371  0.0278
  610ERGO    R1 9258   7.422   4.372   9.379  0.1508  0.3483  0.1260
  610ERGO    R2 9259   7.396   4.335   9.107  0.3989  0.0963  0.1353
  610ERGO    R3 9260   7.474   4.596   9.097 -0.1366  0.2655  0.0024
  610ERGO    R4 9261   7.468   4.510   8.817  0.2936  0.0091  0.0555
  610ERGO    R5 9262   7.636   4.603   8.920  0.0165  0.4519  0.1413
  610ERGO    C1 9263   7.583   4.855   8.639 -0.2704  0.1170 -0.1156
  610ERGO    C2 9264   7.682   4.900   8.345  0.0427 -0.3121  0.2088
  611ERGO   ROH 9265   2.352   1.657   9.952 -0.0226 -0.0028 -0.0446
  611ERGO    R1 9266   2.460   1.539   9.719  0.0365  0.0113 -0.0243
  611ERGO    R2 9267   2.322   1.351   9.570  0.1012 -0.0268 -0.0331
  611ERGO    R3 9268   2.372   1.523   9.366  0.0890 -0.0264 -0.0362
  611ERGO    R4 9269   2.271   1.280   9.236 -0.0946  0.0345 -0.0179
  611ERGO    R5 9270   2.458   1.383   9.191 -0.0623 -0.0510 -0.0942
  611ERGO    C1 9271   2.289   1.400   8.849 -0.2200  0.0706 -0.0119
  611ERGO    C2 9272   2.203   1.321   8.583 -0.0697 -0.0339  0.0124
  612ERGO   ROH 9273   6.736   5.588   9.480 -0.1881  0.1211 -0.0240
  612ERGO    R1 9274   6.861   5.652   9.234 -0.1886  0.2476  0.0093
  612ERGO    R2 9275   6.928   5.460   9.047  0.0988  0.3099  0.0519
  612ERGO    R3 9276   6.782   5.618   8.880 -0.0380  0.1189 -0.0149
  612ERGO    R4 9277   6.903   5.415   8.705  0.2347  0.2019  0.0543
  612ERGO    R5 9278   6.915   5.632   8.681  0.0035  0.2197  0.0133
  612ERGO    C1 9279   6.751   5.537   8.350  0.1856 -0.0403 -0.0071
  612ERGO    C2 9280   6.744   5.554   8.092  0.0373 -0.3572 -0.0662
  613ERGO   ROH 9281  18.115   9.625   9.643 -0.0627  0.1670 -0.1626
  613ERGO    R1 9282  18.178   9.664   9.370 -0.0498  0.0169 -0.1818
  613ERGO    R2 9283  18.273   9.461   9.207 -0.0977 -0.0843 -0.0785
  613ERGO    R3 9284  18.063   9.534   9.050 -0.0760 -0.1121 -0.1214
  613ERGO    R4 9285  18.260   9.422   8.864 -0.1106 -0.2992 -0.0556
  613ERGO    R5 9286  18.165   9.617   8.850 -0.0461 -0.2718 -0.1773
  613ERGO    C1 9287  18.055   9.468   8.517 -0.0977 -0.4503 -0.0824
  613ERGO    C2 9288  18.031   9.283   8.286  0.0829 -0.1523  0.1738
  614ERGO   ROH 9289   4.032  13.689   9.202  0.0188  0.2548 -0.0226
  614ERGO    R1 9290   3.995  13.639   8.926 -0.0911  0.2377 -0.0041
  614ERGO    R2 9291   4.012  13.386   8.817  0.0731  0.2616 -0.0235
  614ERGO    R3 9292   3.765  13.445   8.721 -0.0357  0.0449  0.1107
  614ERGO    R4 9293   3.868  13.239   8.539  0.0266  0.0813  0.0930
  614ERGO    R5 9294   3.790  13.435   8.482 -0.1651  0.0125  0.0944
  614ERGO    C1 9295   3.552  13.209   8.287 -0.1025 -0.2271  0.2869
  614ERGO    C2 9296   3.232  13.236   8.039  0.1291  0.0093 -0.2741
  615ERGO   ROH 9297   8.793   9.440   9.252  0.2149 -0.2255 -0.0568
  615ERGO    R1 9298   8.598   9.406   9.049  0.1194 -0.1728  0.0251
  615ERGO    R2 9299   8.484   9.619   8.916  0.0440 -0.1372  0.1446
  615ERGO    R3 9300   8.569   9.485   8.695 -0.0539 -0.0655  0.0623
  615ERGO    R4 9301   8.307   9.593   8.620 -0.0290  0.0705  0.1679
  615ERGO    R5 9302   8.371   9.385   8.606 -0.1110  0.0523  0.0554
  615ERGO    C1 9303   8.284   9.451   8.240 -0.1633  0.2587  0.1042
  615ERGO    C2 9304   8.124   9.474   7.952  0.3339  0.1718 -0.1307
  616ERGO   ROH 9305  12.761  14.425   9.456  0.1207 -0.0581  0.0298
  616ERGO    R1 9306  12.691  14.228   9.265  0.1049 -0.0936  0.0736
  616ERGO    R2 9307  12.495  14.269   9.075  0.1555 -0.0960  0.0294
  616ERGO    R3 9308  12.694  14.199   8.903  0.1649 -0.2023  0.0805
  616ERGO    R4 9309  12.454  14.227   8.735  0.2335  0.0463  0.0010
  616ERGO    R5 9310  12.586  14.054   8.745  0.0947 -0.0703 -0.0032
  616ERGO    C1 9311  12.616  14.138   8.374  0.2879  0.0294  0.0325
  616ERGO    C2 9312  12.445  14.102   7.984  0.3235 -0.0814  0.0830
  617ERGO   ROH 9313  14.756  12.252   9.515  0.4400  0.0270 -0.1365
  617ERGO    R1 9314  14.632  12.355   9.283  0.1514 -0.1133 -0.0486
  617ERGO    R2 9315  14.774  12.474   9.078 -0.1371  0.1011 -0.1274
  617ERGO    R3 9316  14.646  12.290   8.925  0.0100 -0.0562 -0.0660
  617ERGO    R4 9317  14.775  12.470   8.733 -0.1253 -0.0123 -0.1266
  617ERGO    R5 9318  14.564  12.415   8.738 -0.0869 -0.1796 -0.1112
  617ERGO    C1 9319  14.655  12.295   8.388  0.0199 -0.2258 -0.0684
  617ERGO    C2 9320  14.700  12.256   8.025 -0.2800 -0.0860  0.1219
  618ERGO   ROH 9321   8.820   5.260   9.769 -0.0892  0.0916 -0.0374
  618ERGO    R1 9322   8.996   5.131   9.589  0.1000  0.3130 -0.0124
  618ERGO    R2 9323   8.910   4.947   9.401  0.3871  0.0141  0.1512
  618ERGO    R3 9324   9.038   5.112   9.228  0.0049  0.1477 -0.0189
  618ERGO    R4 9325   8.967   4.877   9.068  0.4000 -0.1429  0.1839
  618ERGO    R5 9326   9.165   4.965   9.088  0.2522  0.2743  0.0538
  618ERGO    C1 9327   9.121   4.992   8.711  0.0486 -0.1089  0.0434
  618ERGO    C2 9328   9.166   4.950   8.343 -0.0043  0.1806 -0.0850
  619ERGO   ROH 9329   9.092  16.359   9.649  0.0651  0.2711 -0.1839
  619ERGO    R1 9330   9.175  16.228   9.412 -0.0377  0.1186 -0.1387
  619ERGO    R2 9331   9.027  16.027   9.291 -0.1753  0.1579 -0.0440
  619ERGO    R3 9332   9.048  16.188   9.073 -0.0949  0.0562 -0.1095
  619ERGO    R4 9333   8.916  15.947   8.974 -0.0021 -0.0141 -0.0614
  619ERGO    R5 9334   9.096  16.038   8.893  0.0215 -0.0219 -0.0143
  619ERGO    C1 9335   8.871  16.051   8.585  0.1743 -0.2098 -0.1333
  619ERGO    C2 9336   8.657  16.141   8.254 -0.0468  0.0678 -0.1336
  620ERGO   ROH 9337   6.027  10.158   9.896 -0.1947 -0.0150  0.0079
  620ERGO    R1 9338   5.904  10.051   9.665 -0.0426 -0.2346  0.0266
  620ERGO    R2 9339   5.866  10.199   9.435 -0.3211 -0.3054  0.0294
  620ERGO    R3 9340   5.999   9.992   9.319  0.0171 -0.0892  0.0160
  620ERGO    R4 9341   5.882  10.141   9.095 -0.1125 -0.1739  0.0145
  620ERGO    R5 9342   5.859   9.928   9.135  0.1689 -0.2274 -0.0592
  620ERGO    C1 9343   6.016   9.914   8.787  0.3264  0.1055 -0.0067
  620ERGO    C2 9344   6.146   9.943   8.452  0.3671  0.0553  0.0584
  621ERGO   ROH 9345  17.383  10.220   9.482 -0.1313  0.0137  0.1011
  621ERGO    R1 9346  17.291  10.118   9.235 -0.1003  0.2163  0.0037
  621ERGO    R2 9347  17.298  10.265   9.001  0.3122  0.2669  0.0399
  621ERGO    R3 9348  17.434  10.049   8.908  0.0525  0.0732  0.0997
  621ERGO    R4 9349  17.289  10.151   8.675  0.3498  0.3249  0.0185
  621ERGO    R5 9350  17.284   9.947   8.751 -0.0031  0.3166 -0.0094
  621ERGO    C1 9351  17.411   9.882   8.397  0.1275  0.1767  0.0623
  621ERGO    C2 9352  17.556   9.895   8.130  0.2669  0.2190  0.3934
  622ERGO   ROH 9353   0.124   0.359   9.865  0.2885  0.0116 -0.0633
  622ERGO    R1 9354   0.057   0.413   9.596  0.3133  0.2906 -0.0174
  622ERGO    R2 9355   0.236   0.526   9.417  0.5270 -0.0458 -0.0262
  622ERGO    R3 9356   0.176   0.307   9.268 -0.0458  0.1480 -0.1067
  622ERGO    R4 9357   0.219   0.521   9.072  0.4696  0.1298 -0.0273
  622ERGO    R5 9358   0.044   0.392   9.088  0.1374  0.5559 -0.0599
  622ERGO    C1 9359   0.154   0.312   8.731 -0.1015  0.4140 -0.1036
  622ERGO    C2 9360   0.247   0.490   8.506  0.2664 -0.0510  0.1566
  623ERGO   ROH 9361   2.233  10.920   9.716 -0.1675  0.1988 -0.0554
  623ERGO    R1 9362   2.210  11.064   9.473  0.2460  0.1820 -0.1117
  623ERGO    R2 9363   2.411  11.069   9.283  0.2937 -0.4252 -0.0945
  623ERGO    R3 9364   2.211  10.986   9.118  0.0772  0.0433 -0.0833
  623ERGO    R4 9365   2.390  11.145   8.947  0.5531 -0.5116 -0.1323
  623ERGO    R5 9366   2.175  11.173   8.971  0.6100  0.0934 -0.1726
  623ERGO    C1 9367   2.191  11.111   8.595  0.5009 -0.1222 -0.1438
  623ERGO    C2 9368   2.017  11.123   8.224 -0.0286  0.2740  0.1194
  624ERGO   ROH 9369   8.595   7.806   9.408  0.0211 -0.0519  0.0170
  624ERGO    R1 9370   8.587   7.554   9.281  0.0547 -0.0191 -0.0504
  624ERGO    R2 9371   8.615   7.524   9.007  0.1279  0.0513 -0.0506
  624ERGO    R3 9372   8.813   7.352   9.079  0.1084  0.0324 -0.0421
  624ERGO    R4 9373   8.725   7.258   8.816 -0.0137 -0.0684  0.0324
  624ERGO    R5 9374   8.740   7.140   8.998  0.0207  0.0130  0.0842
  624ERGO    C1 9375   8.975   6.942   8.772 -0.1145 -0.1559  0.0888
  624ERGO    C2 9376   9.112   6.817   8.522  0.1342 -0.1239  0.1684
  625ERGO   ROH 9377  10.844  13.048   9.697  0.0840  0.0980 -0.0635
  625ERGO    R1 9378  10.905  13.154   9.442  0.1202 -0.1358 -0.1551
  625ERGO    R2 9379  10.938  12.996   9.219 -0.2431 -0.3141 -0.0862
  625ERGO    R3 9380  10.749  13.160   9.113 -0.0444 -0.0735 -0.0783
  625ERGO    R4 9381  10.865  13.020   8.882 -0.2059 -0.2147 -0.0874
  625ERGO    R5 9382  10.845  13.236   8.907  0.0588 -0.1833 -0.0762
  625ERGO    C1 9383  10.644  13.188   8.587  0.0025  0.0691 -0.0808
  625ERGO    C2 9384  10.794  13.012   8.181 -0.1705 -0.1399 -0.2435
  626ERGO   ROH 9385   2.321   9.204   9.729  0.1022 -0.2011 -0.1961
  626ERGO    R1 9386   2.276   9.148   9.456  0.1219 -0.1081 -0.2184
  626ERGO    R2 9387   2.096   9.291   9.303  0.0333 -0.1442 -0.1484
  626ERGO    R3 9388   2.311   9.327   9.141  0.0063  0.0492 -0.1431
  626ERGO    R4 9389   2.081   9.329   8.959  0.0047 -0.1153 -0.1439
  626ERGO    R5 9390   2.258   9.204   8.942  0.1072  0.0291 -0.1579
  626ERGO    C1 9391   2.274   9.386   8.608 -0.0372  0.0830 -0.1364
  626ERGO    C2 9392   2.288   9.463   8.249  0.1536 -0.1527 -0.1870
  627ERGO   ROH 9393  16.724  17.688  10.104  0.1030  0.0748  0.0550
  627ERGO    R1 9394  16.683  17.663   9.825  0.0918  0.0619  0.0578
  627ERGO    R2 9395  16.454  17.753   9.699  0.0566 -0.0063  0.0733
  627ERGO    R3 9396  16.632  17.889   9.544  0.0061  0.0460  0.0604
  627ERGO    R4 9397  16.427  17.795   9.357  0.0906 -0.1314  0.0545
  627ERGO    R5 9398  16.642  17.763   9.341  0.1124 -0.0142  0.1019
  627ERGO    C1 9399  16.578  17.947   9.013  0.0631 -0.1551  0.0315
  627ERGO    C2 9400  16.650  17.928   8.712  0.1665 -0.3920 -0.1297
  628ERGO   ROH 9401  13.301   5.832  10.042 -0.3644  0.0979 -0.0595
  628ERGO    R1 9402  13.382   5.877   9.775 -0.1456  0.0676 -0.0010
  628ERGO    R2 9403  13.622   5.784   9.674 -0.0843  0.0087  0.1882
  628ERGO    R3 9404  13.462   5.673   9.485  0.0355  0.0353  0.0711
  628ERGO    R4 9405  13.732   5.662   9.370  0.0660  0.3130  0.1170
  628ERGO    R5 9406  13.554   5.748   9.277  0.0252  0.2558  0.1459
  628ERGO    C1 9407  13.645   5.486   9.015  0.2659  0.5150 -0.0344
  628ERGO    C2 9408  13.753   5.493   8.680 -0.1485 -0.1329  0.1601
  629ERGO   ROH 9409   8.888  11.301   9.932 -0.4114 -0.0760 -0.2202
  629ERGO    R1 9410   9.081  11.340   9.729 -0.1884  0.2122  0.0380
  629ERGO    R2 9411   9.071  11.207   9.486  0.4686  0.0024  0.1101
  629ERGO    R3 9412   9.083  11.459   9.385  0.0456 -0.0329 -0.0503
  629ERGO    R4 9413   9.121  11.284   9.153  0.5211 -0.1354  0.0850
  629ERGO    R5 9414   9.252  11.447   9.215  0.1796  0.1667  0.0596
  629ERGO    C1 9415   9.161  11.565   8.864  0.1546 -0.2487 -0.0803
  629ERGO    C2 9416   9.102  11.534   8.502  0.1005 -0.1084 -0.2342
  630ERGO   ROH 9417   6.239   6.674   9.602  0.4691  0.1600 -0.0501
  630ERGO    R1 9418   6.353   6.570   9.365  0.3529  0.2095 -0.1282
  630ERGO    R2 9419   6.213   6.407   9.191  0.3249  0.0953  0.0044
  630ERGO    R3 9420   6.288   6.592   9.008  0.0556  0.1232 -0.0826
  630ERGO    R4 9421   6.238   6.350   8.851  0.0580  0.0767 -0.0150
  630ERGO    R5 9422   6.420   6.470   8.849 -0.0106  0.1836 -0.1873
  630ERGO    C1 9423   6.323   6.491   8.481 -0.3502  0.0921 -0.1080
  630ERGO    C2 9424   6.313   6.359   8.151 -0.0406  0.1999  0.0337
  631ERGO   ROH 9425   7.716  15.001   9.649 -0.1062 -0.1923  0.0023
  631ERGO    R1 9426   7.577  14.938   9.410 -0.0500 -0.1333 -0.0459
  631ERGO    R2 9427   7.582  15.103   9.188  0.0363 -0.0984 -0.0185
  631ERGO    R3 9428   7.664  14.876   9.063  0.0364 -0.0912 -0.0321
  631ERGO    R4 9429   7.561  15.046   8.847  0.1293 -0.0396 -0.0345
  631ERGO    R5 9430   7.502  14.841   8.890  0.0828 -0.0365 -0.0866
  631ERGO    C1 9431   7.627  14.800   8.532  0.1835  0.0015 -0.0565
  631ERGO    C2 9432   7.705  14.815   8.193  0.0014 -0.0470  0.2553
  632ERGO   ROH 9433   7.270   0.416  10.029  0.0061 -0.1277  0.1685
  632ERGO    R1 9434   7.447   0.396   9.810 -0.1056  0.0724  0.0571
  632ERGO    R2 9435   7.512   0.154   9.693  0.1716  0.1318  0.0862
  632ERGO    R3 9436   7.430   0.279   9.466 -0.1620 -0.0494  0.1003
  632ERGO    R4 9437   7.650   0.104   9.380  0.0847  0.2860  0.0215
  632ERGO    R5 9438   7.633   0.318   9.344 -0.2875  0.2566 -0.0206
  632ERGO    C1 9439   7.653   0.192   8.985 -0.2790  0.2056 -0.0029
  632ERGO    C2 9440   7.778   0.229   8.678  0.1575 -0.0136 -0.2143
  633ERGO   ROH 9441  17.803   6.811   9.863  0.1288 -0.0574 -0.0104
  633ERGO    R1 9442  17.696   6.595   9.715 -0.0074 -0.0170  0.0265
  633ERGO    R2 9443  17.442   6.600   9.607  0.0088  0.1425 -0.0130
  633ERGO    R3 9444  17.574   6.542   9.377  0.0036 -0.0080  0.0215
  633ERGO    R4 9445  17.290   6.533   9.304  0.0029 -0.1120  0.0450
  633ERGO    R5 9446  17.438   6.376   9.270  0.0267 -0.1115  0.1534
  633ERGO    C1 9447  17.326   6.439   8.911 -0.0053 -0.4015  0.1112
  633ERGO    C2 9448  17.387   6.513   8.558 -0.2899  0.0591 -0.0897
  634ERGO   ROH 9449  12.006  13.432   9.944 -0.0135  0.2724  0.0299
  634ERGO    R1 9450  11.958  13.332   9.683 -0.1184  0.1286  0.1039
  634ERGO    R2 9451  11.761  13.435   9.518  0.0252  0.2489  0.0109
  634ERGO    R3 9452  11.968  13.462   9.344  0.0750 -0.1489 -0.0021
  634ERGO    R4 9453  11.740  13.379   9.178 -0.1342  0.3384  0.0050
  634ERGO    R5 9454  11.937  13.284   9.187 -0.3151 -0.0741 -0.0263
  634ERGO    C1 9455  11.922  13.371   8.816 -0.1803  0.0170 -0.0108
  634ERGO    C2 9456  11.791  13.448   8.562  0.2969 -0.2874  0.0797
  635ERGO   ROH 9457  17.711  17.767   9.975  0.0696  0.1827 -0.1345
  635ERGO    R1 9458  17.571  17.943   9.804 -0.0030  0.1216 -0.1399
  635ERGO    R2 9459  17.698  18.100   9.616 -0.0542  0.2564 -0.0688
  635ERGO    R3 9460  17.523  17.981   9.445  0.0848  0.1645 -0.1463
  635ERGO    R4 9461  17.614  18.221   9.303 -0.0040  0.2237 -0.0939
  635ERGO    R5 9462  17.407  18.163   9.341  0.0173  0.0989 -0.1807
  635ERGO    C1 9463  17.402  18.178   8.960  0.1555  0.1180 -0.1812
  635ERGO    C2 9464  17.426  18.293   8.608 -0.0829 -0.1048  0.1660
  636ERGO   ROH 9465  11.887  11.789   9.736  0.1546 -0.1627  0.0452
  636ERGO    R1 9466  11.861  11.806   9.454  0.0749 -0.0546  0.0587
  636ERGO    R2 9467  12.031  11.673   9.280 -0.0219 -0.0489 -0.0394
  636ERGO    R3 9468  11.798  11.576   9.180 -0.0844  0.0635 -0.0053
  636ERGO    R4 9469  11.989  11.549   8.960 -0.1053 -0.1099 -0.0056
  636ERGO    R5 9470  11.796  11.648   8.952 -0.0476  0.0048 -0.0252
  636ERGO    C1 9471  11.746  11.386   8.680 -0.2126 -0.0398  0.0460
  636ERGO    C2 9472  11.592  11.376   8.427  0.1234 -0.1354 -0.2219
  637ERGO   ROH 9473   2.271   9.672   9.540  0.0160  0.1821 -0.0381
  637ERGO    R1 9474   2.199   9.732   9.273  0.0064 -0.2277 -0.1328
  637ERGO    R2 9475   2.304   9.948   9.136 -0.5278 -0.0168 -0.2132
  637ERGO    R3 9476   2.370   9.759   8.953  0.1477  0.0240 -0.0432
  637ERGO    R4 9477   2.382  10.011   8.805 -0.6169 -0.0088 -0.2351
  637ERGO    R5 9478   2.268   9.834   8.750 -0.0479 -0.4453 -0.1423
  637ERGO    C1 9479   2.490   9.870   8.441 -0.0347  0.0341 -0.0882
  637ERGO    C2 9480   2.631   9.880   8.060  0.1040 -0.1100  0.1611
  638ERGO   ROH 9481  17.934  16.920   9.899  0.0485  0.0025  0.1081
  638ERGO    R1 9482  17.830  17.066   9.679  0.1348  0.0110  0.0738
  638ERGO    R2 9483  17.992  17.189   9.493  0.2059 -0.1537  0.0333
  638ERGO    R3 9484  17.845  17.044   9.316  0.0969 -0.0991  0.0767
  638ERGO    R4 9485  17.932  17.280   9.165  0.4197 -0.2748 -0.0425
  638ERGO    R5 9486  17.727  17.209   9.188  0.3224 -0.0324 -0.0606
  638ERGO    C1 9487  17.759  17.197   8.808  0.4419 -0.2942 -0.0457
  638ERGO    C2 9488  17.715  17.300   8.526 -0.2286 -0.1822  0.0395
  639ERGO   ROH 9489   9.865   0.534   9.864  0.1752 -0.1303  0.1154
  639ERGO    R1 9490  10.062   0.459   9.675  0.1640 -0.0110  0.0562
  639ERGO    R2 9491   9.999   0.362   9.424  0.1467 -0.0497  0.0784
  639ERGO    R3 9492  10.162   0.563   9.341  0.0015  0.0480  0.0244
  639ERGO    R4 9493  10.126   0.393   9.105  0.3193 -0.1862  0.1321
  639ERGO    R5 9494  10.316   0.456   9.192  0.2056  0.0739  0.2079
  639ERGO    C1 9495  10.354   0.599   8.840  0.2835 -0.1741  0.1126
  639ERGO    C2 9496  10.200   0.744   8.498 -0.3564 -0.3024  0.4648
  640ERGO   ROH 9497   8.323   4.157   9.943 -0.0165 -0.1520 -0.0827
  640ERGO    R1 9498   8.429   4.146   9.681 -0.0324 -0.1195 -0.0895
  640ERGO    R2 9499   8.378   3.937   9.508 -0.0701 -0.0788 -0.1211
  640ERGO    R3 9500   8.296   4.136   9.343 -0.0497 -0.0400 -0.0863
  640ERGO    R4 9501   8.398   3.929   9.163 -0.2423 -0.1039 -0.1325
  640ERGO    R5 9502   8.458   4.138   9.166 -0.1313 -0.1307 -0.1672
  640ERGO    C1 9503   8.333   4.113   8.807 -0.3235 -0.0822 -0.1066
  640ERGO    C2 9504   8.319   4.237   8.466 -0.0847  0.0830  0.2223
  641ERGO   ROH 9505   3.009  14.151   9.847  0.1011  0.0999 -0.0512
  641ERGO    R1 9506   2.910  14.102   9.586  0.0347  0.0460 -0.0165
  641ERGO    R2 9507   2.967  14.268   9.372 -0.1474  0.0876 -0.0337
  641ERGO    R3 9508   3.053  14.036   9.258 -0.0454  0.1440 -0.0719
  641ERGO    R4 9509   2.953  14.197   9.034 -0.2045  0.1050 -0.0347
  641ERGO    R5 9510   2.894  13.993   9.084 -0.0728  0.0652 -0.0295
  641ERGO    C1 9511   3.026  13.938   8.730 -0.1420  0.1681 -0.0712
  641ERGO    C2 9512   2.935  13.957   8.482 -0.1505  0.1012 -0.1662
  642ERGO   ROH 9513   0.188  14.858   9.785  0.0452 -0.1921 -0.0273
  642ERGO    R1 9514   0.016  14.831   9.562 -0.1395  0.0653  0.0803
  642ERGO    R2 9515  -0.048  15.043   9.397  0.1955  0.1342  0.0389
  642ERGO    R3 9516   0.041  14.876   9.202 -0.2498 -0.1272  0.0464
  642ERGO    R4 9517  -0.110  15.083   9.059  0.3365  0.3228  0.0329
  642ERGO    R5 9518  -0.140  14.868   9.045 -0.2745  0.3861  0.0278
  642ERGO    C1 9519  -0.063  14.950   8.680  0.0005  0.1871  0.0367
  642ERGO    C2 9520  -0.017  14.799   8.428  0.0560 -0.1900  0.2477
  643ERGO   ROH 9521  13.463  10.293  10.108  0.2103  0.1802 -0.0924
  643ERGO    R1 9522  13.458  10.277   9.825  0.0617  0.1987 -0.0926
  643ERGO    R2 9523  13.515  10.044   9.688  0.2728  0.2746 -0.1474
  643ERGO    R3 9524  13.273  10.090   9.574  0.1417 -0.0146  0.0070
  643ERGO    R4 9525  13.422   9.941   9.372  0.2134  0.2358 -0.1165
  643ERGO    R5 9526  13.322  10.132   9.344 -0.0543  0.1093 -0.0105
  643ERGO    C1 9527  13.141   9.924   9.081  0.0557 -0.0583  0.0463
  643ERGO    C2 9528  13.085   9.911   8.809 -0.0660 -0.1103  0.1070
  644ERGO   ROH 9529  16.722  13.465   9.857  0.2109 -0.3252 -0.2636
  644ERGO    R1 9530  16.673  13.621   9.625 -0.0330 -0.2526 -0.1674
  644ERGO    R2 9531  16.859  13.647   9.421 -0.1164  0.0682 -0.2120
  644ERGO    R3 9532  16.651  13.562   9.267 -0.0679 -0.0863 -0.1924
  644ERGO    R4 9533  16.876  13.587   9.082 -0.0593 -0.1223 -0.1763
  644ERGO    R5 9534  16.680  13.678   9.060 -0.0818 -0.1992 -0.2548
  644ERGO    C1 9535  16.693  13.472   8.739  0.0197 -0.3781 -0.1371
  644ERGO    C2 9536  16.678  13.563   8.400  0.1555  0.2211  0.1483
  645ERGO   ROH 9537   2.200  17.418   9.808  0.0571 -0.4115  0.0070
  645ERGO    R1 9538   2.116  17.509   9.554 -0.0690 -0.3446  0.0710
  645ERGO    R2 9539   2.265  17.687   9.403 -0.2687 -0.0952  0.1551
  645ERGO    R3 9540   2.243  17.494   9.213 -0.0905 -0.0102  0.0461
  645ERGO    R4 9541   2.274  17.742   9.062 -0.1097  0.0700  0.1848
  645ERGO    R5 9542   2.115  17.596   9.038 -0.0366  0.0196  0.0278
  645ERGO    C1 9543   2.258  17.593   8.685  0.1501  0.2459  0.0998
  645ERGO    C2 9544   2.200  17.704   8.249  0.1250  0.2615 -0.1612
  646ERGO   ROH 9545   4.431  10.505   9.569 -0.0627  0.2246  0.0334
  646ERGO    R1 9546   4.366  10.410   9.310 -0.0779  0.0697  0.0919
  646ERGO    R2 9547   4.269  10.576   9.111 -0.0618 -0.0412 -0.0133
  646ERGO    R3 9548   4.478  10.475   8.970 -0.0744 -0.1549  0.0496
  646ERGO    R4 9549   4.292  10.574   8.766 -0.0076 -0.1588 -0.0087
  646ERGO    R5 9550   4.377  10.374   8.778 -0.0763 -0.1816  0.0669
  646ERGO    C1 9551   4.501  10.477   8.433  0.0122 -0.3340  0.0529
  646ERGO    C2 9552   4.659  10.646   8.174  0.0537 -0.2574 -0.0013
  647ERGO   ROH 9553  15.244  12.869  10.040 -0.0219 -0.0597  0.0186
  647ERGO    R1 9554  15.404  12.974   9.831 -0.1668  0.0809 -0.0237
  647ERGO    R2 9555  15.547  12.813   9.658 -0.0074  0.2063 -0.0085
  647ERGO    R3 9556  15.412  12.952   9.468 -0.1916  0.0179 -0.0211
  647ERGO    R4 9557  15.609  12.795   9.319 -0.0217  0.2130 -0.0119
  647ERGO    R5 9558  15.579  13.010   9.307 -0.2718  0.1813 -0.0497
  647ERGO    C1 9559  15.519  12.916   8.942 -0.2030  0.0398 -0.0256
  647ERGO    C2 9560  15.513  12.784   8.593  0.0253  0.3135 -0.1218
  648ERGO   ROH 9561   9.215  15.431   9.800 -0.2656  0.0335  0.2163
  648ERGO    R1 9562   9.121  15.532   9.553 -0.1463  0.0409  0.1742
  648ERGO    R2 9563   9.169  15.405   9.313 -0.0457  0.0396  0.1972
  648ERGO    R3 9564   8.899  15.419   9.288 -0.0349  0.0586  0.0713
  648ERGO    R4 9565   8.993  15.344   9.021  0.0920  0.1321  0.0928
  648ERGO    R5 9566   8.863  15.512   9.071  0.0750  0.1248  0.0796
  648ERGO    C1 9567   8.637  15.323   8.829  0.1826  0.2040 -0.0861
  648ERGO    C2 9568   8.661  15.142   8.517  0.0901 -0.0311 -0.2494
  649ERGO   ROH 9569  10.950  14.228   9.807 -0.2430 -0.0845 -0.0351
  649ERGO    R1 9570  10.900  14.185   9.532 -0.1559 -0.1027 -0.0488
  649ERGO    R2 9571  11.101  14.188   9.341 -0.1087 -0.0074 -0.0018
  649ERGO    R3 9572  11.002  13.942   9.280  0.0177 -0.0524 -0.0275
  649ERGO    R4 9573  11.050  14.069   9.021 -0.0557 -0.0028 -0.0118
  649ERGO    R5 9574  10.863  13.980   9.089 -0.0057 -0.1064 -0.0185
  649ERGO    C1 9575  10.926  13.770   8.777  0.0936 -0.0423 -0.0415
  649ERGO    C2 9576  10.925  13.588   8.545  0.3568 -0.0707 -0.2755
  650ERGO   ROH 9577   5.147   3.303   9.539 -0.0608 -0.2014  0.1074
  650ERGO    R1 9578   5.228   3.285   9.269 -0.0072 -0.1289  0.1187
  650ERGO    R2 9579   5.100   3.123   9.085  0.1005 -0.1658  0.0777
  650ERGO    R3 9580   5.080   3.354   8.944  0.0148 -0.1579  0.1019
  650ERGO    R4 9581   5.026   3.142   8.748  0.2936 -0.1737  0.0335
  650ERGO    R5 9582   5.174   3.301   8.730  0.1886 -0.0576  0.1502
  650ERGO    C1 9583   4.964   3.371   8.419  0.3258 -0.1708  0.0306
  650ERGO    C2 9584   4.664   3.251   8.182 -0.1785 -0.0002  0.1306
  651ERGO   ROH 9585   0.261  18.239   9.667 -0.1503 -0.0091 -0.0189
  651ERGO    R1 9586   0.380  18.148   9.427 -0.0032  0.0374  0.0356
  651ERGO    R2 9587   0.247  17.988   9.246  0.1827 -0.1135  0.0296
  651ERGO    R3 9588   0.317  18.183   9.070  0.0724 -0.0924  0.0084
  651ERGO    R4 9589   0.178  17.983   8.907  0.1336 -0.1617  0.0400
  651ERGO    R5 9590   0.377  18.065   8.871  0.0934 -0.0780  0.0059
  651ERGO    C1 9591   0.204  18.163   8.545  0.0015 -0.1700  0.0262
  651ERGO    C2 9592   0.003  18.279   8.240  0.0769 -0.0624 -0.1710
  652ERGO   ROH 9593   3.653  11.244   9.356  0.0549 -0.0740 -0.1675
  652ERGO    R1 9594   3.545  11.237   9.095 -0.0430 -0.1800 -0.1235
  652ERGO    R2 9595   3.608  11.425   8.903 -0.2983 -0.1272 -0.1458
  652ERGO    R3 9596   3.675  11.207   8.756 -0.1528 -0.0637 -0.1797
  652ERGO    R4 9597   3.705  11.432   8.571 -0.0544  0.0299 -0.0750
  652ERGO    R5 9598   3.587  11.252   8.538 -0.0066  0.0136 -0.2320
  652ERGO    C1 9599   3.825  11.231   8.240  0.2242  0.1810 -0.0656
  652ERGO    C2 9600   3.939  11.119   7.930  0.0819 -0.3507  0.1241
  653ERGO   ROH 9601   7.370  13.965   9.848 -0.3251  0.0289  0.1836
  653ERGO    R1 9602   7.417  13.937   9.571 -0.0333  0.0881  0.2247
  653ERGO    R2 9603   7.230  13.832   9.397  0.2842 -0.2326  0.0603
  653ERGO    R3 9604   7.271  14.065   9.263  0.0238 -0.1675  0.0891
  653ERGO    R4 9605   7.167  13.880   9.061  0.3309 -0.2879  0.0435
  653ERGO    R5 9606   7.351  13.997   9.048  0.1835 -0.0468  0.1107
  653ERGO    C1 9607   7.169  14.127   8.739  0.1137 -0.2588  0.0606
  653ERGO    C2 9608   6.994  14.095   8.443  0.0246  0.0525 -0.2291
  654ERGO   ROH 9609   0.378   6.656   9.857  0.1229 -0.0083 -0.1053
  654ERGO    R1 9610   0.479   6.486   9.655  0.0979  0.0279 -0.1480
  654ERGO    R2 9611   0.323   6.299   9.525  0.0633  0.1108 -0.2198
  654ERGO    R3 9612   0.413   6.425   9.303  0.1179  0.1526 -0.1747
  654ERGO    R4 9613   0.390   6.143   9.224  0.3070  0.1294 -0.1769
  654ERGO    R5 9614   0.567   6.270   9.204  0.2554  0.2250 -0.0848
  654ERGO    C1 9615   0.515   6.172   8.839  0.5003  0.1795 -0.1098
  654ERGO    C2 9616   0.462   6.139   8.548  0.0636  0.0961  0.2304
  655ERGO   ROH 9617   6.095   5.163   9.519  0.0421  0.0390  0.1551
  655ERGO    R1 9618   6.043   5.010   9.286 -0.1909  0.2288  0.0780
  655ERGO    R2 9619   5.934   5.121   9.057  0.1271  0.5515  0.0692
  655ERGO    R3 9620   6.154   5.012   8.940 -0.0444  0.1277  0.1244
  655ERGO    R4 9621   5.956   5.031   8.724  0.0286  0.4477  0.0901
  655ERGO    R5 9622   6.065   4.853   8.784 -0.3052  0.2570  0.1392
  655ERGO    C1 9623   6.175   4.877   8.420 -0.1897 -0.0107  0.1541
  655ERGO    C2 9624   6.396   4.758   8.164  0.0062  0.0801 -0.0508
  656ERGO   ROH 9625   3.254   1.011   9.939 -0.0602 -0.0583  0.1426
  656ERGO    R1 9626   3.155   0.930   9.687 -0.0016 -0.0939  0.1315
  656ERGO    R2 9627   3.268   1.012   9.449 -0.0110 -0.0442  0.1478
  656ERGO    R3 9628   3.280   0.745   9.400  0.1009 -0.0388  0.1393
  656ERGO    R4 9629   3.251   0.868   9.135  0.0954 -0.0350  0.1367
  656ERGO    R5 9630   3.126   0.710   9.220  0.1408 -0.0893  0.1115
  656ERGO    C1 9631   3.253   0.533   8.907  0.2624 -0.0247  0.1223
  656ERGO    C2 9632   3.044   0.408   8.595  0.0551 -0.1049 -0.0590
  657ERGO   ROH 9633   4.179   2.865   9.666  0.0869 -0.1390 -0.0038
  657ERGO    R1 9634   4.243   2.862   9.390 -0.0056  0.0192 -0.0278
  657ERGO    R2 9635   4.306   2.629   9.254  0.0457  0.1110 -0.1598
  657ERGO    R3 9636   4.106   2.710   9.089 -0.0437  0.1054 -0.0552
  657ERGO    R4 9637   4.289   2.563   8.915 -0.0839  0.1770 -0.1668
  657ERGO    R5 9638   4.215   2.765   8.884 -0.1404  0.1714 -0.0922
  657ERGO    C1 9639   4.091   2.600   8.564 -0.2432  0.2103 -0.0726
  657ERGO    C2 9640   4.181   2.439   8.382 -0.1935  0.0822  0.0169
  658ERGO   ROH 9641  14.992   0.948   9.969 -0.0195 -0.1608  0.0105
  658ERGO    R1 9642  15.172   1.030   9.767  0.0171 -0.0351  0.0916
  658ERGO    R2 9643  15.186   0.906   9.520  0.2353 -0.0455  0.1021
  658ERGO    R3 9644  15.147   1.158   9.427  0.0795 -0.0813  0.0708
  658ERGO    R4 9645  15.210   1.001   9.189  0.2254 -0.0540  0.0998
  658ERGO    R5 9646  15.309   1.184   9.253  0.0881  0.0163  0.0976
  658ERGO    C1 9647  15.188   1.293   8.909  0.0734 -0.0925  0.0690
  658ERGO    C2 9648  15.274   1.451   8.744  0.0217 -0.1952 -0.3623
  659ERGO   ROH 9649   3.386  12.883   9.538  0.0719 -0.0504  0.1447
  659ERGO    R1 9650   3.195  12.835   9.334  0.0768 -0.0960  0.1508
  659ERGO    R2 9651   3.264  12.813   9.067  0.0607  0.0267  0.1363
  659ERGO    R3 9652   3.133  12.576   9.086  0.1980 -0.0551  0.0772
  659ERGO    R4 9653   3.040  12.693   8.834  0.0095  0.0282  0.1843
  659ERGO    R5 9654   2.915  12.621   8.997  0.1286 -0.1260  0.2095
  659ERGO    C1 9655   2.786  12.400   8.715  0.1085 -0.0478  0.1570
  659ERGO    C2 9656   2.669  12.333   8.393  0.0771 -0.1210 -0.0852
  660ERGO   ROH 9657  11.468   4.233  10.199 -0.1394  0.1132 -0.0310
  660ERGO    R1 9658  11.605   4.270   9.954 -0.1393  0.1527 -0.0252
  660ERGO    R2 9659  11.674   4.059   9.788  0.0716  0.1543  0.0549
  660ERGO    R3 9660  11.540   4.205   9.602 -0.0368 -0.0270 -0.0120
  660ERGO    R4 9661  11.690   4.009   9.447 -0.0316 -0.0980  0.0851
  660ERGO    R5 9662  11.693   4.224   9.420 -0.1065 -0.1174 -0.0797
  660ERGO    C1 9663  11.575   4.116   9.073 -0.1934 -0.4150  0.0398
  660ERGO    C2 9664  11.458   4.115   8.815 -0.1635  0.1973 -0.0558
  661ERGO   ROH 9665   9.645  15.295   9.492 -0.0155 -0.0074  0.0898
  661ERGO    R1 9666   9.708  15.406   9.240 -0.3637 -0.0633 -0.0237
  661ERGO    R2 9667   9.931  15.329   9.095 -0.1993  0.3795  0.0047
  661ERGO    R3 9668   9.748  15.282   8.899 -0.1320 -0.2662  0.0699
  661ERGO    R4 9669  10.006  15.283   8.761 -0.1283  0.5734 -0.0098
  661ERGO    R5 9670   9.831  15.403   8.710 -0.5724  0.0042  0.0214
  661ERGO    C1 9671   9.879  15.212   8.383 -0.0237  0.0802  0.0431
  661ERGO    C2 9672  10.025  14.981   8.071  0.0037  0.0825 -0.1734
  662ERGO   ROH 9673   5.842  12.057   9.820 -0.4438  0.0213  0.0047
  662ERGO    R1 9674   5.954  11.993   9.568 -0.2815  0.1302  0.0463
  662ERGO    R2 9675   5.870  11.775   9.419  0.0081  0.0239  0.0233
  662ERGO    R3 9676   5.835  11.962   9.225 -0.1317 -0.0192  0.0074
  662ERGO    R4 9677   5.878  11.712   9.079 -0.0976 -0.0162  0.0288
  662ERGO    R5 9678   5.987  11.899   9.052 -0.1776  0.0149 -0.0404
  662ERGO    C1 9679   5.849  11.852   8.700 -0.2905 -0.0800  0.0168
  662ERGO    C2 9680   5.872  11.788   8.237  0.1891  0.3058 -0.0269
  663ERGO   ROH 9681  17.435  15.745   9.853  0.1195 -0.2747 -0.0930
  663ERGO    R1 9682  17.365  15.758   9.579  0.0534 -0.2669 -0.0762
  663ERGO    R2 9683  17.404  15.984   9.426 -0.2094 -0.1774 -0.0194
  663ERGO    R3 9684  17.538  15.812   9.264 -0.0596  0.0061 -0.0940
  663ERGO    R4 9685  17.422  16.010   9.082 -0.3978 -0.1240 -0.0257
  663ERGO    R5 9686  17.400  15.794   9.069 -0.1262 -0.1541 -0.0326
  663ERGO    C1 9687  17.558  15.863   8.729 -0.3670  0.0793 -0.0994
  663ERGO    C2 9688  17.467  15.940   8.345  0.3593  0.1792 -0.1065
  664ERGO   ROH 9689   2.870   2.420   9.740  0.0570 -0.2082  0.0367
  664ERGO    R1 9690   2.855   2.499   9.468 -0.0762 -0.0177  0.0968
  664ERGO    R2 9691   2.877   2.319   9.260  0.1100  0.1620 -0.0446
  664ERGO    R3 9692   2.640   2.428   9.184 -0.0355 -0.0609  0.0770
  664ERGO    R4 9693   2.766   2.338   8.934  0.0460  0.3001 -0.0152
  664ERGO    R5 9694   2.690   2.539   8.977 -0.1946  0.1751  0.1614
  664ERGO    C1 9695   2.478   2.452   8.671 -0.1278  0.1713  0.1162
  664ERGO    C2 9696   2.509   2.323   8.381 -0.3314  0.0253  0.2015
  665ERGO   ROH 9697   3.728   5.088   9.587 -0.0357 -0.1336 -0.0814
  665ERGO    R1 9698   3.596   4.971   9.366  0.1672 -0.2423 -0.1466
  665ERGO    R2 9699   3.470   5.121   9.171 -0.2895 -0.3465  0.0644
  665ERGO    R3 9700   3.628   4.978   9.003  0.0103  0.2172 -0.1600
  665ERGO    R4 9701   3.393   5.049   8.842 -0.4541 -0.5017  0.1345
  665ERGO    R5 9702   3.475   4.848   8.873  0.2612 -0.2679 -0.0072
  665ERGO    C1 9703   3.497   4.872   8.493 -0.2686 -0.0629 -0.0353
  665ERGO    C2 9704   3.272   4.989   8.241  0.0724 -0.1481 -0.0876
  666ERGO   ROH 9705  11.141  17.297   9.856  0.0770 -0.0435  0.0280
  666ERGO    R1 9706  11.337  17.269   9.654  0.0684  0.1578 -0.0095
  666ERGO    R2 9707  11.302  17.105   9.434  0.2464  0.0166  0.0704
  666ERGO    R3 9708  11.360  17.332   9.296 -0.1130  0.0462 -0.0434
  666ERGO    R4 9709  11.413  17.113   9.107  0.5248 -0.0071  0.1607
  666ERGO    R5 9710  11.551  17.273   9.163  0.1438  0.3407  0.1735
  666ERGO    C1 9711  11.532  17.331   8.786  0.3493  0.0069  0.1065
  666ERGO    C2 9712  11.571  17.414   8.437 -0.1450 -0.1031  0.0718
  667ERGO   ROH 9713   7.709   1.700   9.868 -0.0198  0.1044 -0.1188
  667ERGO    R1 9714   7.767   1.836   9.627 -0.0881  0.1129 -0.1297
  667ERGO    R2 9715   7.904   1.717   9.418 -0.0073  0.1741 -0.1089
  667ERGO    R3 9716   7.687   1.795   9.275 -0.0435  0.0295 -0.1302
  667ERGO    R4 9717   7.861   1.664   9.079 -0.0304 -0.0326 -0.0756
  667ERGO    R5 9718   7.776   1.864   9.063 -0.0875 -0.0667 -0.1805
  667ERGO    C1 9719   7.633   1.706   8.747 -0.0778 -0.2886 -0.0762
  667ERGO    C2 9720   7.579   1.858   8.419 -0.0659  0.1805 -0.0784
  668ERGO   ROH 9721   5.183   3.738   9.701 -0.2703  0.1062  0.0627
  668ERGO    R1 9722   5.046   3.719   9.454 -0.0651 -0.1232 -0.0366
  668ERGO    R2 9723   5.030   3.930   9.275 -0.2860 -0.1490 -0.0386
  668ERGO    R3 9724   5.131   3.747   9.101  0.1402  0.0159  0.0199
  668ERGO    R4 9725   5.068   3.981   8.936 -0.4537 -0.1696 -0.0627
  668ERGO    R5 9726   5.001   3.776   8.902  0.0289 -0.3652  0.0216
  668ERGO    C1 9727   5.185   3.839   8.574 -0.1512 -0.0267 -0.0221
  668ERGO    C2 9728   5.314   3.863   8.326  0.0659 -0.0547 -0.2265
  669ERGO   ROH 9729   7.278   6.894   9.662  0.0364  0.1173 -0.0332
  669ERGO    R1 9730   7.163   7.017   9.435 -0.1617 -0.0022  0.0010
  669ERGO    R2 9731   7.313   7.094   9.216 -0.2882  0.2713  0.0141
  669ERGO    R3 9732   7.134   6.941   9.080 -0.0697  0.0342 -0.0165
  669ERGO    R4 9733   7.249   7.120   8.877 -0.2716  0.2152  0.0062
  669ERGO    R5 9734   7.037   7.092   8.920 -0.2506 -0.0740 -0.0196
  669ERGO    C1 9735   7.043   6.991   8.552 -0.0566 -0.0401 -0.0271
  669ERGO    C2 9736   7.267   6.766   8.322 -0.0634  0.1488  0.2416
  670ERGO   ROH 9737  13.852  16.705   9.870 -0.1034  0.1326  0.1295
  670ERGO    R1 9738  13.651  16.747   9.675 -0.0657  0.0732  0.0776
  670ERGO    R2 9739  13.703  16.741   9.404 -0.0099  0.0138  0.0894
  670ERGO    R3 9740  13.503  16.556   9.403  0.0043  0.0004  0.0907
  670ERGO    R4 9741  13.531  16.637   9.123 -0.0102  0.0054  0.0930
  670ERGO    R5 9742  13.348  16.638   9.240 -0.0053 -0.0098  0.0966
  670ERGO    C1 9743  13.243  16.404   8.958  0.0030 -0.0122  0.0963
  670ERGO    C2 9744  13.258  16.371   8.558 -0.3611  0.1961  0.2769
  671ERGO   ROH 9745  16.523  11.807   9.829  0.0783  0.0412  0.0837
  671ERGO    R1 9746  16.601  11.848   9.560  0.1081 -0.1294  0.0665
  671ERGO    R2 9747  16.573  11.654   9.366 -0.0809 -0.1749  0.1397
  671ERGO    R3 9748  16.438  11.850   9.234  0.0979 -0.0936  0.0720
  671ERGO    R4 9749  16.521  11.662   9.024 -0.4065 -0.4464  0.1762
  671ERGO    R5 9750  16.559  11.877   9.029 -0.0578 -0.4953 -0.0813
  671ERGO    C1 9751  16.365  11.850   8.701 -0.4281 -0.5281  0.1338
  671ERGO    C2 9752  16.325  11.807   8.335  0.0427  0.2622  0.1432
  672ERGO   ROH 9753   7.885  13.679   9.843 -0.0156 -0.0214 -0.0062
  672ERGO    R1 9754   7.873  13.640   9.563 -0.0571  0.0412 -0.0124
  672ERGO    R2 9755   7.639  13.576   9.431 -0.0759  0.0798  0.0086
  672ERGO    R3 9756   7.700  13.794   9.282 -0.0906  0.1092  0.0441
  672ERGO    R4 9757   7.591  13.603   9.090 -0.0149  0.1021  0.0010
  672ERGO    R5 9758   7.782  13.705   9.076 -0.0302  0.1443  0.0501
  672ERGO    C1 9759   7.621  13.824   8.752  0.0069  0.1426  0.0298
  672ERGO    C2 9760   7.398  13.750   8.543 -0.1068  0.1081 -0.1365
  673ERGO   ROH 9761   6.506   3.439   9.711  0.0248  0.0186  0.1446
  673ERGO    R1 9762   6.459   3.488   9.436 -0.1429 -0.0271  0.1648
  673ERGO    R2 9763   6.657   3.466   9.245 -0.1839  0.2484  0.0928
  673ERGO    R3 9764   6.480   3.297   9.126 -0.0054  0.0176  0.1443
  673ERGO    R4 9765   6.615   3.432   8.904 -0.2923  0.2675  0.1035
  673ERGO    R5 9766   6.400   3.420   8.936 -0.2692 -0.0457  0.2056
  673ERGO    C1 9767   6.424   3.254   8.594 -0.1879  0.0620  0.1579
  673ERGO    C2 9768   6.406   3.249   8.287 -0.1222  0.3824  0.2285
  674ERGO   ROH 9769  17.051  13.151   9.891  0.1712 -0.0584 -0.0339
  674ERGO    R1 9770  16.977  13.052   9.637 -0.0114  0.1130 -0.0507
  674ERGO    R2 9771  16.833  13.202   9.454  0.0984  0.3400  0.0430
  674ERGO    R3 9772  17.041  13.141   9.290 -0.0110  0.1703 -0.0353
  674ERGO    R4 9773  16.804  13.119   9.120 -0.0921  0.3275  0.0619
  674ERGO    R5 9774  16.957  12.967   9.149 -0.1930  0.2182  0.0140
  674ERGO    C1 9775  16.981  13.014   8.771 -0.3056  0.1609 -0.0007
  674ERGO    C2 9776  16.888  13.073   8.489 -0.1192 -0.1924  0.0609
  675PSPI    C1 9777   5.674   2.704   5.560  0.1759 -0.3225  0.0693
  675PSPI    C2 9778   5.737   2.611   5.176 -0.1123  0.3331 -0.1504
  675PSPI    C3 9779   5.398   2.498   5.355  0.1802 -0.2947  0.0354
  675PSPI   PO4 9780   5.912   2.588   5.667  0.0780 -0.2667 -0.1079
  675PSPI   GL1 9781   6.056   2.663   6.080 -0.0652  0.1721 -0.2020
  675PSPI   GL2 9782   6.090   2.903   6.214  0.1267  0.5850 -0.1396
  675PSPI   C1A 9783   6.100   2.493   6.465  0.0877 -0.4199 -0.1346
  675PSPI   C2A 9784   5.960   2.463   6.964 -0.2394  0.0183 -0.0571
  675PSPI   C3A 9785   6.123   2.556   7.401 -0.0459  0.0968  0.2316
  675PSPI   C4A 9786   6.147   2.410   7.890 -0.1016 -0.4294 -0.1808
  675PSPI   C1B 9787   6.075   2.974   6.676 -0.1163  0.1696  0.2385
  675PSPI   C2B 9788   6.141   2.989   7.083 -0.1624  0.1211  0.0230
  675PSPI   C3B 9789   6.459   2.990   7.415 -0.1322 -0.0751  0.1303
  675PSPI   C4B 9790   6.361   2.935   7.897  0.0351 -0.1534 -0.1143
  676PSPI    C1 9791   4.892   9.972   5.612  0.0207 -0.0263 -0.0781
  676PSPI    C2 9792   5.013  10.150   5.275  0.1732  0.0731  0.0278
  676PSPI    C3 9793   4.867   9.778   5.263 -0.0413  0.1610 -0.1792
  676PSPI   PO4 9794   5.157  10.033   5.825 -0.3287 -0.0051 -0.2105
  676PSPI   GL1 9795   5.223  10.215   6.216  0.2649  0.0231 -0.1539
  676PSPI   GL2 9796   5.272  10.479   6.052  0.0848 -0.0044  0.0335
  676PSPI   C1A 9797   4.944  10.433   6.470 -0.0682  0.2643  0.2275
  676PSPI   C2A 9798   4.919  10.472   6.856 -0.2282 -0.2525  0.0265
  676PSPI   C3A 9799   4.875  10.112   7.087 -0.0293  0.0442 -0.1218
  676PSPI   C4A 9800   4.969   9.881   7.429 -0.1014  0.0403  0.0571
  676PSPI   C1B 9801   5.341  10.698   6.400  0.0945  0.0986  0.1997
  676PSPI   C2B 9802   5.427  10.624   6.809 -0.1531 -0.3595 -0.3632
  676PSPI   C3B 9803   5.655  10.755   7.117  0.1409 -0.0885 -0.1462
  676PSPI   C4B 9804   5.561  10.609   7.568  0.1392 -0.0865  0.3053
  677PSPI    C1 9805  16.669   0.610   5.775  0.0066 -0.1410 -0.2123
  677PSPI    C2 9806  16.307   0.587   5.606 -0.0649 -0.3226 -0.0386
  677PSPI    C3 9807  16.635   0.538   5.383 -0.1334  0.1684 -0.2599
  677PSPI   PO4 9808  16.860   0.927   5.905 -0.3289  0.0695 -0.0366
  677PSPI   GL1 9809  17.202   1.007   6.303 -0.0583  0.0255 -0.0884
  677PSPI   GL2 9810  17.012   1.049   6.606 -0.0670  0.0293 -0.1153
  677PSPI   C1A 9811  17.274   0.709   6.696  0.2037 -0.0311  0.0140
  677PSPI   C2A 9812  17.086   0.512   7.092  0.2247  0.0898  0.4603
  677PSPI   C3A 9813  16.978   0.369   7.531  0.0851 -0.1793 -0.0453
  677PSPI   C4A 9814  16.803   0.517   7.902  0.1350 -0.0477 -0.3632
  677PSPI   C1B 9815  17.115   1.102   6.956  0.1310  0.0257  0.3204
  677PSPI   C2B 9816  17.081   0.978   7.330  0.0427 -0.0322  0.4391
  677PSPI   C3B 9817  16.911   1.010   7.767  0.2275  0.0015  0.1867
  677PSPI   C4B 9818  16.839   1.289   8.092  0.0594  0.1740  0.2377
  678PSPI    C1 9819  13.873  16.191   6.117  0.0327 -0.2320 -0.0230
  678PSPI    C2 9820  13.925  16.574   6.012 -0.3009 -0.1361  0.1463
  678PSPI    C3 9821  13.620  16.364   5.860 -0.1791 -0.3055  0.1326
  678PSPI   PO4 9822  14.060  16.037   6.110 -0.0575  0.0369  0.0535
  678PSPI   GL1 9823  14.222  15.920   6.434 -0.2636  0.4233 -0.1816
  678PSPI   GL2 9824  13.970  15.939   6.621  0.0810 -0.0735 -0.1239
  678PSPI   C1A 9825  14.362  16.137   6.885  0.4597  0.0616  0.1847
  678PSPI   C2A 9826  14.219  16.132   7.340  0.0928  0.1159  0.0389
  678PSPI   C3A 9827  14.295  15.904   7.764  0.0053 -0.2430  0.1367
  678PSPI   C4A 9828  13.990  15.761   8.040  0.1658 -0.2120 -0.1716
  678PSPI   C1B 9829  13.911  15.828   7.010  0.2442 -0.1609 -0.1631
  678PSPI   C2B 9830  14.007  15.722   7.443  0.0641 -0.0251  0.1067
  678PSPI   C3B 9831  14.129  15.408   7.723 -0.2057  0.1110  0.2868
  678PSPI   C4B 9832  14.339  15.028   7.824 -0.1424  0.2837 -0.1256
  679PSPI    C1 9833  17.092  10.422   5.587  0.1219 -0.0051 -0.0257
  679PSPI    C2 9834  16.776  10.379   5.827  0.1824  0.0327  0.0609
  679PSPI    C3 9835  16.773  10.215   5.462 -0.0492  0.2661 -0.0448
  679PSPI   PO4 9836  17.381  10.446   5.683  0.1273  0.0809  0.2704
  679PSPI   GL1 9837  17.387  10.393   6.088 -0.1183  0.1122 -0.0558
  679PSPI   GL2 9838  17.128  10.311   6.284  0.0884 -0.1080 -0.0579
  679PSPI   C1A 9839  17.565  10.420   6.538  0.0020  0.1515 -0.0073
  679PSPI   C2A 9840  17.836  10.145   6.825 -0.2667  0.0697  0.1314
  679PSPI   C3A 9841  18.053  10.013   7.117  0.0083 -0.2473 -0.0220
  679PSPI   C4A 9842  18.154  10.257   7.470 -0.0760  0.0703 -0.1242
  679PSPI   C1B 9843  17.038  10.413   6.752  0.1080  0.0714 -0.1190
  679PSPI   C2B 9844  17.076  10.441   7.202  0.2102 -0.1644  0.1692
  679PSPI   C3B 9845  17.130  10.337   7.538  0.1278  0.2432 -0.0630
  679PSPI   C4B 9846  17.285   9.985   7.707  0.1181  0.0793 -0.2549
  680PSPI    C1 9847  12.855  10.288   5.771  0.0618 -0.0539  0.0389
  680PSPI    C2 9848  12.982  10.535   5.483  0.1370 -0.0879  0.0425
  680PSPI    C3 9849  13.023  10.140   5.440 -0.3473 -0.1261 -0.1426
  680PSPI   PO4 9850  12.998  10.346   6.045  0.1269 -0.0456 -0.2253
  680PSPI   GL1 9851  12.807  10.468   6.441  0.1653 -0.2179 -0.1708
  680PSPI   GL2 9852  12.832  10.161   6.487  0.0638 -0.3577  0.0036
  680PSPI   C1A 9853  12.761  10.749   6.796  0.0003  0.3516 -0.0252
  680PSPI   C2A 9854  12.572  10.755   7.141 -0.0323  0.0345 -0.0637
  680PSPI   C3A 9855  12.790  10.760   7.485  0.1000  0.1402 -0.0229
  680PSPI   C4A 9856  13.206  10.792   7.587 -0.2050 -0.0409 -0.0894
  680PSPI   C1B 9857  12.678  10.214   6.931  0.1568 -0.5646  0.1592
  680PSPI   C2B 9858  12.548  10.280   7.385  0.1622  0.1942 -0.0614
  680PSPI   C3B 9859  12.450  10.405   7.730  0.1397 -0.2925 -0.1457
  680PSPI   C4B 9860  12.661  10.338   8.154  0.2076 -0.1114 -0.2960
  681PSPI    C1 9861   6.806   7.470   5.298  0.1088 -0.2113 -0.0821
  681PSPI    C2 9862   7.000   7.134   5.393 -0.0366 -0.3104 -0.1328
  681PSPI    C3 9863   6.668   7.117   5.170 -0.1307 -0.1472 -0.0078
  681PSPI   PO4 9864   6.892   7.591   5.551  0.0083  0.1140  0.0332
  681PSPI   GL1 9865   7.022   7.528   5.894  0.2475  0.1756  0.3004
  681PSPI   GL2 9866   6.679   7.607   5.994 -0.2279  0.0304  0.0437
  681PSPI   C1A 9867   7.132   7.837   6.247 -0.1794 -0.0926  0.1427
  681PSPI   C2A 9868   7.224   7.776   6.704  0.0801 -0.0399  0.1394
  681PSPI   C3A 9869   7.230   7.752   7.050  0.0295  0.0627  0.0012
  681PSPI   C4A 9870   7.350   7.905   7.472  0.1575 -0.0331  0.2453
  681PSPI   C1B 9871   6.840   7.489   6.396  0.2352  0.1577  0.2680
  681PSPI   C2B 9872   6.875   7.433   6.846 -0.1023  0.2805 -0.0074
  681PSPI   C3B 9873   6.819   7.402   7.299  0.3988  0.1622  0.1097
  681PSPI   C4B 9874   7.183   7.445   7.486  0.2754  0.0389 -0.2490
  682PSPI    C1 9875   7.766   3.165   5.728  0.1824  0.0995  0.1705
  682PSPI    C2 9876   8.060   3.085   5.469  0.0279 -0.1130  0.0576
  682PSPI    C3 9877   7.772   3.345   5.371  0.0014 -0.1495  0.0386
  682PSPI   PO4 9878   7.900   3.199   5.928 -0.0990  0.0534 -0.1712
  682PSPI   GL1 9879   7.908   3.482   6.235 -0.0277 -0.3625 -0.0049
  682PSPI   GL2 9880   7.822   3.813   6.211  0.1640 -0.4288  0.0248
  682PSPI   C1A 9881   7.859   3.296   6.620 -0.3340  0.3169 -0.0672
  682PSPI   C2A 9882   7.767   3.313   7.014 -0.0379  0.1593  0.3473
  682PSPI   C3A 9883   7.850   3.468   7.460 -0.0016 -0.0057 -0.3900
  682PSPI   C4A 9884   8.057   3.691   7.822  0.3055 -0.0318  0.1769
  682PSPI   C1B 9885   7.684   3.734   6.627  0.1092 -0.2874  0.1040
  682PSPI   C2B 9886   7.528   3.915   7.096 -0.0943  0.0243 -0.0386
  682PSPI   C3B 9887   7.338   3.884   7.534 -0.1894  0.1078  0.1872
  682PSPI   C4B 9888   7.468   3.581   7.872  0.1201  0.0032 -0.3452
  683PSPI    C1 9889   9.877  16.646   5.911  0.1683  0.1433  0.2548
  683PSPI    C2 9890  10.077  16.931   5.714  0.2487  0.0396  0.1858
  683PSPI    C3 9891   9.726  16.800   5.574  0.4194 -0.2051 -0.0250
  683PSPI   PO4 9892   9.875  16.784   6.178 -0.0568 -0.0223  0.0396
  683PSPI   GL1 9893  10.068  16.769   6.542  0.0001  0.0258  0.1091
  683PSPI   GL2 9894  10.341  16.691   6.482 -0.0658 -0.2453 -0.2236
  683PSPI   C1A 9895  10.071  16.528   7.007 -0.1150 -0.2013  0.0849
  683PSPI   C2A 9896  10.195  16.339   7.436  0.0960 -0.1481 -0.2500
  683PSPI   C3A 9897  10.302  16.049   7.636  0.5984 -0.3613 -0.1576
  683PSPI   C4A 9898  10.683  15.721   7.581  0.0898 -0.2044 -0.1592
  683PSPI   C1B 9899  10.582  16.564   6.892 -0.1625  0.0426 -0.0604
  683PSPI   C2B 9900  10.696  16.486   7.288  0.0206  0.0791  0.1254
  683PSPI   C3B 9901  10.668  16.367   7.669 -0.2226 -0.0116  0.1189
  683PSPI   C4B 9902  10.806  16.360   8.057  0.1286  0.1024  0.1840
  684PSPI    C1 9903   8.396   3.855   5.446 -0.1138  0.1892 -0.0248
  684PSPI    C2 9904   8.225   3.536   5.276 -0.0504  0.1538 -0.0224
  684PSPI    C3 9905   8.305   3.861   5.057  0.0420  0.1038 -0.0634
  684PSPI   PO4 9906   8.577   3.730   5.602 -0.2368  0.0860 -0.0851
  684PSPI   GL1 9907   8.925   3.754   5.898 -0.0553  0.0678  0.2000
  684PSPI   GL2 9908   8.802   3.479   6.161 -0.1418 -0.1162  0.0032
  684PSPI   C1A 9909   8.837   3.951   6.403  0.1512 -0.1313 -0.3050
  684PSPI   C2A 9910   8.801   4.025   6.747 -0.2117 -0.0725 -0.0640
  684PSPI   C3A 9911   9.039   4.022   7.117 -0.2148  0.0260  0.2966
  684PSPI   C4A 9912   9.247   3.875   7.519 -0.1238 -0.0237 -0.0807
  684PSPI   C1B 9913   8.864   3.521   6.669  0.2364  0.0180 -0.1274
  684PSPI   C2B 9914   8.741   3.609   7.073  0.1849 -0.0710 -0.0033
  684PSPI   C3B 9915   8.824   3.541   7.531 -0.1046 -0.0992  0.1943
  684PSPI   C4B 9916   8.925   3.399   7.954 -0.1382  0.0869 -0.0324
  685PSPI    C1 9917   2.189   2.592   5.655 -0.1129 -0.0811  0.1632
  685PSPI    C2 9918   2.391   2.354   5.905 -0.0464 -0.2693 -0.0658
  685PSPI    C3 9919   2.535   2.428   5.540 -0.0460  0.1589  0.0153
  685PSPI   PO4 9920   2.151   2.860   5.873 -0.1471  0.0683  0.1339
  685PSPI   GL1 9921   2.188   2.993   6.302 -0.2503  0.0348  0.0590
  685PSPI   GL2 9922   2.178   2.658   6.342  0.1791 -0.1180 -0.1183
  685PSPI   C1A 9923   2.402   3.134   6.678  0.1685 -0.1334 -0.0624
  685PSPI   C2A 9924   2.382   3.096   7.061  0.1206  0.2922  0.1682
  685PSPI   C3A 9925   2.643   2.931   7.392 -0.0449 -0.1284  0.0725
  685PSPI   C4A 9926   2.431   2.664   7.744 -0.1511 -0.0265 -0.3978
  685PSPI   C1B 9927   2.110   2.707   6.785  0.1963 -0.0937 -0.0871
  685PSPI   C2B 9928   2.246   2.519   7.211 -0.1701  0.1767  0.1340
  685PSPI   C3B 9929   2.362   2.195   7.386 -0.1149  0.0639  0.2640
  685PSPI   C4B 9930   2.411   1.807   7.672  0.0382  0.2566 -0.0599
  686PSPI    C1 9931   5.584  16.892   5.878 -0.2555  0.1653 -0.2405
  686PSPI    C2 9932   5.226  16.713   5.872 -0.1066 -0.1671  0.2125
  686PSPI    C3 9933   5.496  16.630   5.588 -0.2274 -0.2576  0.1230
  686PSPI   PO4 9934   5.500  17.140   5.904 -0.1878 -0.3138  0.3598
  686PSPI   GL1 9935   5.487  17.331   6.274  0.0542 -0.0246 -0.1971
  686PSPI   GL2 9936   5.175  17.236   6.323 -0.1502 -0.1024  0.3338
  686PSPI   C1A 9937   5.662  17.392   6.721  0.3660 -0.1722 -0.1663
  686PSPI   C2A 9938   5.761  17.434   7.050 -0.1735 -0.1614 -0.1622
  686PSPI   C3A 9939   5.763  17.602   7.437 -0.1285 -0.1290  0.1253
  686PSPI   C4A 9940   5.791  17.481   7.871  0.0219 -0.0211 -0.0880
  686PSPI   C1B 9941   5.173  17.335   6.812 -0.2049 -0.0326 -0.2285
  686PSPI   C2B 9942   5.310  17.359   7.233  0.1395  0.1303  0.2209
  686PSPI   C3B 9943   5.277  17.282   7.640  0.1645 -0.0242 -0.1434
  686PSPI   C4B 9944   4.974  17.135   7.845 -0.1951  0.2069 -0.1061
  687PSPI    C1 9945  15.426   2.107   6.070  0.0440 -0.1462  0.0266
  687PSPI    C2 9946  15.454   1.834   6.361  0.0249 -0.0818  0.0891
  687PSPI    C3 9947  15.369   1.720   5.987 -0.2804 -0.1326  0.1715
  687PSPI   PO4 9948  15.264   2.345   6.220  0.1803  0.1955  0.0255
  687PSPI   GL1 9949  15.189   2.769   6.379  0.0099  0.0722  0.0111
  687PSPI   GL2 9950  14.938   2.926   6.331 -0.1217 -0.0202 -0.1688
  687PSPI   C1A 9951  15.262   2.812   6.836  0.0862 -0.0034 -0.2078
  687PSPI   C2A 9952  15.153   2.828   7.284  0.2917  0.1012 -0.0490
  687PSPI   C3A 9953  14.962   2.772   7.674  0.3133  0.1041 -0.5291
  687PSPI   C4A 9954  14.714   2.631   8.052 -0.1106 -0.0367  0.1524
  687PSPI   C1B 9955  14.750   2.746   6.791 -0.3203  0.0871  0.0750
  687PSPI   C2B 9956  14.673   2.767   7.274  0.3270 -0.0688  0.2555
  687PSPI   C3B 9957  14.415   2.613   7.540 -0.0359 -0.2299 -0.0038
  687PSPI   C4B 9958  14.216   2.626   7.999  0.0876 -0.0254  0.1397
  688PSPI    C1 9959  16.207   7.319   5.369  0.0004  0.1305 -0.1619
  688PSPI    C2 9960  16.108   7.706   5.342 -0.0339  0.1190 -0.2033
  688PSPI    C3 9961  16.272   7.519   5.029 -0.1224  0.0707 -0.2213
  688PSPI   PO4 9962  16.244   7.333   5.677 -0.4066  0.1916  0.2413
  688PSPI   GL1 9963  16.338   7.498   6.086 -0.0620  0.0682  0.1539
  688PSPI   GL2 9964  16.169   7.731   6.157 -0.0127 -0.2304  0.0596
  688PSPI   C1A 9965  16.046   7.310   6.407  0.1029  0.2459  0.0533
  688PSPI   C2A 9966  15.977   6.850   6.504  0.2209 -0.1659 -0.0008
  688PSPI   C3A 9967  16.096   6.567   6.861  0.2289  0.0253  0.1050
  688PSPI   C4A 9968  16.354   6.276   7.047 -0.2423 -0.0864 -0.2175
  688PSPI   C1B 9969  16.124   7.802   6.517 -0.1754  0.1846 -0.1646
  688PSPI   C2B 9970  16.364   7.832   6.913  0.1093 -0.0038 -0.1152
  688PSPI   C3B 9971  16.239   7.701   7.331  0.0578 -0.1708 -0.0615
  688PSPI   C4B 9972  16.096   7.621   7.721 -0.3712 -0.0702 -0.1868
  689PSPI    C1 9973  12.172   6.766   5.699  0.2577 -0.1051  0.1511
  689PSPI    C2 9974  12.524   6.576   5.706  0.1455 -0.3231 -0.0091
  689PSPI    C3 9975  12.301   6.573   5.374 -0.0475 -0.2589  0.1178
  689PSPI   PO4 9976  12.147   6.671   6.037 -0.0426 -0.3203  0.0028
  689PSPI   GL1 9977  12.067   6.374   6.429  0.1549 -0.1650 -0.0115
  689PSPI   GL2 9978  11.703   6.554   6.351 -0.1227 -0.2391  0.1919
  689PSPI   C1A 9979  12.191   6.447   6.820 -0.1360  0.0517 -0.1180
  689PSPI   C2A 9980  11.936   6.536   7.176  0.1191  0.3350 -0.1134
  689PSPI   C3A 9981  11.975   6.568   7.571 -0.1651  0.0757  0.0456
  689PSPI   C4A 9982  12.010   6.593   8.075 -0.2576 -0.1876 -0.0311
  689PSPI   C1B 9983  11.192   6.578   6.531 -0.0076  0.2430 -0.0898
  689PSPI   C2B 9984  10.798   6.506   6.816 -0.2044 -0.2587  0.0859
  689PSPI   C3B 9985  10.466   6.311   7.093 -0.1729  0.1888 -0.5365
  689PSPI   C4B 9986  10.414   6.231   7.504  0.1525 -0.0498 -0.1841
  690PSPI    C1 9987  15.842  15.834   5.533  0.2645 -0.0260  0.0081
  690PSPI    C2 9988  15.804  16.231   5.571 -0.0305 -0.0449 -0.0677
  690PSPI    C3 9989  15.913  16.073   5.220 -0.0299 -0.0383 -0.0705
  690PSPI   PO4 9990  15.976  15.630   5.815 -0.1806 -0.0291  0.2143
  690PSPI   GL1 9991  15.842  15.313   6.130 -0.0784  0.0218 -0.0741
  690PSPI   GL2 9992  15.557  15.511   6.122 -0.1982 -0.1066  0.0159
  690PSPI   C1A 9993  15.961  15.279   6.547 -0.0009 -0.0010  0.3603
  690PSPI   C2A 9994  15.898  15.206   7.047  0.1789 -0.3237 -0.1170
  690PSPI   C3A 9995  15.899  15.352   7.446  0.0664  0.0207  0.0144
  690PSPI   C4A 9996  15.623  15.586   7.582  0.0931 -0.0222 -0.0218
  690PSPI   C1B 9997  15.461  15.134   6.333  0.2642 -0.0282 -0.0443
  690PSPI   C2B 9998  15.070  14.841   6.374 -0.0622  0.2458  0.5051
  690PSPI   C3B 9999  14.831  14.492   6.502  0.1924 -0.0682  0.3452
  690PSPI   C4B10000  14.644  14.519   6.131  0.0976 -0.0498  0.1267
  691PSPI    C110001   8.054  15.575   5.597 -0.1804  0.0866 -0.0756
  691PSPI    C210002   7.767  15.566   5.318 -0.1257 -0.1881 -0.1260
  691PSPI    C310003   8.109  15.368   5.259  0.0442  0.0713 -0.0310
  691PSPI   PO410004   8.091  15.561   5.862  0.1548 -0.1433 -0.2512
  691PSPI   GL110005   8.310  15.551   6.277  0.1916  0.0943  0.0966
  691PSPI   GL210006   8.271  15.918   6.359  0.3425 -0.2150  0.2111
  691PSPI   C1A10007   8.414  15.529   6.744  0.1451  0.4460 -0.1339
  691PSPI   C2A10008   8.365  15.340   7.043  0.1449  0.1423 -0.1532
  691PSPI   C3A10009   8.667  15.079   7.023  0.0015 -0.3871  0.2620
  691PSPI   C4A10010   8.945  14.865   7.046  0.0918  0.0504 -0.0832
  691PSPI   C1B10011   7.999  15.866   6.714  0.0526 -0.0301  0.0989
  691PSPI   C2B10012   7.826  15.464   6.856 -0.0391  0.4311 -0.1063
  691PSPI   C3B10013   7.875  15.099   7.145  0.0751 -0.0862  0.0197
  691PSPI   C4B10014   8.162  15.190   7.458  0.1760  0.3477  0.0734
  692PSPI    C110015  16.705  14.587   5.536 -0.3686 -0.0319  0.0350
  692PSPI    C210016  16.774  14.395   5.191  0.2280 -0.2587  0.2655
  692PSPI    C310017  16.973  14.732   5.276 -0.1819 -0.0031  0.2399
  692PSPI   PO410018  16.742  14.480   5.700 -0.1595  0.1240  0.0600
  692PSPI   GL110019  16.941  14.170   6.029 -0.0279 -0.0424 -0.0016
  692PSPI   GL210020  17.354  14.210   6.102 -0.0052  0.1787 -0.1730
  692PSPI   C1A10021  17.101  14.196   6.482 -0.3303 -0.1374 -0.0267
  692PSPI   C2A10022  17.116  14.097   6.790  0.1595 -0.4821 -0.1736
  692PSPI   C3A10023  16.943  14.145   7.201 -0.0343 -0.2079  0.1455
  692PSPI   C4A10024  16.961  14.205   7.688  0.0890 -0.2109  0.0595
  692PSPI   C1B10025  17.712  14.154   6.392  0.3530 -0.1123 -0.2513
  692PSPI   C2B10026  17.555  14.089   6.819 -0.0874  0.0485 -0.2697
  692PSPI   C3B10027  17.560  14.041   7.260 -0.0771  0.1148  0.2865
  692PSPI   C4B10028  17.559  14.152   7.761 -0.0294  0.2680  0.0927
  693PSPI    C110029  17.817   6.214   5.561  0.0335 -0.0961 -0.0617
  693PSPI    C210030  17.901   5.823   5.579  0.0824 -0.0846 -0.0353
  693PSPI    C310031  18.143   6.071   5.379  0.0942 -0.0557  0.0148
  693PSPI   PO410032  17.873   6.314   5.738 -0.0395 -0.0237 -0.1584
  693PSPI   GL110033  17.812   6.079   6.077 -0.0170  0.2824 -0.3443
  693PSPI   GL210034  18.040   5.981   6.258  0.0542  0.0612  0.1258
  693PSPI   C1A10035  17.558   5.950   6.479 -0.1908  0.0985 -0.0911
  693PSPI   C2A10036  17.517   5.943   6.992 -0.2552  0.2685  0.2060
  693PSPI   C3A10037  17.656   6.015   7.425  0.0306  0.2843  0.0869
  693PSPI   C4A10038  17.856   6.124   7.710 -0.2558  0.1283 -0.3380
  693PSPI   C1B10039  17.965   5.992   6.750  0.0036 -0.0811 -0.1464
  693PSPI   C2B10040  18.014   6.096   7.093  0.1776  0.0903 -0.1240
  693PSPI   C3B10041  18.263   6.206   7.426 -0.0197 -0.1075 -0.0465
  693PSPI   C4B10042  18.558   6.438   7.813  0.1196  0.1797  0.0533
  694PSPI    C110043   4.643   6.830   5.248  0.0069 -0.1351 -0.2421
  694PSPI    C210044   4.381   6.971   4.980 -0.2968  0.0015  0.1162
  694PSPI    C310045   4.589   7.225   5.209 -0.0161 -0.1132 -0.0065
  694PSPI   PO410046   4.500   6.638   5.393 -0.1145  0.3261 -0.0950
  694PSPI   GL110047   4.594   6.585   5.882 -0.1567  0.0870  0.2898
  694PSPI   GL210048   4.504   6.297   5.814  0.0687  0.0607 -0.3092
  694PSPI   C1A10049   4.457   6.445   6.364 -0.3277  0.0260  0.0127
  694PSPI   C2A10050   4.447   6.442   6.764 -0.0968  0.1689 -0.0636
  694PSPI   C3A10051   4.614   6.348   7.178  0.2165 -0.1723  0.2466
  694PSPI   C4A10052   4.805   6.154   7.419  0.0581 -0.0903  0.0815
  694PSPI   C1B10053   4.921   6.364   6.122  0.0005  0.3999 -0.1114
  694PSPI   C2B10054   4.963   6.203   6.500 -0.0187  0.1860  0.1916
  694PSPI   C3B10055   4.913   6.112   6.866 -0.1100 -0.1082 -0.0457
  694PSPI   C4B10056   4.741   5.810   7.096 -0.2932  0.0662 -0.2841
  695POPI    C110057  10.423   3.705   5.644 -0.2394  0.0438 -0.1557
  695POPI    C210058  10.417   3.399   5.387 -0.1433 -0.0137 -0.0904
  695POPI    C310059  10.596   3.743   5.286 -0.0529 -0.0567 -0.0775
  695POPI   PO410060  10.589   3.594   5.982  0.3689 -0.1456 -0.0081
  695POPI   GL110061  10.640   3.769   6.404  0.0155  0.0584 -0.0306
  695POPI   GL210062  10.953   3.971   6.527 -0.0301 -0.2566  0.1504
  695POPI   C1A10063  10.545   3.476   6.718 -0.0079 -0.1085  0.0977
  695POPI   D2A10064  10.513   3.479   7.241 -0.0544  0.1126 -0.0612
  695POPI   C3A10065  10.699   3.176   7.479 -0.0617  0.1544  0.2455
  695POPI   C4A10066  10.619   2.880   7.745 -0.3285  0.2045 -0.0088
  695POPI   C1B10067  10.706   3.900   6.914 -0.1193  0.0446  0.1761
  695POPI   C2B10068  10.629   3.987   7.253 -0.0646 -0.0120  0.0115
  695POPI   C3B10069  10.621   4.374   7.657 -0.0790  0.2023  0.0473
  695POPI   C4B10070  10.533   4.365   8.096  0.1062 -0.1426  0.2189
  696POPI    C110071   9.787   6.697   5.610 -0.1441  0.1191 -0.0455
  696POPI    C210072   9.793   6.906   5.269  0.1270  0.2467  0.0346
  696POPI    C310073   9.469   6.914   5.503 -0.0396  0.2019 -0.1922
  696POPI   PO410074  10.033   6.692   5.666 -0.0833 -0.0667  0.1233
  696POPI   GL110075  10.191   6.409   5.998  0.2301  0.2391 -0.1164
  696POPI   GL210076  10.448   6.374   6.210 -0.1017  0.0597 -0.1749
  696POPI   C1A10077   9.930   6.507   6.383 -0.3069 -0.1261  0.0679
  696POPI   D2A10078  10.040   6.900   6.653 -0.0576  0.2656  0.0903
  696POPI   C3A10079   9.739   7.043   6.902  0.1730 -0.0922  0.1217
  696POPI   C4A10080   9.411   7.088   7.183  0.3408  0.0163 -0.0703
  696POPI   C1B10081  10.326   6.480   6.613  0.3574 -0.1102  0.0063
  696POPI   C2B10082  10.130   6.639   7.034 -0.0915 -0.3773 -0.0668
  696POPI   C3B10083  10.031   6.961   7.303 -0.0448 -0.0212 -0.1964
  696POPI   C4B10084   9.808   7.377   7.375  0.0109 -0.1304 -0.0452
  697POPI    C110085   6.538   9.258   5.305  0.1594  0.0693 -0.0648
  697POPI    C210086   6.611   9.594   5.101 -0.1124  0.0792 -0.1504
  697POPI    C310087   6.252   9.536   5.268  0.0251 -0.0433  0.1091
  697POPI   PO410088   6.831   9.245   5.475  0.3472  0.0310 -0.0318
  697POPI   GL110089   7.064   9.000   5.866  0.0196  0.0590  0.0878
  697POPI   GL210090   6.711   9.130   5.924  0.2017 -0.0148 -0.0427
  697POPI   C1A10091   6.992   8.648   6.103 -0.3000 -0.1829 -0.3714
  697POPI   D2A10092   7.157   8.328   6.246  0.0601  0.1824  0.1070
  697POPI   C3A10093   7.206   8.256   6.697  0.2068  0.0336  0.1971
  697POPI   C4A10094   7.139   8.242   7.198 -0.1051  0.0122 -0.0634
  697POPI   C1B10095   6.657   8.949   6.292 -0.0036 -0.1194  0.1444
  697POPI   C2B10096   6.699   8.966   6.769 -0.1943  0.2255  0.0764
  697POPI   C3B10097   6.668   8.877   7.210  0.1886  0.1928  0.0294
  697POPI   C4B10098   6.798   8.850   7.704  0.1724  0.0629  0.0420
  698POPI    C110099   1.013   7.208   5.818 -0.1290 -0.0052 -0.0097
  698POPI    C210100   0.935   7.019   5.475  0.0480  0.1067 -0.1131
  698POPI    C310101   1.234   7.284   5.494  0.2079 -0.0897  0.1954
  698POPI   PO410102   0.734   7.208   5.925 -0.1470  0.1461  0.0101
  698POPI   GL110103   0.877   7.103   6.332  0.1205  0.1772  0.0411
  698POPI   GL210104   1.143   7.073   6.343 -0.1872 -0.1398  0.0636
  698POPI   C1A10105   0.765   7.002   6.720  0.2460  0.2747 -0.0900
  698POPI   D2A10106   0.680   7.096   7.150 -0.1247  0.1737  0.0342
  698POPI   C3A10107   1.011   6.992   7.370 -0.0319  0.0478 -0.1765
  698POPI   C4A10108   1.148   6.792   7.805  0.0182 -0.0336  0.0026
  698POPI   C1B10109   1.282   7.116   6.793  0.1991 -0.1827  0.3154
  698POPI   C2B10110   1.584   7.440   7.033 -0.0809 -0.0496  0.0680
  698POPI   C3B10111   1.913   7.502   7.335 -0.0588  0.1153  0.0365
  698POPI   C4B10112   2.003   7.148   7.636 -0.1629 -0.2777 -0.0572
  699POPI    C110113   2.019   5.483   5.732 -0.3376  0.1032  0.0875
  699POPI    C210114   2.109   5.452   5.344 -0.0077 -0.3044  0.1885
  699POPI    C310115   2.018   5.809   5.500  0.0762 -0.1003 -0.2136
  699POPI   PO410116   2.205   5.395   5.914 -0.0316  0.0006  0.0253
  699POPI   GL110117   2.365   5.580   6.284 -0.2740  0.0535 -0.0556
  699POPI   GL210118   2.224   5.294   6.402  0.1237 -0.3396  0.1381
  699POPI   C1A10119   2.693   5.516   6.547  0.2706  0.1860  0.0657
  699POPI   D2A10120   2.682   5.305   6.930  0.1075  0.1588 -0.0050
  699POPI   C3A10121   2.729   5.224   7.363  0.1064  0.1655 -0.0087
  699POPI   C4A10122   2.467   4.968   7.675  0.1057  0.2468 -0.2257
  699POPI   C1B10123   2.242   5.050   6.781 -0.1400  0.0158  0.2907
  699POPI   C2B10124   2.124   5.104   7.258 -0.0799  0.0014  0.1459
  699POPI   C3B10125   1.963   5.158   7.562  0.3073 -0.1958  0.0318
  699POPI   C4B10126   1.880   4.820   7.861 -0.1898  0.0223  0.1605
  700POPI    C110127  15.312   8.472   5.824  0.0333 -0.1085 -0.1798
  700POPI    C210128  15.242   8.739   5.534  0.4106  0.0717 -0.1112
  700POPI    C310129  15.171   8.350   5.470 -0.0511  0.1719 -0.2451
  700POPI   PO410130  15.541   8.498   5.953  0.1020 -0.1868  0.2090
  700POPI   GL110131  15.624   8.633   6.335 -0.0241 -0.1413  0.2213
  700POPI   GL210132  15.715   8.292   6.377 -0.1171  0.0208  0.2405
  700POPI   C1A10133  15.760   8.674   6.709 -0.0359  0.0414  0.0470
  700POPI   D2A10134  15.883   8.485   7.180 -0.2823  0.1231 -0.0311
  700POPI   C3A10135  15.971   8.708   7.602 -0.1446 -0.2670  0.1840
  700POPI   C4A10136  16.131   9.020   7.587 -0.0099  0.0502 -0.0371
  700POPI   C1B10137  15.755   8.045   6.682 -0.1161 -0.0173 -0.0172
  700POPI   C2B10138  15.834   8.008   7.125 -0.0932  0.2892 -0.0691
  700POPI   C3B10139  15.566   8.203   7.469  0.1255  0.1373  0.0923
  700POPI   C4B10140  15.610   8.452   7.824 -0.2601  0.0085 -0.0456
  701POPI    C110141   8.904   0.723   5.868  0.1445  0.0806 -0.0703
  701POPI    C210142   9.279   0.631   5.970  0.1015 -0.0368 -0.0168
  701POPI    C310143   9.186   0.694   5.586  0.0882 -0.4343 -0.0828
  701POPI   PO410144   8.783   0.757   6.112 -0.0733  0.1103  0.2218
  701POPI   GL110145   8.811   0.628   6.447 -0.2468 -0.0660  0.0700
  701POPI   GL210146   9.107   0.412   6.399  0.1679 -0.1721  0.0447
  701POPI   C1A10147   8.812   0.371   6.853 -0.0492 -0.1184 -0.1718
  701POPI   D2A10148   8.592   0.318   7.355  0.3572 -0.4376  0.1890
  701POPI   C3A10149   8.707   0.632   7.719  0.0349 -0.3006  0.1083
  701POPI   C4A10150   8.975   0.938   8.008  0.1763  0.0814  0.2066
  701POPI   C1B10151   9.160   0.697   6.804  0.4907 -0.0060 -0.2284
  701POPI   C2B10152   9.063   0.624   7.223 -0.1973  0.3710  0.1356
  701POPI   C3B10153   9.216   0.654   7.617 -0.0125 -0.2598  0.3708
  701POPI   C4B10154   9.380   0.682   8.065  0.0731  0.1560  0.1545
  702POPI    C110155   3.971  16.729   5.871  0.1465 -0.1006  0.0307
  702POPI    C210156   4.150  16.419   5.692  0.0113 -0.0695 -0.1610
  702POPI    C310157   4.247  16.793   5.588  0.0238 -0.0495 -0.0782
  702POPI   PO410158   4.043  16.722   6.219  0.1297 -0.1723  0.0003
  702POPI   GL110159   3.711  16.747   6.614  0.2480 -0.3166  0.1552
  702POPI   GL210160   3.573  16.390   6.638 -0.0661  0.3094 -0.3276
  702POPI   C1A10161   3.707  16.563   7.147  0.0667  0.2742 -0.1671
  702POPI   D2A10162   3.650  16.528   7.547  0.2403 -0.1523 -0.1003
  702POPI   C3A10163   3.936  16.492   7.900 -0.0597 -0.0916  0.2281
  702POPI   C4A10164   4.074  16.408   8.293  0.2387 -0.3418  0.1188
  702POPI   C1B10165   3.408  16.123   6.901  0.0640 -0.0452  0.3873
  702POPI   C2B10166   3.330  16.145   7.363  0.0174 -0.3054 -0.2326
  702POPI   C3B10167   3.201  16.346   7.748  0.1833 -0.0700 -0.2364
  702POPI   C4B10168   3.456  16.449   8.041  0.0124  0.1048  0.1427
  703POPI    C110169  13.404  12.579   5.937 -0.1602 -0.3282 -0.2966
  703POPI    C210170  13.767  12.509   5.786 -0.1123 -0.2635 -0.2129
  703POPI    C310171  13.501  12.719   5.575  0.1368  0.2917  0.0055
  703POPI   PO410172  13.349  12.417   6.063  0.0009  0.1519 -0.1728
  703POPI   GL110173  13.387  12.520   6.472 -0.1835 -0.1617 -0.2367
  703POPI   GL210174  13.409  12.834   6.388 -0.2477 -0.1106  0.2419
  703POPI   C1A10175  13.425  12.394   6.917 -0.2811 -0.0459 -0.3091
  703POPI   D2A10176  13.277  12.296   7.298  0.1056  0.1114  0.0601
  703POPI   C3A10177  12.996  12.327   7.563  0.1859 -0.1114 -0.0012
  703POPI   C4A10178  12.751  11.968   7.761 -0.0566 -0.0147  0.0884
  703POPI   C1B10179  13.647  12.869   6.813  0.0552  0.0647  0.0252
  703POPI   C2B10180  13.531  12.802   7.260  0.0765 -0.2827 -0.0841
  703POPI   C3B10181  13.347  12.615   7.711  0.2225  0.0768 -0.2992
  703POPI   C4B10182  13.333  12.906   8.049 -0.2338 -0.1813  0.1985
  704POPI    C110183   6.709  17.941   5.792 -0.2745 -0.2383 -0.2943
  704POPI    C210184   6.848  18.304   5.698 -0.0480 -0.2407  0.0146
  704POPI    C310185   6.865  18.008   5.429 -0.0520 -0.0746 -0.1713
  704POPI   PO410186   6.538  18.037   5.958 -0.0338  0.1012  0.1320
  704POPI   GL110187   6.562  18.113   6.353  0.3704 -0.0914  0.3432
  704POPI   GL210188   6.558  17.899   6.601  0.1461  0.0099 -0.1389
  704POPI   C1A10189   6.384  18.368   6.644  0.3237  0.0921  0.0393
  704POPI   D2A10190   6.166  18.618   7.011 -0.4888  0.3001 -0.0539
  704POPI   C3A10191   6.432  18.393   7.204  0.1337  0.0562 -0.1565
  704POPI   C4A10192   6.442  18.286   7.656  0.0042  0.1298 -0.4809
  704POPI   C1B10193   6.626  17.947   7.010 -0.0230 -0.0408 -0.3976
  704POPI   C2B10194   6.852  18.125   7.376  0.1237 -0.0878 -0.1789
  704POPI   C3B10195   7.240  18.259   7.507 -0.0530 -0.0927 -0.0204
  704POPI   C4B10196   7.745  18.385   7.526  0.0437  0.0727  0.3335
  705POPI    C110197   0.365   4.199   5.489  0.0991 -0.0059  0.2028
  705POPI    C210198  -0.013   4.192   5.620  0.0218 -0.0216 -0.0169
  705POPI    C310199   0.062   4.227   5.229  0.2492  0.0284  0.0299
  705POPI   PO410200   0.420   4.417   5.689 -0.1029 -0.2845  0.2081
  705POPI   GL110201   0.585   4.529   6.023  0.2981  0.1522 -0.0486
  705POPI   GL210202   0.380   4.740   6.193 -0.0637  0.3274  0.1634
  705POPI   C1A10203   0.510   4.282   6.386  0.1943 -0.3113 -0.2856
  705POPI   D2A10204   0.542   4.366   6.783 -0.0283  0.4498 -0.0359
  705POPI   C3A10205   0.460   3.943   7.029 -0.2927 -0.0228  0.0810
  705POPI   C4A10206   0.087   3.740   7.378 -0.0228 -0.0984  0.2940
  705POPI   C1B10207   0.132   4.677   6.601 -0.0113  0.0710 -0.0782
  705POPI   C2B10208   0.075   4.760   6.998 -0.2449 -0.2717  0.2962
  705POPI   C3B10209   0.212   4.788   7.447  0.2442 -0.1848 -0.0216
  705POPI   C4B10210   0.379   4.990   7.731 -0.0034 -0.3585  0.2570
  706POPI    C110211   6.178   6.974   5.288 -0.1116 -0.1526  0.0694
  706POPI    C210212   6.026   6.908   4.924 -0.1876  0.0324  0.0664
  706POPI    C310213   6.339   6.694   5.052 -0.1724 -0.0467 -0.0999
  706POPI   PO410214   5.983   6.870   5.436 -0.0050 -0.2119 -0.0861
  706POPI   GL110215   5.754   6.854   5.862  0.2419  0.1216 -0.4350
  706POPI   GL210216   5.623   7.101   5.985 -0.1974  0.3962 -0.2659
  706POPI   C1A10217   5.928   6.759   6.186 -0.0914 -0.1282 -0.1414
  706POPI   D2A10218   6.134   7.039   6.464 -0.0575 -0.0462  0.0131
  706POPI   C3A10219   5.833   6.839   6.802  0.0301 -0.0851 -0.0540
  706POPI   C4A10220   5.690   6.744   7.189 -0.2145 -0.0099 -0.0229
  706POPI   C1B10221   5.499   6.957   6.374 -0.0541  0.3202  0.1779
  706POPI   C2B10222   5.353   6.914   6.804 -0.1205  0.3171  0.1811
  706POPI   C3B10223   5.179   6.946   7.213  0.0619  0.1024  0.0463
  706POPI   C4B10224   5.457   7.002   7.575 -0.3637 -0.2827  0.0989
  707POPI    C110225   4.343  11.663   5.708  0.0859 -0.0962  0.0178
  707POPI    C210226   4.720  11.787   5.761  0.1587 -0.2506 -0.1290
  707POPI    C310227   4.608  11.630   5.410 -0.0941 -0.0258 -0.1525
  707POPI   PO410228   4.301  11.486   5.975 -0.0656 -0.0437 -0.0169
  707POPI   GL110229   4.482  11.153   6.185  0.0990  0.0709 -0.1145
  707POPI   GL210230   4.423  11.322   6.401  0.0525 -0.2700 -0.0437
  707POPI   C1A10231   4.160  10.908   6.366 -0.1233  0.1775  0.0363
  707POPI   D2A10232   3.826  11.029   6.617  0.3711  0.0703 -0.1563
  707POPI   C3A10233   3.788  11.231   6.984  0.0261 -0.1152 -0.0394
  707POPI   C4A10234   3.682  11.396   7.430  0.0092 -0.0932 -0.3473
  707POPI   C1B10235   4.324  11.336   6.813  0.0094  0.0615 -0.1838
  707POPI   C2B10236   4.210  11.275   7.248  0.0142 -0.1559 -0.1558
  707POPI   C3B10237   4.294  11.454   7.715  0.1182  0.2384  0.0314
  707POPI   C4B10238   4.568  11.731   7.814 -0.1594  0.2891 -0.2128
  708POPI    C110239   9.024   4.408   5.440 -0.1040  0.1234  0.2676
  708POPI    C210240   9.377   4.593   5.410 -0.0177 -0.0991 -0.1686
  708POPI    C310241   9.352   4.239   5.595 -0.0855  0.0898  0.1922
  708POPI   PO410242   8.899   4.528   5.534 -0.1848  0.0918 -0.1353
  708POPI   GL110243   8.943   4.756   5.857  0.1344  0.1089 -0.0089
  708POPI   GL210244   9.243   4.667   5.894  0.0039 -0.1949 -0.0523
  708POPI   C1A10245   8.927   5.120   6.219 -0.2765  0.1600  0.0010
  708POPI   D2A10246   8.965   5.164   6.597 -0.0798 -0.0474  0.0217
  708POPI   C3A10247   8.962   5.630   6.712  0.1292 -0.3356 -0.2417
  708POPI   C4A10248   9.139   5.783   7.051  0.0173 -0.0628 -0.1555
  708POPI   C1B10249   9.345   4.759   6.282  0.2002 -0.4307 -0.3180
  708POPI   C2B10250   9.322   4.843   6.773  0.4067  0.0741 -0.3952
  708POPI   C3B10251   9.263   4.948   7.225  0.1110  0.1485  0.3085
  708POPI   C4B10252   9.279   4.842   7.611 -0.3850 -0.0435 -0.0420
  709POPI    C110253  13.290  13.149   5.509  0.2587  0.2818  0.2018
  709POPI    C210254  13.494  13.474   5.623  0.1293  0.4684 -0.0848
  709POPI    C310255  13.644  13.232   5.342  0.1030  0.4271 -0.0634
  709POPI   PO410256  13.038  13.271   5.653 -0.0637  0.1911  0.1666
  709POPI   GL110257  12.938  13.421   6.000 -0.3118  0.2129  0.1193
  709POPI   GL210258  13.045  13.256   6.266 -0.1439  0.1547  0.4292
  709POPI   C1A10259  12.630  13.727   6.165 -0.1096 -0.1591  0.0704
  709POPI   D2A10260  12.271  13.879   6.408  0.1652  0.1344  0.3408
  709POPI   C3A10261  11.987  13.724   6.790  0.2770 -0.3202 -0.2566
  709POPI   C4A10262  12.273  13.556   7.098 -0.3758 -0.3666  0.2465
  709POPI   C1B10263  13.176  13.152   6.659  0.3903  0.1283 -0.1161
  709POPI   C2B10264  13.159  12.867   6.946  0.0428 -0.0039 -0.0498
  709POPI   C3B10265  13.025  12.755   7.349  0.0842  0.2043  0.4095
  709POPI   C4B10266  12.851  12.775   7.761  0.0987  0.4106  0.2101
  710POPI    C110267  16.323   4.777   5.471  0.0123 -0.0281 -0.0701
  710POPI    C210268  16.386   4.941   5.111  0.1027 -0.0013 -0.0423
  710POPI    C310269  16.335   4.545   5.144  0.2592 -0.0241 -0.0659
  710POPI   PO410270  16.535   4.839   5.587 -0.0178 -0.1501  0.1058
  710POPI   GL110271  16.653   4.927   6.031 -0.1965  0.0256  0.0910
  710POPI   GL210272  16.962   4.864   6.035  0.1970  0.0890  0.1016
  710POPI   C1A10273  16.670   4.938   6.530  0.0967  0.1399 -0.0781
  710POPI   D2A10274  16.940   4.990   6.905  0.0883 -0.0661  0.3977
  710POPI   C3A10275  16.618   5.071   7.289  0.1489  0.2721  0.0903
  710POPI   C4A10276  16.290   5.259   7.338  0.1088  0.0675  0.0207
  710POPI   C1B10277  17.161   5.037   6.397 -0.2239  0.0327  0.0648
  710POPI   C2B10278  17.445   5.018   6.721 -0.0767 -0.0503  0.1937
  710POPI   C3B10279  17.723   4.858   7.046  0.1048  0.1190  0.0816
  710POPI   C4B10280  18.005   4.659   7.340  0.0901  0.0726  0.1810
  711POPI    C110281  13.779   8.157   5.498  0.0050  0.0888  0.1367
  711POPI    C210282  13.391   8.101   5.578  0.0220 -0.2002  0.0287
  711POPI    C310283  13.569   7.885   5.293  0.2790 -0.1153  0.1222
  711POPI   PO410284  13.899   8.135   5.767  0.2833  0.2764 -0.1301
  711POPI   GL110285  13.865   8.254   6.142  0.1128  0.0839 -0.0046
  711POPI   GL210286  13.917   8.535   6.211 -0.2864  0.2205  0.2397
  711POPI   C1A10287  13.897   8.136   6.568  0.2239  0.2746  0.0267
  711POPI   D2A10288  13.764   8.000   6.978 -0.1886  0.2928  0.1029
  711POPI   C3A10289  13.581   8.266   7.332  0.0616  0.0150 -0.0093
  711POPI   C4A10290  13.715   8.632   7.548 -0.0522  0.1105 -0.2201
  711POPI   C1B10291  14.102   8.674   6.544 -0.0125 -0.1100 -0.2171
  711POPI   C2B10292  14.438   8.831   6.752 -0.1546 -0.0537 -0.0565
  711POPI   C3B10293  14.536   8.780   7.137  0.0235  0.0413 -0.1018
  711POPI   C4B10294  14.741   8.702   7.482 -0.2468  0.0926 -0.0627
  712POPI    C110295  15.021   9.249   5.991 -0.0041 -0.0721  0.1604
  712POPI    C210296  14.957   9.198   5.599 -0.0846 -0.1758  0.1865
  712POPI    C310297  14.836   8.920   5.860 -0.0517 -0.0965  0.2873
  712POPI   PO410298  15.353   9.232   5.952 -0.2149 -0.0506  0.1673
  712POPI   GL110299  15.523   9.235   6.381  0.4561 -0.0864  0.1948
  712POPI   GL210300  15.221   9.384   6.441 -0.0520  0.0677  0.1965
  712POPI   C1A10301  15.610   9.148   6.805  0.0393 -0.1468  0.0373
  712POPI   D2A10302  15.726   9.020   7.175  0.1751 -0.1269 -0.0854
  712POPI   C3A10303  15.554   9.158   7.623  0.1169  0.0196  0.0331
  712POPI   C4A10304  15.353   9.344   7.985 -0.2370  0.1396 -0.1739
  712POPI   C1B10305  15.133   9.535   6.892 -0.1138 -0.1644  0.0746
  712POPI   C2B10306  14.899   9.673   7.230 -0.0285  0.0448  0.1102
  712POPI   C3B10307  14.547   9.824   7.328  0.2846  0.4260 -0.0226
  712POPI   C4B10308  14.321  10.199   7.257  0.0576 -0.0225 -0.0488
  713POPI    C110309  10.767  10.709   5.428  0.0896 -0.0195  0.1119
  713POPI    C210310  11.152  10.795   5.362  0.0551  0.0889  0.0481
  713POPI    C310311  10.866  11.025   5.204 -0.0359  0.0246  0.1180
  713POPI   PO410312  10.696  10.685   5.738  0.0482  0.0138  0.1227
  713POPI   GL110313  10.705  11.000   6.141  0.1726 -0.1015  0.3001
  713POPI   GL210314  10.501  11.121   6.433 -0.2890  0.0054  0.1933
  713POPI   C1A10315  10.831  10.753   6.481 -0.0361 -0.0331  0.0909
  713POPI   D2A10316  10.982  10.701   6.857  0.1075 -0.0647  0.2400
  713POPI   C3A10317  11.090  10.336   7.133 -0.2131  0.1854 -0.2691
  713POPI   C4A10318  11.091  10.270   7.543 -0.1258  0.1481  0.1011
  713POPI   C1B10319  10.553  10.951   6.887  0.1687  0.0088 -0.0222
  713POPI   C2B10320  10.439  10.854   7.333 -0.3320  0.2933 -0.2840
  713POPI   C3B10321  10.175  10.530   7.524 -0.1002  0.0812 -0.1060
  713POPI   C4B10322   9.796  10.296   7.659  0.0057  0.0417 -0.0633
  714POPI    C110323  17.787  11.770   5.714  0.0187  0.2062  0.0924
  714POPI    C210324  17.633  12.044   5.467  0.0949  0.0196 -0.1664
  714POPI    C310325  17.827  11.727   5.318  0.2102 -0.0558  0.1373
  714POPI   PO410326  17.489  11.737   5.882  0.2270  0.0312 -0.1612
  714POPI   GL110327  17.428  11.699   6.349 -0.1217 -0.0516 -0.1033
  714POPI   GL210328  17.446  11.794   6.582 -0.0016  0.0020  0.1751
  714POPI   C1A10329  17.308  11.324   6.615  0.2103 -0.0326 -0.2176
  714POPI   D2A10330  17.298  11.244   7.055  0.0831  0.3295 -0.3073
  714POPI   C3A10331  17.148  11.428   7.423 -0.3724 -0.2430 -0.2659
  714POPI   C4A10332  16.935  11.476   7.706 -0.0569 -0.0744 -0.0328
  714POPI   C1B10333  17.469  11.731   6.971  0.0727 -0.1852  0.0612
  714POPI   C2B10334  17.631  11.598   7.313  0.0082 -0.0532  0.3651
  714POPI   C3B10335  17.515  11.598   7.735  0.2451  0.1039  0.0494
  714POPI   C4B10336  17.291  11.620   8.029 -0.2556 -0.0590 -0.1141
  715POPI    C110337  16.904   6.520   5.419  0.1252  0.2287  0.0448
  715POPI    C210338  17.033   6.894   5.361 -0.2230  0.3534  0.0538
  715POPI    C310339  16.846   6.699   5.066  0.0923  0.1281 -0.0012
  715POPI   PO410340  16.849   6.573   5.716  0.2659 -0.1619  0.0588
  715POPI   GL110341  17.160   6.577   6.020  0.0379 -0.1767  0.0914
  715POPI   GL210342  17.394   6.330   6.130  0.0550  0.2669 -0.1223
  715POPI   C1A10343  16.877   6.420   6.389  0.0094 -0.0391  0.1490
  715POPI   D2A10344  16.781   6.277   6.680  0.1739  0.1538 -0.0072
  715POPI   C3A10345  17.087   6.344   7.092  0.0623  0.2193 -0.1103
  715POPI   C4A10346  17.256   6.218   7.525  0.0380 -0.1000  0.2493
  715POPI   C1B10347  17.326   6.333   6.659 -0.1600  0.3083  0.0095
  715POPI   C2B10348  17.614   6.493   6.995  0.0068  0.2344 -0.0316
  715POPI   C3B10349  17.386   6.713   7.397 -0.2796  0.1883 -0.3002
  715POPI   C4B10350  17.062   6.815   7.669 -0.1838  0.2697 -0.0737
  716POPI    C110351  11.487   3.483   5.748 -0.2810  0.1489 -0.2286
  716POPI    C210352  11.327   3.264   5.454  0.0090 -0.0641 -0.2315
  716POPI    C310353  11.509   3.610   5.369  0.1774 -0.1720 -0.3184
  716POPI   PO410354  11.610   3.357   5.951  0.0477  0.1032 -0.1746
  716POPI   GL110355  11.838   3.503   6.355 -0.1978  0.0005 -0.0500
  716POPI   GL210356  12.012   3.427   6.575 -0.0586 -0.2232  0.2556
  716POPI   C1A10357  11.735   3.648   6.898 -0.2675  0.3592  0.1737
  716POPI   D2A10358  11.525   3.854   7.200 -0.1528 -0.1296 -0.3719
  716POPI   C3A10359  11.417   3.880   7.642 -0.1126 -0.2232  0.1383
  716POPI   C4A10360  11.221   3.580   7.872 -0.1380  0.3142 -0.0394
  716POPI   C1B10361  12.158   3.365   7.035 -0.1698  0.2627 -0.1025
  716POPI   C2B10362  11.867   3.446   7.393 -0.0654  0.1045  0.1382
  716POPI   C3B10363  11.702   3.528   7.752  0.1327 -0.0185 -0.0504
  716POPI   C4B10364  11.663   3.446   8.114 -0.1011  0.0367  0.0901
  717POPI    C110365   7.741  15.111   5.545 -0.0916  0.2733 -0.0053
  717POPI    C210366   7.657  14.765   5.363  0.2357  0.0849  0.1915
  717POPI    C310367   7.737  15.092   5.146  0.1872 -0.0275  0.0023
  717POPI   PO410368   7.957  15.036   5.782 -0.0153 -0.1399  0.0816
  717POPI   GL110369   7.971  15.212   6.202 -0.1752 -0.0349 -0.1364
  717POPI   GL210370   7.615  15.092   6.286  0.1144  0.3285  0.0125
  717POPI   C1A10371   8.113  15.079   6.587 -0.1185  0.3340  0.2342
  717POPI   D2A10372   8.135  14.743   6.822 -0.0783 -0.0335  0.0766
  717POPI   C3A10373   8.221  14.735   7.280  0.1104 -0.0660  0.0012
  717POPI   C4A10374   8.586  14.887   7.465 -0.0032  0.3066 -0.1673
  717POPI   C1B10375   7.440  15.287   6.650  0.0381 -0.0363  0.1435
  717POPI   C2B10376   7.424  15.263   7.205  0.1464  0.1430 -0.0326
  717POPI   C3B10377   7.196  15.133   7.530  0.2663  0.0726 -0.3870
  717POPI   C4B10378   6.943  15.104   7.894 -0.1730 -0.0631 -0.3424
  718POPI    C110379   1.889  17.804   5.645  0.1106 -0.4669 -0.0116
  718POPI    C210380   1.883  17.750   5.249  0.3191 -0.4137 -0.0233
  718POPI    C310381   2.046  17.472   5.486  0.2629 -0.4104  0.0192
  718POPI   PO410382   1.807  18.064   5.690 -0.1165  0.3070 -0.2241
  718POPI   GL110383   1.811  18.267   6.230 -0.0949  0.2647  0.2836
  718POPI   GL210384   1.523  18.280   6.086 -0.0481  0.0818 -0.0566
  718POPI   C1A10385   1.835  18.247   6.641  0.0603 -0.1658 -0.0501
  718POPI   D2A10386   1.993  18.355   7.063  0.1679  0.0602 -0.0179
  718POPI   C3A10387   1.892  18.273   7.422  0.2766 -0.1283 -0.2473
  718POPI   C4A10388   1.699  18.592   7.739  0.1164 -0.0458 -0.1058
  718POPI   C1B10389   1.361  18.202   6.502  0.0074 -0.2346 -0.0300
  718POPI   C2B10390   1.126  18.076   6.893  0.0468 -0.1707 -0.1455
  718POPI   C3B10391   0.974  18.027   7.267  0.1965 -0.1527 -0.0848
  718POPI   C4B10392   0.739  17.975   7.543 -0.0705 -0.1095  0.0050
  719POPI    C110393  10.842   8.500   5.671  0.1036  0.2265  0.0724
  719POPI    C210394  10.582   8.609   5.387  0.1333  0.1865  0.0296
  719POPI    C310395  10.899   8.384   5.292  0.0805  0.0754  0.1145
  719POPI   PO410396  10.666   8.365   5.849  0.0920  0.2375  0.2353
  719POPI   GL110397  10.727   8.316   6.331 -0.1335  0.0135  0.0428
  719POPI   GL210398  10.622   7.960   6.174 -0.0718 -0.3301  0.2341
  719POPI   C1A10399  10.660   8.364   6.782  0.2199  0.0395 -0.0005
  719POPI   D2A10400  10.800   8.527   7.083  0.2042  0.0090  0.0096
  719POPI   C3A10401  10.634   8.466   7.418  0.2168  0.1944 -0.1429
  719POPI   C4A10402  10.475   8.173   7.779 -0.1433 -0.4042 -0.0731
  719POPI   C1B10403  10.396   7.896   6.555  0.2483 -0.2698 -0.1383
  719POPI   C2B10404  10.149   7.959   6.857 -0.2818 -0.0404 -0.1320
  719POPI   C3B10405   9.982   7.834   7.193  0.0463 -0.0443  0.1649
  719POPI   C4B10406   9.985   7.827   7.674 -0.1559  0.0827 -0.0790
  720POPI    C110407   9.292   8.846   5.387 -0.1534 -0.0116  0.1972
  720POPI    C210408   9.588   8.761   5.133 -0.0858  0.2916  0.1705
  720POPI    C310409   9.257   8.537   5.136 -0.1425  0.3601 -0.2752
  720POPI   PO410410   9.499   8.841   5.628 -0.0574  0.0306 -0.0212
  720POPI   GL110411   9.738   8.806   5.882 -0.4707 -0.0178 -0.0051
  720POPI   GL210412   9.791   8.558   5.960 -0.1615  0.2033 -0.0160
  720POPI   C1A10413   9.818   8.914   6.317  0.1196  0.1735  0.0036
  720POPI   D2A10414   9.940   8.748   6.635  0.0222 -0.0167 -0.0901
  720POPI   C3A10415   9.972   8.856   7.055  0.0512 -0.2065 -0.0448
  720POPI   C4A10416   9.927   8.829   7.544  0.0904  0.2597  0.1517
  720POPI   C1B10417   9.777   8.329   6.345 -0.0519 -0.0724  0.1547
  720POPI   C2B10418   9.735   8.198   6.733  0.2456 -0.2006  0.0602
  720POPI   C3B10419   9.682   8.357   7.109  0.2298  0.0122 -0.1776
  720POPI   C4B10420   9.484   8.423   7.551 -0.1961 -0.0439 -0.3984
  721POPI    C110421  17.591  13.857   5.702 -0.0334  0.1482 -0.0547
  721POPI    C210422  17.467  13.789   5.328  0.0233  0.0298 -0.0521
  721POPI    C310423  17.742  14.070   5.399  0.0561  0.0117 -0.1068
  721POPI   PO410424  17.424  13.761   5.814  0.0505 -0.1916 -0.1939
  721POPI   GL110425  17.099  13.751   6.184 -0.0551  0.0399  0.2291
  721POPI   GL210426  17.346  13.436   6.191  0.0871 -0.1157 -0.3401
  721POPI   C1A10427  17.022  13.641   6.611 -0.0975  0.2612 -0.0360
  721POPI   D2A10428  16.948  13.654   7.047 -0.2173 -0.1750  0.0475
  721POPI   C3A10429  16.978  13.319   7.285 -0.3301 -0.1993  0.0620
  721POPI   C4A10430  16.645  13.234   7.488 -0.1028 -0.2466 -0.3459
  721POPI   C1B10431  17.413  13.333   6.646  0.0315 -0.1094  0.0707
  721POPI   C2B10432  17.473  13.592   7.019  0.1068  0.0864 -0.0616
  721POPI   C3B10433  17.328  13.737   7.511  0.2494  0.1051  0.2581
  721POPI   C4B10434  17.222  13.882   7.984  0.1613  0.0821 -0.0931
  722POPI    C110435  16.154  16.591   5.814  0.0459  0.0533 -0.0130
  722POPI    C210436  16.198  16.954   5.652 -0.1330  0.0495 -0.0734
  722POPI    C310437  15.871  16.739   5.572 -0.0798 -0.0791  0.0516
  722POPI   PO410438  16.246  16.640   6.133 -0.0759 -0.1560 -0.0272
  722POPI   GL110439  16.557  16.698   6.411 -0.0907  0.1643  0.0764
  722POPI   GL210440  16.853  16.711   6.296 -0.0203  0.4844  0.0830
  722POPI   C1A10441  16.526  16.546   6.801 -0.3058  0.1035  0.2962
  722POPI   D2A10442  16.711  16.454   7.205  0.0577 -0.0645 -0.0177
  722POPI   C3A10443  16.625  16.725   7.611  0.2171 -0.0197  0.2533
  722POPI   C4A10444  16.457  16.969   7.895 -0.3711 -0.2803 -0.0880
  722POPI   C1B10445  17.038  16.733   6.718  0.0429 -0.1162  0.2241
  722POPI   C2B10446  17.185  16.818   7.118 -0.0325 -0.1015  0.1246
  722POPI   C3B10447  17.120  16.630   7.527  0.4283 -0.0628 -0.1145
  722POPI   C4B10448  17.218  16.921   7.985  0.1510  0.4340 -0.0703
  723POPI    C110449   5.307   5.282   5.745  0.1309  0.0377  0.1606
  723POPI    C210450   5.327   5.215   5.351  0.2344  0.0696  0.1601
  723POPI    C310451   5.146   4.950   5.591  0.2951 -0.0191  0.1086
  723POPI   PO410452   5.303   5.591   5.763 -0.1234  0.3967  0.1347
  723POPI   GL110453   5.051   5.509   6.121  0.1910 -0.0563  0.1228
  723POPI   GL210454   5.029   5.112   6.170 -0.0649  0.1541 -0.0524
  723POPI   C1A10455   4.614   5.421   6.090 -0.2501  0.0253 -0.0656
  723POPI   D2A10456   4.342   5.280   6.350 -0.2926 -0.2117 -0.1647
  723POPI   C3A10457   3.921   5.242   6.228 -0.1101 -0.1281  0.1004
  723POPI   C4A10458   3.701   4.829   6.431 -0.1523 -0.2844 -0.0097
  723POPI   C1B10459   4.734   4.902   6.422  0.2049  0.1125  0.0386
  723POPI   C2B10460   4.638   4.902   6.851 -0.2307 -0.2198 -0.1464
  723POPI   C3B10461   4.923   4.933   7.182  0.0554 -0.4761 -0.1739
  723POPI   C4B10462   5.183   5.055   7.621 -0.1781  0.2200 -0.2280
  724POPI    C110463  16.866  15.165   5.604  0.1674  0.3473 -0.0333
  724POPI    C210464  16.572  15.157   5.332  0.0851 -0.2354  0.0597
  724POPI    C310465  16.953  15.195   5.214  0.0338 -0.2762 -0.1211
  724POPI   PO410466  16.788  15.019   5.787 -0.1467  0.1377 -0.1292
  724POPI   GL110467  16.775  14.911   6.187 -0.0760  0.1587 -0.0831
  724POPI   GL210468  16.946  14.607   6.331 -0.3298  0.0970  0.0083
  724POPI   C1A10469  17.045  15.035   6.595  0.1519 -0.0401  0.0381
  724POPI   D2A10470  17.055  15.026   6.899  0.2576 -0.1806  0.2622
  724POPI   C3A10471  17.321  15.004   7.209 -0.3447 -0.1658  0.0699
  724POPI   C4A10472  17.387  15.085   7.628  0.0929 -0.1848 -0.0510
  724POPI   C1B10473  16.825  14.561   6.810  0.1024 -0.1990 -0.0205
  724POPI   C2B10474  16.901  14.693   7.215  0.0428  0.4205 -0.2821
  724POPI   C3B10475  16.836  15.054   7.426  0.1538  0.1508 -0.0733
  724POPI   C4B10476  16.750  15.432   7.073 -0.0656 -0.3269 -0.0434
  725POPI    C110477  17.224   1.959   5.680 -0.0842  0.0614 -0.0022
  725POPI    C210478  17.377   2.318   5.770  0.1089 -0.0864  0.2737
  725POPI    C310479  17.413   2.172   5.400  0.0338  0.1749  0.1614
  725POPI   PO410480  17.138   1.801   5.867  0.1317  0.0689  0.1450
  725POPI   GL110481  17.317   1.779   6.213 -0.0358 -0.0948 -0.1225
  725POPI   GL210482  17.283   2.096   6.209 -0.0225 -0.0069 -0.0244
  725POPI   C1A10483  17.265   1.580   6.656 -0.0444  0.0347  0.3146
  725POPI   D2A10484  17.044   1.645   7.105 -0.2623 -0.0042 -0.1969
  725POPI   C3A10485  16.845   2.013   7.210  0.0779  0.0555 -0.0337
  725POPI   C4A10486  16.431   2.068   7.365  0.1505 -0.0268  0.3298
  725POPI   C1B10487  17.092   2.050   6.612 -0.1356 -0.2842  0.1692
  725POPI   C2B10488  16.709   1.877   6.724 -0.2238  0.2635 -0.0561
  725POPI   C3B10489  16.443   1.694   7.082 -0.1261 -0.0476  0.2507
  725POPI   C4B10490  16.174   1.673   7.524 -0.0337  0.0058 -0.4320
  726POPI    C110491   1.159  12.833   5.831  0.3971  0.0480  0.1419
  726POPI    C210492   1.295  13.026   5.507  0.2193 -0.1969 -0.0833
  726POPI    C310493   1.026  12.733   5.467 -0.0905  0.0212  0.3215
  726POPI   PO410494   1.396  12.756   5.972 -0.2551 -0.2534 -0.2189
  726POPI   GL110495   1.551  12.562   6.368  0.2328  0.2383  0.0639
  726POPI   GL210496   1.738  12.768   6.527 -0.0040 -0.1141 -0.2489
  726POPI   C1A10497   1.631  12.287   6.772  0.0534 -0.1982  0.1495
  726POPI   D2A10498   1.652  12.292   7.159  0.1625  0.1051  0.1264
  726POPI   C3A10499   1.650  11.952   7.470  0.0801  0.0131 -0.1488
  726POPI   C4A10500   1.853  12.036   7.894  0.4487 -0.0392 -0.2899
  726POPI   C1B10501   1.589  12.898   6.929  0.1619 -0.0273 -0.1450
  726POPI   C2B10502   1.364  12.981   7.264 -0.0591 -0.3346  0.0495
  726POPI   C3B10503   1.037  12.992   7.502 -0.4463  0.0353 -0.1534
  726POPI   C4B10504   1.099  12.840   7.933  0.0616  0.1986  0.0406
  727POPI    C110505   0.843   3.690   5.745  0.1659  0.1039  0.0640
  727POPI    C210506   0.752   3.546   5.384 -0.2522 -0.0515  0.2253
  727POPI    C310507   0.745   3.941   5.450  0.0723 -0.0048  0.0021
  727POPI   PO410508   0.699   3.535   5.880 -0.0656 -0.0181  0.0857
  727POPI   GL110509   0.720   3.761   6.268  0.0623  0.0594  0.2871
  727POPI   GL210510   0.985   3.634   6.367  0.1228 -0.0392  0.2798
  727POPI   C1A10511   0.322   3.766   6.538  0.0016  0.3783 -0.5168
  727POPI   D2A10512   0.011   3.650   6.889  0.0768  0.2014 -0.0283
  727POPI   C3A10513  -0.323   3.814   7.029  0.0401 -0.0192 -0.0876
  727POPI   C4A10514  -0.400   3.942   7.473 -0.2062  0.1369  0.0124
  727POPI   C1B10515   0.928   3.548   6.820  0.0601 -0.0920 -0.1923
  727POPI   C2B10516   1.035   3.524   7.242  0.0399  0.0212 -0.0459
  727POPI   C3B10517   0.999   3.527   7.712  0.1841  0.3364 -0.0611
  727POPI   C4B10518   1.004   3.239   8.124  0.1089  0.1943  0.0761
  728POPI    C110519   6.018   3.089   5.488  0.1145  0.0450  0.0160
  728POPI    C210520   5.731   3.359   5.420  0.0958  0.0605  0.1536
  728POPI    C310521   5.862   3.127   5.122 -0.0584  0.0543  0.0894
  728POPI   PO410522   5.974   3.079   5.802 -0.2643 -0.3129  0.4204
  728POPI   GL110523   5.563   2.940   5.994  0.0352  0.1114 -0.1387
  728POPI   GL210524   5.569   3.195   6.214 -0.1331 -0.0507 -0.3163
  728POPI   C1A10525   5.185   2.792   6.207 -0.2672  0.1090  0.1063
  728POPI   D2A10526   4.896   2.907   6.457  0.2071  0.2929 -0.0950
  728POPI   C3A10527   4.762   2.608   6.767 -0.1658 -0.1398  0.0104
  728POPI   C4A10528   4.400   2.543   6.915  0.2126 -0.2216  0.1501
  728POPI   C1B10529   5.481   3.301   6.732 -0.1236  0.2544 -0.0500
  728POPI   C2B10530   5.556   3.144   7.252 -0.0873 -0.0387  0.3166
  728POPI   C3B10531   5.620   2.672   7.422 -0.0698  0.0209 -0.0926
  728POPI   C4B10532   5.576   2.380   7.817  0.1623  0.3224 -0.2894
  729POPI    C110533   9.187   6.471   5.291 -0.1551 -0.0708  0.0048
  729POPI    C210534   8.945   6.788   5.321 -0.1178 -0.0496  0.0837
  729POPI    C310535   9.264   6.803   5.080 -0.3731 -0.1918 -0.2710
  729POPI   PO410536   9.247   6.430   5.558 -0.0222  0.4349  0.0324
  729POPI   GL110537   9.414   6.531   5.940  0.0807 -0.3299 -0.1320
  729POPI   GL210538   9.379   6.190   6.108 -0.2592  0.1611 -0.1702
  729POPI   C1A10539   9.480   6.858   6.302 -0.1470  0.3955  0.1418
  729POPI   D2A10540   9.270   7.108   6.713  0.0888  0.1682 -0.2031
  729POPI   C3A10541   8.866   7.080   6.887  0.2604 -0.0070  0.0180
  729POPI   C4A10542   8.533   6.870   7.084 -0.1951 -0.1842 -0.1609
  729POPI   C1B10543   9.485   6.343   6.449  0.1832 -0.1405 -0.0570
  729POPI   C2B10544   9.538   6.604   6.801  0.0640  0.2588 -0.2706
  729POPI   C3B10545   9.630   6.575   7.205 -0.0102 -0.2498 -0.2736
  729POPI   C4B10546   9.957   6.550   7.590  0.1125  0.2891  0.0194
  730POPI    C110547   2.594   6.793   5.323  0.0363 -0.0518  0.1232
  730POPI    C210548   2.823   6.726   5.002 -0.0322 -0.0421  0.0723
  730POPI    C310549   2.619   7.069   5.034 -0.1806 -0.1256  0.0321
  730POPI   PO410550   2.734   6.859   5.610  0.2337 -0.0083  0.1254
  730POPI   GL110551   2.723   6.771   6.049  0.1852 -0.1881 -0.0869
  730POPI   GL210552   2.390   6.915   6.203  0.0344 -0.0450  0.1182
  730POPI   C1A10553   2.995   6.803   6.379  0.0713 -0.1104  0.3284
  730POPI   D2A10554   3.010   6.742   6.771 -0.0060  0.1627  0.2466
  730POPI   C3A10555   3.256   6.752   7.094 -0.0492  0.0408 -0.0311
  730POPI   C4A10556   3.250   6.689   7.542  0.1300 -0.2287  0.0084
  730POPI   C1B10557   2.100   6.992   6.533 -0.2267 -0.1425  0.0800
  730POPI   C2B10558   1.818   7.058   6.876  0.0709 -0.0012  0.1266
  730POPI   C3B10559   1.641   7.009   7.289 -0.2408 -0.0523  0.3061
  730POPI   C4B10560   1.519   7.089   7.665  0.1327 -0.2847 -0.2955
  731POPI    C110561   8.325  11.832   5.953  0.0236 -0.2147  0.1903
  731POPI    C210562   8.128  11.739   5.617  0.2765 -0.3598  0.0794
  731POPI    C310563   8.417  12.015   5.609  0.0004 -0.0575  0.2666
  731POPI   PO410564   8.178  12.002   6.153 -0.1019  0.1587  0.1231
  731POPI   GL110565   7.988  12.125   6.503  0.1897 -0.2284 -0.2099
  731POPI   GL210566   7.883  12.413   6.274 -0.0351 -0.0566 -0.0978
  731POPI   C1A10567   8.190  12.298   6.893 -0.0585 -0.0081 -0.0172
  731POPI   D2A10568   8.392  12.241   7.252 -0.0057 -0.1927 -0.1554
  731POPI   C3A10569   8.218  12.096   7.577 -0.1240  0.2015 -0.0991
  731POPI   C4A10570   7.796  12.030   7.852 -0.4915 -0.1208  0.1112
  731POPI   C1B10571   7.886  12.686   6.564  0.0966  0.0431  0.0723
  731POPI   C2B10572   7.993  12.775   6.954  0.1199 -0.0334  0.1189
  731POPI   C3B10573   8.182  12.753   7.363  0.4955 -0.1927  0.0082
  731POPI   C4B10574   8.333  12.610   7.759  0.1915  0.1005 -0.1142
  732POPI    C110575  14.158  11.819   5.663 -0.1450  0.0641  0.3661
  732POPI    C210576  13.872  11.853   5.385  0.1142 -0.0353  0.0811
  732POPI    C310577  13.896  11.522   5.608 -0.1952  0.1124  0.3431
  732POPI   PO410578  14.162  12.101   5.767 -0.1475 -0.1233 -0.0185
  732POPI   GL110579  14.086  12.239   6.110 -0.0438  0.2677  0.0684
  732POPI   GL210580  14.213  12.057   6.258  0.1161  0.3265 -0.1784
  732POPI   C1A10581  14.301  12.471   6.473 -0.0667 -0.0083 -0.0047
  732POPI   D2A10582  14.288  12.705   6.873  0.1512 -0.1950 -0.0481
  732POPI   C3A10583  13.997  12.687   7.170  0.0922 -0.0302  0.0746
  732POPI   C4A10584  13.848  12.627   7.645  0.1669  0.1856 -0.1286
  732POPI   C1B10585  14.271  12.017   6.687 -0.1564  0.0199 -0.1016
  732POPI   C2B10586  14.350  12.271   7.123  0.4315  0.1243  0.0579
  732POPI   C3B10587  14.362  12.490   7.453 -0.2930  0.0437  0.2721
  732POPI   C4B10588  14.468  12.640   7.815  0.0611  0.0786  0.0503
  733POPI    C110589   5.351   4.468   5.559  0.0462 -0.0056  0.0199
  733POPI    C210590   5.606   4.329   5.284  0.2235 -0.1794  0.2680
  733POPI    C310591   5.550   4.723   5.323  0.3343 -0.1465  0.1065
  733POPI   PO410592   5.360   4.237   5.719 -0.1358 -0.0952  0.2632
  733POPI   GL110593   5.358   4.287   6.105  0.2294  0.1756 -0.0955
  733POPI   GL210594   5.313   3.925   6.244 -0.2144  0.0159  0.1080
  733POPI   C1A10595   5.456   4.324   6.475  0.0403 -0.1016  0.2562
  733POPI   D2A10596   5.585   4.176   6.885 -0.2067  0.1189  0.0574
  733POPI   C3A10597   5.396   4.069   7.362  0.0417 -0.0028  0.2583
  733POPI   C4A10598   5.137   3.983   7.766  0.1471 -0.1992 -0.1554
  733POPI   C1B10599   5.188   3.917   6.675 -0.0071 -0.2261 -0.1264
  733POPI   C2B10600   5.000   3.997   7.118 -0.0612  0.1693  0.1928
  733POPI   C3B10601   4.721   4.220   7.452 -0.0616 -0.1661  0.2971
  733POPI   C4B10602   4.338   4.329   7.735  0.0974 -0.0779 -0.1760
  734POPI    C110603  14.954   1.999   5.974 -0.0152 -0.0727  0.0679
  734POPI    C210604  14.936   1.721   5.687  0.0277 -0.0509  0.0440
  734POPI    C310605  14.701   2.044   5.667  0.3264  0.1578 -0.1869
  734POPI   PO410606  14.923   1.875   6.235 -0.2438  0.1570  0.2098
  734POPI   GL110607  14.845   1.778   6.686  0.0722 -0.0339 -0.3194
  734POPI   GL210608  15.139   1.737   6.811  0.0267 -0.4819  0.1956
  734POPI   C1A10609  14.383   1.686   6.930  0.0209 -0.1245 -0.2663
  734POPI   D2A10610  14.371   1.497   7.245 -0.0010  0.2547  0.0270
  734POPI   C3A10611  14.626   1.662   7.619  0.1309 -0.0430 -0.1459
  734POPI   C4A10612  14.906   1.707   8.003  0.1661 -0.0843 -0.1233
  734POPI   C1B10613  14.947   1.655   7.205 -0.0271  0.1879 -0.0939
  734POPI   C2B10614  15.176   1.785   7.616  0.2212  0.0346  0.0811
  734POPI   C3B10615  15.561   1.821   7.943 -0.1071  0.4849  0.1099
  734POPI   C4B10616  15.620   2.132   8.215 -0.2198  0.0075  0.0442
  735POPI    C110617   5.957  13.945   5.237  0.0583 -0.0480 -0.0894
  735POPI    C210618   5.879  14.323   5.342 -0.0157 -0.0594 -0.1029
  735POPI    C310619   6.227  14.231   5.166  0.0702 -0.0252  0.0470
  735POPI   PO410620   5.855  13.833   5.543  0.0658  0.0126  0.1966
  735POPI   GL110621   5.714  14.150   5.981 -0.1765 -0.1129  0.1504
  735POPI   GL210622   5.534  13.970   6.118 -0.0623  0.2711  0.1347
  735POPI   C1A10623   5.758  14.324   6.328 -0.1903  0.0539 -0.1197
  735POPI   D2A10624   5.556  14.506   6.697  0.0872  0.1507 -0.0013
  735POPI   C3A10625   5.825  14.652   7.006 -0.0303 -0.2773  0.0920
  735POPI   C4A10626   5.951  14.957   7.356  0.1026  0.1330  0.1450
  735POPI   C1B10627   5.687  13.675   6.450  0.0476  0.2497 -0.0526
  735POPI   C2B10628   5.589  13.671   6.909  0.3401  0.2070 -0.2549
  735POPI   C3B10629   5.514  13.527   7.239 -0.0428  0.0243  0.2488
  735POPI   C4B10630   5.840  13.534   7.491 -0.3680  0.0105  0.0544
  736POPI    C110631   0.865  17.756   5.405 -0.1377  0.0430  0.1042
  736POPI    C210632   0.997  17.380   5.437 -0.1001  0.0530  0.0658
  736POPI    C310633   0.983  17.557   5.079 -0.0366  0.1174  0.0949
  736POPI   PO410634   0.915  17.803   5.672 -0.1611  0.1236  0.0358
  736POPI   GL110635   0.998  18.023   5.967 -0.1209 -0.0649 -0.0421
  736POPI   GL210636   0.999  17.680   6.138  0.0703 -0.1444  0.2385
  736POPI   C1A10637   0.882  18.263   6.311 -0.0709  0.0331  0.1387
  736POPI   D2A10638   0.733  18.461   6.717 -0.1211 -0.0887 -0.0077
  736POPI   C3A10639   0.984  18.520   7.017 -0.0809 -0.0017  0.3414
  736POPI   C4A10640   0.914  18.705   7.397  0.2241 -0.0815  0.2199
  736POPI   C1B10641   1.056  17.666   6.621  0.2018  0.0941  0.0819
  736POPI   C2B10642   1.102  17.603   7.010 -0.0719  0.1290  0.0613
  736POPI   C3B10643   0.977  17.442   7.451  0.3026 -0.0324 -0.0133
  736POPI   C4B10644   1.072  17.295   7.885 -0.3494  0.0154 -0.3627
  737POPI    C110645  11.259  14.038   5.935  0.0257 -0.1739 -0.0494
  737POPI    C210646  11.413  13.806   5.648  0.0500 -0.1074 -0.0904
  737POPI    C310647  11.201  14.131   5.550  0.1398 -0.0310 -0.0329
  737POPI   PO410648  11.460  14.095   6.167 -0.3233  0.1958  0.2016
  737POPI   GL110649  11.637  13.797   6.472 -0.0856 -0.4684  0.0467
  737POPI   GL210650  11.404  13.716   6.559  0.3311 -0.0056  0.1159
  737POPI   C1A10651  11.642  14.051   6.899 -0.0841  0.1293 -0.0091
  737POPI   D2A10652  11.752  14.044   7.319 -0.0971  0.0105  0.1897
  737POPI   C3A10653  12.082  14.035   7.426 -0.1245  0.0255 -0.1668
  737POPI   C4A10654  12.248  13.668   7.695  0.2359 -0.2914  0.1392
  737POPI   C1B10655  11.280  13.774   6.943 -0.0140  0.1358 -0.0950
  737POPI   C2B10656  10.871  13.909   7.216 -0.1301 -0.0777 -0.2332
  737POPI   C3B10657  10.847  13.851   7.668  0.0115 -0.1847 -0.3247
  737POPI   C4B10658  10.899  13.997   8.141 -0.1943 -0.1510 -0.1370
  738POPI    C110659  15.606  10.568   5.612 -0.2176  0.1776  0.0009
  738POPI    C210660  15.725  10.705   5.256 -0.0156  0.0417  0.0141
  738POPI    C310661  15.357  10.555   5.300 -0.0350  0.0417 -0.1417
  738POPI   PO410662  15.884  10.681   5.715 -0.1705  0.0521 -0.1804
  738POPI   GL110663  16.267  10.526   5.828  0.2250 -0.1017  0.1499
  738POPI   GL210664  16.130  10.432   6.081 -0.0476 -0.0391  0.0543
  738POPI   C1A10665  16.438  10.849   6.117  0.2491  0.3653  0.0333
  738POPI   D2A10666  16.644  10.642   6.414 -0.1193  0.0324  0.2833
  738POPI   C3A10667  16.560  10.657   6.948 -0.1971 -0.0204 -0.3669
  738POPI   C4A10668  16.202  10.488   7.250 -0.0129  0.2772  0.2171
  738POPI   C1B10669  16.160  10.615   6.516  0.1973  0.1114  0.0769
  738POPI   C2B10670  15.937  10.716   6.792  0.2221  0.1789  0.0919
  738POPI   C3B10671  15.814  10.879   7.219 -0.0155 -0.0080  0.0371
  738POPI   C4B10672  15.497  10.992   7.506  0.0523  0.1442  0.2037
  739POPI    C110673   6.120   4.467   5.712  0.0458 -0.1094 -0.0797
  739POPI    C210674   6.392   4.487   5.419  0.1032 -0.0016 -0.0198
  739POPI    C310675   6.482   4.622   5.785 -0.0657  0.1316 -0.0263
  739POPI   PO410676   5.946   4.608   5.624  0.3740 -0.0888 -0.0522
  739POPI   GL110677   5.831   4.810   5.981 -0.0585 -0.2618 -0.0353
  739POPI   GL210678   5.508   4.810   5.912 -0.0270  0.0134 -0.0424
  739POPI   C1A10679   5.901   4.433   6.212  0.2468 -0.2090 -0.0054
  739POPI   D2A10680   6.049   4.175   6.526 -0.0277 -0.2122 -0.1274
  739POPI   C3A10681   5.711   3.770   6.540 -0.0017  0.2238 -0.2364
  739POPI   C4A10682   5.513   3.718   7.003  0.3405  0.1469  0.2051
  739POPI   C1B10683   5.412   4.819   6.295 -0.1369 -0.0001 -0.3066
  739POPI   C2B10684   5.423   4.935   6.672  0.0133 -0.2269  0.0278
  739POPI   C3B10685   5.542   4.957   7.164 -0.1310 -0.1074 -0.0415
  739POPI   C4B10686   5.655   4.595   7.440  0.1032  0.1274 -0.0438
  740POPI    C110687  12.329   1.960   5.944 -0.0588  0.1546  0.0144
  740POPI    C210688  12.552   1.747   6.198 -0.0409  0.3200  0.1389
  740POPI    C310689  12.724   2.022   5.965 -0.0643  0.2022 -0.0191
  740POPI   PO410690  12.105   2.037   6.007  0.1355  0.1249  0.1932
  740POPI   GL110691  11.974   2.066   6.360  0.3625  0.0323 -0.2489
  740POPI   GL210692  12.001   1.827   6.445 -0.0567 -0.1418 -0.0277
  740POPI   C1A10693  12.273   2.148   6.792 -0.0458 -0.1286 -0.0578
  740POPI   D2A10694  12.543   2.031   7.145 -0.0118  0.1913  0.0179
  740POPI   C3A10695  12.520   2.294   7.457  0.0980 -0.0209  0.0048
  740POPI   C4A10696  12.543   2.358   7.903  0.1581  0.0004 -0.0082
  740POPI   C1B10697  11.988   1.677   6.857 -0.2330  0.1404  0.0171
  740POPI   C2B10698  12.102   1.804   7.261  0.3201  0.0121  0.0225
  740POPI   C3B10699  12.177   2.063   7.663  0.3451 -0.0199  0.0469
  740POPI   C4B10700  12.175   2.075   8.071  0.2787 -0.3194 -0.0785
  741POPI    C110701   9.872   7.601   5.380  0.0337  0.0205  0.1019
  741POPI    C210702   9.917   7.712   5.762  0.2345 -0.0635  0.1042
  741POPI    C310703   9.877   7.989   5.476  0.0440 -0.0011  0.1900
  741POPI   PO410704   9.648   7.418   5.404 -0.2357 -0.2386  0.0338
  741POPI   GL110705   9.437   7.352   5.715 -0.0292  0.1557 -0.1709
  741POPI   GL210706   9.201   7.495   5.840 -0.1198 -0.2389 -0.0874
  741POPI   C1A10707   9.542   7.396   6.167 -0.1939 -0.2438  0.0091
  741POPI   D2A10708   9.668   7.330   6.517  0.3029  0.0461 -0.0757
  741POPI   C3A10709   9.523   7.562   6.850 -0.1508  0.2782  0.0303
  741POPI   C4A10710   9.349   7.932   6.899  0.0248 -0.2379  0.2404
  741POPI   C1B10711   9.082   7.599   6.263 -0.2726  0.2285  0.0721
  741POPI   C2B10712   9.019   7.616   6.663  0.0299 -0.1656  0.0527
  741POPI   C3B10713   9.046   7.521   7.064  0.0898  0.2285  0.1717
  741POPI   C4B10714   9.093   7.630   7.512  0.1280  0.0020 -0.4314
  742POPS   CNO10715  18.131  10.689   5.282  0.1728 -0.3261  0.0365
  742POPS   PO410716  18.076  10.953   5.579 -0.1019  0.2194  0.0248
  742POPS   GL110717  18.227  10.967   5.953 -0.2722  0.1966  0.0624
  742POPS   GL210718  18.298  11.256   6.082  0.4705  0.0673  0.1344
  742POPS   C1A10719  17.922  10.825   6.304 -0.1945 -0.0389  0.0156
  742POPS   D2A10720  17.965  10.710   6.733 -0.0993 -0.1048  0.0535
  742POPS   C3A10721  18.213  10.455   6.889 -0.0781 -0.0339 -0.0352
  742POPS   C4A10722  18.513  10.510   7.193 -0.0914 -0.4972  0.2012
  742POPS   C1B10723  18.301  11.109   6.521 -0.1894 -0.1014  0.0411
  742POPS   C2B10724  18.361  11.058   6.967 -0.0818 -0.0527 -0.1068
  742POPS   C3B10725  18.247  11.034   7.405 -0.1680 -0.2248 -0.0964
  742POPS   C4B10726  18.476  11.034   7.803  0.0164 -0.0294 -0.2312
  743POPS   CNO10727  14.882  10.691   5.096  0.1949 -0.2743 -0.1716
  743POPS   PO410728  14.892  10.804   5.466  0.0281 -0.0445  0.0264
  743POPS   GL110729  14.886  10.915   5.859  0.1238  0.1326 -0.1243
  743POPS   GL210730  14.993  11.248   5.894  0.1967 -0.1342  0.0260
  743POPS   C1A10731  14.893  10.765   6.221 -0.1424  0.2374 -0.2237
  743POPS   D2A10732  15.144  10.554   6.449  0.0083  0.1518  0.0325
  743POPS   C3A10733  15.036  10.627   6.783  0.0674  0.2336  0.0138
  743POPS   C4A10734  14.952  10.882   7.112 -0.1180  0.0975  0.2492
  743POPS   C1B10735  15.421  11.458   6.036 -0.1629  0.3302  0.0144
  743POPS   C2B10736  15.822  11.254   6.176 -0.1773 -0.2323 -0.0718
  743POPS   C3B10737  16.097  11.086   6.494  0.0546  0.1763  0.0705
  743POPS   C4B10738  16.421  11.077   6.704  0.1436 -0.1839  0.0120
  744POPS   CNO10739   8.358  10.946   5.834  0.0678  0.1698 -0.2605
  744POPS   PO410740   8.734  10.948   5.821 -0.2500 -0.0382 -0.0230
  744POPS   GL110741   8.857  11.291   6.115  0.1027 -0.0361  0.2315
  744POPS   GL210742   8.631  11.451   6.276  0.0313 -0.0607 -0.3637
  744POPS   C1A10743   9.156  11.294   6.525 -0.0404 -0.1116 -0.0949
  744POPS   D2A10744   9.239  10.901   6.717 -0.2780  0.0339  0.0027
  744POPS   C3A10745   9.657  10.928   6.911 -0.1813  0.0366 -0.1009
  744POPS   C4A10746  10.016  11.085   7.081 -0.0806  0.1330 -0.2500
  744POPS   C1B10747   8.759  11.628   6.614 -0.3531  0.0219  0.0282
  744POPS   C2B10748   8.975  11.644   7.010 -0.3007 -0.1570 -0.1410
  744POPS   C3B10749   9.238  11.651   7.298  0.1720 -0.2945  0.1222
  744POPS   C4B10750   9.488  11.601   7.661  0.2120 -0.0124  0.0804
  745POPS   CNO10751  15.616  17.784   5.814 -0.0097 -0.2696  0.2468
  745POPS   PO410752  15.678  17.908   6.295  0.1350 -0.0659  0.1884
  745POPS   GL110753  15.542  17.947   6.711  0.2745 -0.0599  0.3208
  745POPS   GL210754  15.636  17.674   6.875 -0.3582  0.1380 -0.2952
  745POPS   C1A10755  15.209  17.780   6.911  0.0691 -0.1599 -0.0724
  745POPS   D2A10756  14.947  17.723   7.172 -0.3013  0.0219  0.0148
  745POPS   C3A10757  15.084  17.786   7.627 -0.1171  0.0629 -0.2285
  745POPS   C4A10758  15.286  17.851   8.070  0.1639  0.0012  0.3240
  745POPS   C1B10759  15.512  17.730   7.337 -0.0417 -0.0238  0.1623
  745POPS   C2B10760  15.535  17.548   7.796 -0.0136 -0.1856 -0.1015
  745POPS   C3B10761  15.694  17.428   8.123  0.1618  0.0218  0.3762
  745POPS   C4B10762  15.694  17.385   8.522 -0.1682 -0.2353 -0.0250
  746POPS   CNO10763   4.187   8.021   5.755 -0.0823 -0.0039 -0.1748
  746POPS   PO410764   3.703   8.170   5.737 -0.1394 -0.1467 -0.2162
  746POPS   GL110765   3.857   8.240   6.147  0.1545 -0.0037  0.0821
  746POPS   GL210766   3.789   8.082   6.339  0.0850  0.1239 -0.0060
  746POPS   C1A10767   4.050   8.410   6.587 -0.1611 -0.0842 -0.2088
  746POPS   D2A10768   4.002   8.429   6.986 -0.3101  0.1433  0.0184
  746POPS   C3A10769   4.148   8.244   7.389  0.3335 -0.1538 -0.1554
  746POPS   C4A10770   4.121   8.272   7.768 -0.1693  0.0517  0.1011
  746POPS   C1B10771   3.623   8.104   6.815  0.0156  0.0418 -0.0318
  746POPS   C2B10772   3.646   8.100   7.227  0.2376  0.0923 -0.3612
  746POPS   C3B10773   3.635   8.313   7.549  0.2375 -0.1280 -0.1558
  746POPS   C4B10774   3.653   8.387   8.012 -0.1160 -0.2323 -0.0485
  747POPS   CNO10775   3.395   8.883   5.248 -0.2491 -0.0626 -0.2351
  747POPS   PO410776   3.206   9.142   5.597  0.1224 -0.1616 -0.0099
  747POPS   GL110777   3.010   9.254   5.984  0.0453 -0.1341 -0.2197
  747POPS   GL210778   3.202   9.508   6.060  0.0687 -0.0455 -0.0331
  747POPS   C1A10779   3.067   8.982   6.326  0.0917  0.0002  0.0047
  747POPS   D2A10780   2.892   8.964   6.666 -0.0854  0.1833 -0.0036
  747POPS   C3A10781   2.860   9.223   6.935  0.2910 -0.2076  0.1541
  747POPS   C4A10782   2.667   9.381   7.308  0.1529  0.0701 -0.1676
  747POPS   C1B10783   3.435   9.870   6.195  0.3848  0.0423 -0.0118
  747POPS   C2B10784   3.774  10.086   6.339  0.0975 -0.2334 -0.0584
  747POPS   C3B10785   3.802  10.541   6.399  0.1574 -0.2327 -0.2858
  747POPS   C4B10786   3.441  10.721   6.450 -0.1176 -0.0035  0.1872
  748POPS   CNO10787  10.981   8.926   5.305 -0.0566 -0.0785  0.1012
  748POPS   PO410788  10.872   9.013   5.656  0.1920 -0.2973 -0.0295
  748POPS   GL110789  10.708   9.300   5.943  0.1889  0.3458  0.0594
  748POPS   GL210790  10.978   9.327   6.149  0.0766 -0.1307 -0.1139
  748POPS   C1A10791  10.371   9.197   6.372  0.1948 -0.1522 -0.1780
  748POPS   D2A10792  10.114   9.206   6.750 -0.0892 -0.0945 -0.1901
  748POPS   C3A10793  10.199   9.341   7.199 -0.0783  0.3219  0.1418
  748POPS   C4A10794  10.203   9.217   7.616  0.1472 -0.0217  0.1618
  748POPS   C1B10795  10.813   9.370   6.583 -0.1506 -0.1364 -0.0415
  748POPS   C2B10796  10.704   9.394   6.982 -0.1373 -0.1582 -0.2019
  748POPS   C3B10797  10.755   9.304   7.441 -0.3562  0.1006  0.0995
  748POPS   C4B10798  10.705   9.132   7.844  0.2842 -0.4069 -0.1796
  749POPS   CNO10799  15.443   7.021   5.293  0.0523  0.0497  0.3096
  749POPS   PO410800  15.482   6.855   5.659  0.0411  0.0201 -0.1875
  749POPS   GL110801  15.446   6.793   6.085 -0.0315  0.0241  0.0054
  749POPS   GL210802  15.103   6.737   6.229 -0.0483  0.2511 -0.2206
  749POPS   C1A10803  15.512   7.091   6.438  0.1239  0.3938  0.0287
  749POPS   D2A10804  15.795   7.115   6.857 -0.1919  0.1920  0.0784
  749POPS   C3A10805  15.899   6.876   7.196  0.0027  0.1920  0.0700
  749POPS   C4A10806  16.260   6.733   7.374  0.1041  0.1379 -0.2636
  749POPS   C1B10807  15.111   6.830   6.634  0.1278  0.2119 -0.2600
  749POPS   C2B10808  15.149   6.918   7.098 -0.0091 -0.2031 -0.0654
  749POPS   C3B10809  15.446   6.981   7.348  0.0933 -0.1388  0.1931
  749POPS   C4B10810  15.550   7.069   7.926  0.1390 -0.0520  0.0972
  750POPS   CNO10811   6.777  14.813   5.838 -0.0298  0.0061  0.1333
  750POPS   PO410812   6.430  14.719   6.056  0.3340 -0.0064 -0.1446
  750POPS   GL110813   6.285  14.229   6.193  0.2218  0.0298  0.3054
  750POPS   GL210814   6.573  14.167   6.364  0.2833 -0.0744 -0.1253
  750POPS   C1A10815   6.102  14.013   6.529  0.0884  0.1197 -0.0082
  750POPS   D2A10816   5.784  14.101   6.823 -0.2471 -0.1316  0.1591
  750POPS   C3A10817   5.837  13.984   7.255 -0.0514 -0.1101 -0.0925
  750POPS   C4A10818   5.971  13.912   7.759 -0.2339 -0.2150  0.2342
  750POPS   C1B10819   6.650  14.546   6.625  0.1013  0.0919 -0.1590
  750POPS   C2B10820   6.777  14.570   7.083 -0.0015 -0.0484 -0.0063
  750POPS   C3B10821   6.811  14.590   7.487 -0.0362 -0.0547  0.0353
  750POPS   C4B10822   6.872  14.627   7.933 -0.0075  0.1236 -0.2608
  751POPS   CNO10823  14.993   4.375   5.317 -0.1035  0.2700 -0.1555
  751POPS   PO410824  14.651   4.427   5.619  0.2863  0.0250  0.1270
  751POPS   GL110825  14.930   4.482   6.033 -0.0604 -0.1657  0.0150
  751POPS   GL210826  14.935   4.784   6.043  0.0125  0.3308 -0.0857
  751POPS   C1A10827  15.169   4.445   6.404 -0.0705 -0.1166  0.1097
  751POPS   D2A10828  15.428   4.316   6.628  0.2258 -0.1270 -0.0162
  751POPS   C3A10829  15.295   4.396   7.076 -0.0830 -0.0858  0.0901
  751POPS   C4A10830  15.338   4.362   7.587  0.3951  0.0061 -0.2950
  751POPS   C1B10831  14.837   4.966   6.437  0.0302  0.0299  0.0729
  751POPS   C2B10832  14.885   5.139   6.854 -0.0008 -0.0031  0.0644
  751POPS   C3B10833  14.997   5.220   7.251 -0.0927 -0.2175  0.2371
  751POPS   C4B10834  14.820   5.354   7.706  0.0849 -0.1580  0.0025
  752POPS   CNO10835   6.269  17.227   5.871  0.0021  0.1406 -0.1222
  752POPS   PO410836   6.332  17.123   6.265 -0.4612 -0.1806  0.0462
  752POPS   GL110837   6.179  17.143   6.657  0.2561  0.0234  0.1294
  752POPS   GL210838   6.103  17.416   6.609  0.2002  0.2844  0.2850
  752POPS   C1A10839   6.205  17.219   7.097 -0.2519 -0.1436 -0.1809
  752POPS   D2A10840   6.159  17.316   7.472  0.1018  0.3536  0.0105
  752POPS   C3A10841   6.260  17.184   7.838  0.2026 -0.1323 -0.2592
  752POPS   C4A10842   6.319  17.172   8.342  0.0772  0.2592  0.2834
  752POPS   C1B10843   6.183  17.743   6.946 -0.3058  0.0054  0.0311
  752POPS   C2B10844   6.275  17.776   7.360 -0.1318  0.0339  0.2844
  752POPS   C3B10845   6.195  17.869   7.769  0.2580 -0.0498 -0.3213
  752POPS   C4B10846   6.124  17.735   8.177 -0.0851  0.2198 -0.1470
  753POPS   CNO10847   8.146  16.426   6.387  0.2938 -0.0110  0.0917
  753POPS   PO410848   7.847  16.227   6.198 -0.2528 -0.0760  0.0338
  753POPS   GL110849   7.656  16.374   6.515 -0.0279 -0.0034 -0.1300
  753POPS   GL210850   7.323  16.323   6.422  0.1094  0.1523 -0.0113
  753POPS   C1A10851   7.809  16.274   6.985  0.0196  0.1411  0.2034
  753POPS   D2A10852   7.776  16.170   7.368 -0.0277 -0.1034  0.0048
  753POPS   C3A10853   8.049  16.074   7.648 -0.2052 -0.2426  0.1043
  753POPS   C4A10854   8.188  15.961   8.005  0.2114  0.0095  0.1247
  753POPS   C1B10855   7.285  16.300   6.873  0.1335  0.0805  0.0948
  753POPS   C2B10856   7.347  16.385   7.271 -0.0185  0.4359  0.0678
  753POPS   C3B10857   7.484  16.480   7.635  0.1598  0.1050  0.0177
  753POPS   C4B10858   7.369  16.535   8.022  0.0133  0.0705  0.1845
  754POPS   CNO10859   3.959  14.263   5.359 -0.0226 -0.4300 -0.0521
  754POPS   PO410860   4.352  14.236   5.664  0.3360  0.0893  0.2168
  754POPS   GL110861   4.639  13.878   5.890  0.1065 -0.0916  0.0480
  754POPS   GL210862   4.906  13.689   5.753  0.0036  0.0448  0.0017
  754POPS   C1A10863   4.757  13.681   6.344 -0.0287  0.3793  0.2586
  754POPS   D2A10864   4.721  13.340   6.662  0.2581  0.2687  0.0133
  754POPS   C3A10865   4.628  13.429   6.998 -0.2794 -0.1684  0.2341
  754POPS   C4A10866   4.538  13.498   7.431 -0.0847  0.0199 -0.0494
  754POPS   C1B10867   5.078  13.903   6.087 -0.0473 -0.0736  0.0004
  754POPS   C2B10868   5.158  13.938   6.445 -0.1360  0.1301  0.0394
  754POPS   C3B10869   5.233  13.978   6.842  0.2151 -0.3148 -0.0737
  754POPS   C4B10870   5.238  13.954   7.281  0.0704 -0.3654  0.1618
  755POPS   CNO10871   9.776   9.770   5.491 -0.1868 -0.0585 -0.1043
  755POPS   PO410872   9.399   9.568   5.538  0.1444 -0.0407  0.0367
  755POPS   GL110873   9.439   9.901   5.876  0.1032 -0.0133  0.0643
  755POPS   GL210874   9.337   9.610   5.998  0.0207  0.1760  0.2019
  755POPS   C1A10875   9.601  10.063   6.272  0.0108  0.3244  0.2983
  755POPS   D2A10876   9.935   9.984   6.589 -0.0484 -0.3580  0.3909
  755POPS   C3A10877   9.961  10.382   6.717 -0.2323 -0.2100  0.0434
  755POPS   C4A10878  10.154  10.626   6.976  0.0665 -0.0906 -0.2410
  755POPS   C1B10879   9.279   9.686   6.405 -0.2692 -0.1179  0.2171
  755POPS   C2B10880   9.322   9.590   6.795 -0.1029 -0.1633 -0.0785
  755POPS   C3B10881   9.384   9.523   7.096  0.2096 -0.0654  0.0150
  755POPS   C4B10882   9.700   9.261   7.376  0.0745  0.0590 -0.0477
  756POPS   CNO10883   7.043  18.036   6.188  0.2455  0.0954 -0.0280
  756POPS   PO410884   7.352  17.733   6.161 -0.2494  0.2625 -0.0460
  756POPS   GL110885   7.407  17.708   6.567 -0.0004 -0.0615 -0.0717
  756POPS   GL210886   7.102  17.823   6.631  0.2149 -0.0203  0.0446
  756POPS   C1A10887   7.526  17.589   6.968 -0.1349 -0.0662  0.1715
  756POPS   D2A10888   7.495  17.450   7.349  0.2089 -0.2251 -0.0269
  756POPS   C3A10889   7.656  17.540   7.732  0.0450  0.0677 -0.0268
  756POPS   C4A10890   7.903  17.418   8.157 -0.2696 -0.1633  0.2913
  756POPS   C1B10891   7.082  17.765   7.059 -0.2448 -0.1087 -0.0110
  756POPS   C2B10892   7.181  17.788   7.506 -0.0038 -0.1427  0.0047
  756POPS   C3B10893   7.454  17.952   7.888  0.0617  0.2504 -0.1541
  756POPS   C4B10894   7.925  18.012   7.877  0.4813 -0.2864 -0.0363
  757POPS   CNO10895   3.255  12.365   5.268 -0.2083 -0.1493  0.0033
  757POPS   PO410896   3.530  12.352   5.634 -0.2417  0.3178  0.3488
  757POPS   GL110897   3.484  12.189   6.087 -0.2906 -0.2539 -0.0504
  757POPS   GL210898   3.321  12.010   6.203 -0.1033  0.0504  0.0840
  757POPS   C1A10899   3.775  12.119   6.503  0.1460  0.3969  0.1462
  757POPS   D2A10900   3.888  12.267   6.835 -0.0097  0.0476 -0.2654
  757POPS   C3A10901   3.940  12.645   7.023  0.1986 -0.5171  0.3084
  757POPS   C4A10902   3.802  13.058   6.793  0.1085  0.3302 -0.1452
  757POPS   C1B10903   3.135  11.749   6.516 -0.2722  0.0188  0.0275
  757POPS   C2B10904   3.164  11.533   6.796 -0.2335 -0.1352  0.0122
  757POPS   C3B10905   3.311  11.486   7.155  0.2227  0.1526  0.1975
  757POPS   C4B10906   3.181  11.458   7.574  0.1818  0.0544  0.1075
  758POPS   CNO10907  15.365   4.945   5.310  0.1145 -0.2320 -0.0611
  758POPS   PO410908  15.419   4.566   5.644 -0.1499 -0.1031 -0.2170
  758POPS   GL110909  15.470   4.699   6.047 -0.0606  0.0529 -0.1532
  758POPS   GL210910  15.803   4.700   6.106  0.0913 -0.0111  0.0005
  758POPS   C1A10911  15.374   4.897   6.382  0.0764 -0.0988  0.0468
  758POPS   D2A10912  15.256   4.787   6.822  0.3801 -0.3727 -0.0233
  758POPS   C3A10913  15.333   4.859   7.285  0.1117 -0.0562 -0.1442
  758POPS   C4A10914  15.388   4.839   7.736 -0.0900 -0.4473 -0.0773
  758POPS   C1B10915  15.820   4.583   6.468 -0.1733 -0.0208 -0.3220
  758POPS   C2B10916  15.747   4.594   6.885 -0.4553 -0.1820  0.2891
  758POPS   C3B10917  15.787   4.472   7.317 -0.1790  0.1834 -0.0428
  758POPS   C4B10918  15.906   4.493   7.688  0.1726  0.2061  0.2949
  759POPS   CNO10919  13.904   9.819   5.469  0.2693  0.2475 -0.1176
  759POPS   PO410920  13.785   9.932   5.898  0.0326 -0.0337  0.2547
  759POPS   GL110921  13.716   9.798   6.263  0.0430  0.1806 -0.0475
  759POPS   GL210922  13.474   9.716   6.338 -0.0436 -0.1186  0.1841
  759POPS   C1A10923  13.808  10.044   6.693 -0.0155  0.1300 -0.0960
  759POPS   D2A10924  13.733  10.143   7.080  0.3036 -0.0124  0.3258
  759POPS   C3A10925  13.914  10.411   7.325  0.0084  0.1858  0.1780
  759POPS   C4A10926  14.050  10.432   7.658 -0.0903  0.3778 -0.1922
  759POPS   C1B10927  13.508   9.638   6.776  0.0842  0.1273 -0.0423
  759POPS   C2B10928  13.413   9.695   7.194  0.0135  0.1204 -0.0172
  759POPS   C3B10929  13.189   9.455   7.498 -0.2222  0.0056 -0.2787
  759POPS   C4B10930  12.961   9.356   7.898  0.1253 -0.0459  0.1715
  760POPS   CNO10931   5.073   2.072   5.705  0.0238  0.2050  0.3241
  760POPS   PO410932   5.285   1.707   5.419  0.2193  0.0611 -0.0431
  760POPS   GL110933   5.418   1.676   5.869 -0.0327 -0.2593  0.1866
  760POPS   GL210934   5.221   1.674   6.116  0.3212 -0.1762 -0.1985
  760POPS   C1A10935   5.629   1.980   6.163  0.0150  0.3185 -0.0234
  760POPS   D2A10936   5.645   2.429   6.150 -0.0761  0.1930  0.0364
  760POPS   C3A10937   5.642   2.732   6.480 -0.4791  0.0386 -0.1542
  760POPS   C4A10938   5.664   2.841   6.879 -0.0794 -0.0264  0.2292
  760POPS   C1B10939   5.234   1.876   6.506 -0.2342 -0.1566 -0.2674
  760POPS   C2B10940   5.400   1.923   6.967 -0.0241 -0.1667 -0.3311
  760POPS   C3B10941   5.635   2.161   7.188 -0.3699 -0.1155 -0.2567
  760POPS   C4B10942   5.865   2.051   7.468  0.0752 -0.0112  0.1999
  761POPS   CNO10943  16.309   5.725   6.002 -0.1603 -0.0656  0.2812
  761POPS   PO410944  16.111   6.036   5.796 -0.1178  0.2003 -0.0410
  761POPS   GL110945  15.986   6.095   6.163  0.2337 -0.1529  0.2791
  761POPS   GL210946  16.018   6.378   6.224  0.1896 -0.1364  0.0966
  761POPS   C1A10947  16.035   6.127   6.674  0.1293  0.0262 -0.0297
  761POPS   D2A10948  15.881   6.037   7.082 -0.0557  0.2273  0.1749
  761POPS   C3A10949  15.894   6.416   7.310  0.1700  0.1613 -0.1212
  761POPS   C4A10950  15.791   6.640   7.646 -0.3637  0.2023  0.0480
  761POPS   C1B10951  16.431   6.653   6.521  0.1033 -0.2253 -0.0954
  761POPS   C2B10952  16.635   6.637   6.951 -0.0008  0.0043 -0.2694
  761POPS   C3B10953  16.712   6.536   7.369  0.1563 -0.3077 -0.0623
  761POPS   C4B10954  16.899   6.332   7.832  0.1102  0.1000  0.1126
  762POPS   CNO10955   4.443   2.113   5.920  0.0734  0.0266 -0.2911
  762POPS   PO410956   4.715   1.817   5.897 -0.5099 -0.1324  0.1712
  762POPS   GL110957   4.775   1.894   6.252  0.0845 -0.1641 -0.1965
  762POPS   GL210958   5.024   2.178   6.196 -0.0928 -0.1081 -0.1026
  762POPS   C1A10959   4.687   1.952   6.744  0.0943 -0.0558 -0.1229
  762POPS   D2A10960   4.837   2.103   7.127 -0.0576 -0.0792 -0.2747
  762POPS   C3A10961   5.100   2.477   7.125 -0.1999 -0.1233 -0.0084
  762POPS   C4A10962   5.184   2.933   6.871  0.0590 -0.1487  0.1804
  762POPS   C1B10963   5.244   2.446   6.515  0.0426  0.0718  0.3469
  762POPS   C2B10964   5.542   2.329   6.724  0.0752 -0.1558 -0.1538
  762POPS   C3B10965   5.845   1.995   6.690  0.0161  0.2147 -0.0334
  762POPS   C4B10966   6.088   1.905   6.380 -0.0762 -0.1682  0.1569
  763POPS   CNO10967  15.104   1.411   6.391  0.2430  0.2030  0.2533
  763POPS   PO410968  15.405   1.025   6.445  0.3960  0.1673  0.3171
  763POPS   GL110969  15.179   0.874   6.919  0.0876  0.1348  0.0061
  763POPS   GL210970  14.933   1.199   6.856 -0.0893 -0.0800  0.0487
  763POPS   C1A10971  15.205   1.031   7.322 -0.2180  0.1051 -0.1326
  763POPS   D2A10972  15.555   0.951   7.601  0.0792 -0.2595  0.0701
  763POPS   C3A10973  15.871   0.770   7.506 -0.1073 -0.0454 -0.0655
  763POPS   C4A10974  16.125   0.429   7.458  0.0456  0.0384 -0.2497
  763POPS   C1B10975  14.748   1.215   7.246 -0.2728 -0.1334 -0.0041
  763POPS   C2B10976  14.969   1.281   7.654  0.0891  0.1143 -0.3517
  763POPS   C3B10977  15.305   1.382   7.921 -0.3579 -0.0906 -0.2798
  763POPS   C4B10978  15.449   1.365   8.284 -0.2090  0.1788 -0.0844
  764POPS   CNO10979  10.241  17.910   5.743 -0.0206  0.0225  0.1012
  764POPS   PO410980  10.437  18.116   6.059  0.0547 -0.1433 -0.1704
  764POPS   GL110981  10.549  18.141   6.435 -0.1047  0.0515  0.1113
  764POPS   GL210982  10.796  17.960   6.381 -0.2954  0.0634 -0.0713
  764POPS   C1A10983  10.632  18.308   6.866 -0.0642  0.1141 -0.1328
  764POPS   D2A10984  10.621  18.533   7.145 -0.2147  0.1615 -0.0680
  764POPS   C3A10985  10.448  18.299   7.563  0.0602  0.2212  0.0736
  764POPS   C4A10986  10.374  18.128   7.904  0.0472 -0.0471  0.1435
  764POPS   C1B10987  10.591  17.824   6.753 -0.2481  0.1303 -0.0623
  764POPS   C2B10988  10.552  17.918   7.186 -0.0529  0.3206 -0.1620
  764POPS   C3B10989  10.503  17.786   7.531 -0.0317 -0.0040  0.0512
  764POPS   C4B10990  10.256  17.678   7.797  0.0204  0.1996 -0.1775
  765POPS   CNO10991  15.817  13.027   5.267 -0.0432 -0.0859 -0.2908
  765POPS   PO410992  15.719  13.179   5.688 -0.0849 -0.1051  0.3547
  765POPS   GL110993  15.974  13.472   5.865 -0.0468 -0.0352 -0.1880
  765POPS   GL210994  16.224  13.345   6.049  0.3146 -0.4111 -0.0056
  765POPS   C1A10995  15.882  13.886   6.036  0.1251  0.0153  0.1181
  765POPS   D2A10996  16.046  14.091   6.381  0.5043 -0.1831  0.1190
  765POPS   C3A10997  15.928  14.236   6.825  0.0806  0.1116  0.1677
  765POPS   C4A10998  15.901  14.032   7.254 -0.0821  0.1388 -0.0953
  765POPS   C1B10999  16.067  13.574   6.379  0.0222 -0.2103 -0.0414
  765POPS   C2B11000  16.063  13.697   6.810 -0.0923 -0.3107 -0.1771
  765POPS   C3B11001  15.731  13.543   7.089 -0.2886 -0.1705 -0.1618
  765POPS   C4B11002  15.776  13.605   7.529  0.1970 -0.3408  0.0131
  766POPS   CNO11003   3.610   5.544   5.220  0.0206 -0.2838  0.1213
  766POPS   PO411004   3.268   5.627   5.591  0.0324  0.0208  0.0782
  766POPS   GL111005   3.321   5.655   6.054 -0.1661  0.0037 -0.0776
  766POPS   GL211006   3.596   5.726   6.134  0.1954 -0.0515 -0.1703
  766POPS   C1A11007   3.096   5.793   6.528 -0.0922  0.0089  0.1172
  766POPS   D2A11008   2.929   5.754   6.932  0.1451  0.1826 -0.0242
  766POPS   C3A11009   3.249   5.883   7.204  0.3741 -0.0517  0.0368
  766POPS   C4A11010   3.307   6.001   7.534  0.1138 -0.1545 -0.0924
  766POPS   C1B11011   3.672   5.636   6.516  0.0856  0.2521  0.2445
  766POPS   C2B11012   3.635   5.637   6.969 -0.3229 -0.1108 -0.1416
  766POPS   C3B11013   3.498   5.518   7.414  0.2710 -0.3383 -0.2716
  766POPS   C4B11014   3.542   5.005   7.643 -0.0240  0.0544 -0.0728
  767POPS   CNO11015   2.829   5.725   6.108 -0.1188 -0.2031  0.4868
  767POPS   PO411016   2.387   5.825   5.828 -0.0544 -0.2583 -0.2101
  767POPS   GL111017   2.397   6.121   6.204  0.2130 -0.1130 -0.1380
  767POPS   GL211018   2.352   6.457   6.128 -0.2098  0.0483 -0.1007
  767POPS   C1A11019   2.179   5.955   6.574  0.0294  0.0077  0.3527
  767POPS   D2A11020   2.212   5.574   6.844  0.0529  0.1088 -0.1645
  767POPS   C3A11021   2.423   5.576   7.243 -0.0037 -0.2168 -0.0629
  767POPS   C4A11022   2.387   5.575   7.647 -0.1995 -0.0973 -0.1087
  767POPS   C1B11023   2.558   6.540   6.555  0.0031  0.1791  0.0224
  767POPS   C2B11024   2.610   6.569   6.956  0.0572  0.0416  0.1408
  767POPS   C3B11025   2.498   6.641   7.320 -0.0488 -0.0978 -0.2413
  767POPS   C4B11026   2.736   6.631   7.655  0.0024 -0.4134  0.3908
  768POPS   CNO11027   3.357   4.245   4.991  0.4309 -0.2510  0.0370
  768POPS   PO411028   3.492   4.228   5.467  0.4419 -0.0721  0.0356
  768POPS   GL111029   3.579   4.087   5.814  0.2919 -0.1152 -0.0754
  768POPS   GL211030   3.537   3.666   5.784 -0.1928  0.1784 -0.1887
  768POPS   C1A11031   3.544   4.188   6.212 -0.2495 -0.0024 -0.1341
  768POPS   D2A11032   3.565   4.005   6.611 -0.2715  0.0142 -0.1634
  768POPS   C3A11033   3.670   4.142   7.071 -0.0849  0.1275 -0.0395
  768POPS   C4A11034   3.420   3.869   7.339  0.1663 -0.0154  0.0933
  768POPS   C1B11035   3.733   3.707   6.251 -0.0484  0.2129 -0.1743
  768POPS   C2B11036   3.680   3.514   6.656  0.0815  0.3130  0.3081
  768POPS   C3B11037   3.895   3.378   7.031  0.1140  0.0947 -0.2045
  768POPS   C4B11038   3.902   3.606   7.297  0.0983  0.0732 -0.1140
  769POPS   CNO11039  16.279   9.244   5.297 -0.2000 -0.0869 -0.0070
  769POPS   PO411040  15.971   9.179   5.541 -0.0575 -0.3395 -0.1073
  769POPS   GL111041  15.925   9.401   5.972 -0.0396  0.1972  0.1782
  769POPS   GL211042  16.222   9.457   6.170  0.1883  0.0269  0.0147
  769POPS   C1A11043  15.659   9.715   6.363 -0.1963  0.0059  0.1260
  769POPS   D2A11044  15.547   9.692   6.741 -0.4295 -0.1550  0.0818
  769POPS   C3A11045  15.541   9.513   7.153 -0.3140 -0.4335  0.2522
  769POPS   C4A11046  15.358   9.627   7.544  0.0268 -0.0079 -0.0782
  769POPS   C1B11047  16.037   9.434   6.545 -0.2246  0.0070 -0.0349
  769POPS   C2B11048  16.043   9.475   7.005 -0.0587  0.1477  0.1126
  769POPS   C3B11049  15.978   9.432   7.368 -0.0321 -0.3062  0.1233
  769POPS   C4B11050  15.862   9.595   7.762  0.1324  0.1650 -0.0776
  770POPS   CNO11051   8.587  14.056   5.403  0.0788 -0.0291  0.2795
  770POPS   PO411052   8.784  14.049   5.645 -0.0990  0.0820 -0.3675
  770POPS   GL111053   9.060  14.147   5.915 -0.0285  0.0834 -0.0868
  770POPS   GL211054   9.327  13.859   5.953 -0.0892 -0.0125 -0.0636
  770POPS   C1A11055   9.075  14.010   6.348  0.3825  0.1498  0.2343
  770POPS   D2A11056   8.898  13.795   6.623  0.1864 -0.4476  0.0960
  770POPS   C3A11057   8.793  14.125   6.981 -0.0609 -0.0890  0.1246
  770POPS   C4A11058   8.735  14.471   7.202  0.1012  0.1527  0.3560
  770POPS   C1B11059   9.511  13.758   6.157 -0.1789 -0.1009  0.1768
  770POPS   C2B11060   9.887  13.778   6.396  0.2314  0.0972 -0.1147
  770POPS   C3B11061   9.988  13.720   6.852 -0.0357  0.1423  0.0578
  770POPS   C4B11062   9.939  13.778   7.242  0.0023 -0.1000  0.0888
  771POPS   CNO11063   7.426  11.809   5.761 -0.1368  0.1456  0.1878
  771POPS   PO411064   7.669  11.934   5.889  0.1731  0.1348 -0.1133
  771POPS   GL111065   7.744  11.741   6.274  0.3396 -0.0300 -0.0583
  771POPS   GL211066   7.468  11.539   6.317 -0.0891 -0.3497  0.2691
  771POPS   C1A11067   7.738  11.731   6.736  0.1627 -0.2114  0.0702
  771POPS   D2A11068   7.944  11.900   7.123 -0.0298 -0.1428  0.1928
  771POPS   C3A11069   7.965  11.616   7.436  0.0502  0.0448 -0.0904
  771POPS   C4A11070   8.321  11.566   7.791  0.3360 -0.3083  0.1018
  771POPS   C1B11071   7.267  11.661   6.587  0.1233 -0.0559 -0.1586
  771POPS   C2B11072   7.246  11.810   6.954 -0.1878 -0.0998 -0.0330
  771POPS   C3B11073   7.509  11.842   7.290  0.1672 -0.0363 -0.1882
  771POPS   C4B11074   7.431  11.780   7.635  0.4730 -0.1498  0.0684
  772POPS   CNO11075   1.850   8.055   5.779  0.1903 -0.0797  0.0334
  772POPS   PO411076   2.001   8.380   5.478 -0.3994 -0.1623 -0.2629
  772POPS   GL111077   1.924   8.496   6.007  0.2016 -0.0509 -0.1525
  772POPS   GL211078   1.681   8.666   6.215  0.1397  0.0868 -0.2737
  772POPS   C1A11079   2.036   8.273   6.248 -0.0467  0.2664 -0.1407
  772POPS   D2A11080   2.460   8.192   6.465 -0.0346 -0.1752  0.0453
  772POPS   C3A11081   2.568   8.065   6.809 -0.0222 -0.0409 -0.1079
  772POPS   C4A11082   2.838   8.085   7.113  0.0016 -0.0051 -0.0272
  772POPS   C1B11083   1.507   8.957   6.553 -0.3784 -0.0025 -0.0891
  772POPS   C2B11084   1.432   9.169   6.953 -0.1239  0.3463  0.2224
  772POPS   C3B11085   1.375   9.321   7.376 -0.0092 -0.0892 -0.0090
  772POPS   C4B11086   1.100   9.292   7.766  0.0908  0.0213  0.0087
  773POPS   CNO11087  17.541   8.111   5.400  0.2971 -0.2436  0.0261
  773POPS   PO411088  17.875   7.884   5.636  0.0096  0.1156  0.1923
  773POPS   GL111089  17.816   8.016   5.959  0.1667  0.0790  0.0699
  773POPS   GL211090  17.709   7.747   6.100  0.0745 -0.1331  0.0475
  773POPS   C1A11091  17.776   8.240   6.260 -0.0495 -0.0445 -0.2064
  773POPS   D2A11092  17.683   8.360   6.628  0.2012  0.1118  0.1915
  773POPS   C3A11093  17.932   8.581   6.865 -0.1481 -0.2199 -0.1277
  773POPS   C4A11094  18.114   8.406   7.091 -0.0433  0.0761  0.4430
  773POPS   C1B11095  17.746   7.814   6.549  0.1881 -0.2571  0.3537
  773POPS   C2B11096  17.899   7.971   6.894  0.0033  0.0123  0.1210
  773POPS   C3B11097  17.750   8.050   7.331  0.2849  0.1802  0.2289
  773POPS   C4B11098  17.543   7.949   7.722  0.0864 -0.1197 -0.0472
  774POPS   CNO11099  14.966   4.041   5.663 -0.1476 -0.1130  0.0085
  774POPS   PO411100  14.931   3.761   5.906 -0.1406 -0.2890  0.2968
  774POPS   GL111101  14.821   4.001   6.217 -0.1122 -0.1700 -0.0229
  774POPS   GL211102  14.588   4.190   6.214  0.0641 -0.0547 -0.0236
  774POPS   C1A11103  14.932   4.110   6.672  0.1448 -0.1429  0.1213
  774POPS   D2A11104  14.805   4.138   7.106 -0.2775  0.1234 -0.0047
  774POPS   C3A11105  14.458   4.119   7.289 -0.1577 -0.2665 -0.1958
  774POPS   C4A11106  14.129   4.164   7.382  0.0740  0.1440  0.1778
  774POPS   C1B11107  14.537   4.542   6.424 -0.2211  0.0297 -0.0009
  774POPS   C2B11108  14.792   4.609   6.815  0.1608 -0.0380  0.0249
  774POPS   C3B11109  14.910   4.608   7.269 -0.2517 -0.1299  0.0960
  774POPS   C4B11110  14.949   4.782   7.631  0.2280  0.1915 -0.0581
  775POPS   CNO11111   1.691  15.464   5.406 -0.0827  0.3505  0.2563
  775POPS   PO411112   1.403  15.701   5.537 -0.1852  0.4595  0.1557
  775POPS   GL111113   1.609  15.795   5.848 -0.0416  0.0851  0.2151
  775POPS   GL211114   1.643  16.130   5.895  0.0859 -0.1307  0.1053
  775POPS   C1A11115   1.745  15.879   6.330  0.0078  0.1701 -0.0482
  775POPS   D2A11116   1.947  15.770   6.653 -0.3765 -0.0583  0.0138
  775POPS   C3A11117   2.093  16.084   6.894 -0.0486 -0.1157 -0.3460
  775POPS   C4A11118   2.417  16.170   7.034 -0.5122  0.1260 -0.1303
  775POPS   C1B11119   1.344  16.352   6.161 -0.0642  0.0914 -0.0175
  775POPS   C2B11120   1.178  16.533   6.590 -0.0640  0.0679  0.1400
  775POPS   C3B11121   1.011  16.756   6.874 -0.0405 -0.1176  0.0824
  775POPS   C4B11122   0.733  16.623   7.259 -0.0373  0.0260  0.2604
  776POPS   CNO11123  13.774  14.663   5.842 -0.0074  0.2629 -0.0475
  776POPS   PO411124  13.534  14.414   5.694  0.1218  0.0224  0.1048
  776POPS   GL111125  13.578  14.317   6.187  0.1971 -0.3902  0.1978
  776POPS   GL211126  13.393  14.618   6.228 -0.0554 -0.0578 -0.1803
  776POPS   C1A11127  13.526  13.986   6.497 -0.1778  0.1583  0.0906
  776POPS   D2A11128  13.357  13.778   6.795  0.2212 -0.0287  0.1430
  776POPS   C3A11129  13.519  13.713   7.208 -0.0994  0.1562  0.1806
  776POPS   C4A11130  13.689  13.563   7.588 -0.1544 -0.1359 -0.0454
  776POPS   C1B11131  13.158  14.762   6.580  0.1643 -0.2285  0.1546
  776POPS   C2B11132  13.022  14.700   6.989 -0.0749 -0.1405 -0.0501
  776POPS   C3B11133  13.025  14.679   7.416  0.2231  0.0862  0.1185
  776POPS   C4B11134  13.188  14.883   7.688 -0.0708  0.0134  0.1334
  777POPS   CNO11135   9.338   2.974   5.604 -0.0744 -0.1251  0.0538
  777POPS   PO411136   8.848   2.852   5.740  0.1803  0.3997  0.1827
  777POPS   GL111137   8.920   2.967   6.149 -0.2684 -0.2798 -0.0719
  777POPS   GL211138   8.607   2.736   6.155 -0.1152  0.3022 -0.3919
  777POPS   C1A11139   8.787   2.984   6.522 -0.2834 -0.1336 -0.0607
  777POPS   D2A11140   8.907   3.081   6.886  0.3450  0.0694  0.0996
  777POPS   C3A11141   8.755   3.094   7.242 -0.1965  0.1980 -0.2192
  777POPS   C4A11142   8.675   2.918   7.638 -0.1026  0.2360 -0.1863
  777POPS   C1B11143   8.464   2.581   6.521  0.0843 -0.0736  0.0255
  777POPS   C2B11144   8.416   2.847   6.934 -0.0345 -0.2520  0.0751
  777POPS   C3B11145   8.262   2.773   7.373 -0.0623  0.0326  0.0569
  777POPS   C4B11146   8.304   2.724   7.885  0.2933  0.0177  0.1058
  778POPS   CNO11147  13.661   4.657   5.657 -0.0273 -0.1713 -0.2475
  778POPS   PO411148  13.735   4.438   6.061 -0.0663  0.0302 -0.0240
  778POPS   GL111149  13.862   4.349   6.427 -0.0675 -0.0690 -0.2156
  778POPS   GL211150  14.120   4.104   6.411 -0.0163 -0.0229  0.0451
  778POPS   C1A11151  14.107   4.599   6.617  0.3595 -0.4737 -0.1681
  778POPS   D2A11152  14.369   4.945   6.689  0.0155  0.0405 -0.0832
  778POPS   C3A11153  14.527   4.915   7.131  0.0393  0.0077 -0.1361
  778POPS   C4A11154  14.448   5.085   7.485  0.1098 -0.0582  0.2925
  778POPS   C1B11155  14.410   4.164   6.722 -0.3798  0.2833  0.0576
  778POPS   C2B11156  14.293   4.482   7.058 -0.1854 -0.1288  0.1208
  778POPS   C3B11157  14.462   4.589   7.495  0.4372 -0.0688  0.0775
  778POPS   C4B11158  14.427   4.840   7.907 -0.4632 -0.0095  0.0800
  779POPS   CNO11159   1.965  17.686   6.157 -0.2007 -0.0487 -0.3937
  779POPS   PO411160   1.838  17.429   5.976 -0.0623 -0.0093  0.0980
  779POPS   GL111161   1.759  17.027   6.218 -0.3398  0.1501  0.3198
  779POPS   GL211162   1.889  17.268   6.455 -0.1945  0.0284 -0.1619
  779POPS   C1A11163   1.577  16.801   6.474 -0.2323 -0.0125 -0.0255
  779POPS   D2A11164   1.524  16.756   6.861 -0.0478  0.1351 -0.0108
  779POPS   C3A11165   1.311  16.517   7.212  0.2495 -0.1422  0.0655
  779POPS   C4A11166   1.489  16.147   7.446 -0.0991 -0.1704 -0.2076
  779POPS   C1B11167   1.810  17.133   6.806  0.0280 -0.2576 -0.1272
  779POPS   C2B11168   1.804  17.200   7.274  0.1403 -0.0541  0.2069
  779POPS   C3B11169   2.007  17.543   7.597 -0.1578  0.0434  0.1234
  779POPS   C4B11170   2.167  17.846   7.758 -0.0357 -0.0401  0.1295
  780POPS   CNO11171  13.130  10.836   5.854  0.2527 -0.1513 -0.0595
  780POPS   PO411172  12.901  11.062   5.518  0.0481  0.0688  0.0182
  780POPS   GL111173  12.949  11.382   5.894 -0.0838 -0.1590 -0.0699
  780POPS   GL211174  13.172  11.234   6.139 -0.0322  0.0239 -0.2361
  780POPS   C1A11175  12.782  11.635   6.353  0.3971  0.3314  0.3077
  780POPS   D2A11176  12.538  11.741   6.680 -0.1674 -0.4449 -0.0296
  780POPS   C3A11177  12.663  11.770   7.130 -0.0038 -0.1734 -0.1635
  780POPS   C4A11178  12.343  11.847   7.527  0.1658  0.1264 -0.0512
  780POPS   C1B11179  13.145  11.073   6.541  0.2050 -0.2863 -0.0730
  780POPS   C2B11180  13.120  10.944   7.014 -0.0538  0.0790 -0.0824
  780POPS   C3B11181  12.758  11.176   7.279 -0.1574  0.4114 -0.1508
  780POPS   C4B11182  12.683  11.420   7.550 -0.2700  0.0225  0.1134
  781POPS   CNO11183  13.682   4.827   6.509 -0.1240  0.0272 -0.2289
  781POPS   PO411184  13.298   4.761   6.277 -0.3163  0.1413 -0.0302
  781POPS   GL111185  13.097   4.489   6.560 -0.2865  0.4828  0.2297
  781POPS   GL211186  13.246   4.632   6.847 -0.2276 -0.2315  0.2345
  781POPS   C1A11187  12.958   4.191   6.930 -0.1800 -0.2843  0.1552
  781POPS   D2A11188  13.073   4.126   7.369 -0.1876 -0.1418 -0.0389
  781POPS   C3A11189  12.951   4.067   7.821 -0.2125 -0.1658 -0.1170
  781POPS   C4A11190  12.783   4.047   8.227  0.1116  0.0264 -0.4203
  781POPS   C1B11191  13.368   4.556   7.220  0.4548  0.0666  0.1649
  781POPS   C2B11192  13.263   4.471   7.672  0.0235  0.2013  0.3964
  781POPS   C3B11193  13.091   4.694   8.021 -0.0304 -0.0357  0.0231
  781POPS   C4B11194  12.697   4.866   8.086 -0.2062 -0.1562  0.2627
  782POPS   CNO11195  12.083  14.519   5.801  0.2416  0.0724 -0.2638
  782POPS   PO411196  12.247  14.065   5.808  0.1839  0.1118 -0.0385
  782POPS   GL111197  12.454  14.313   6.100  0.3118 -0.3257  0.1975
  782POPS   GL211198  12.748  14.196   6.181 -0.0812 -0.3706  0.3183
  782POPS   C1A11199  12.455  14.512   6.477  0.0488  0.1094 -0.0655
  782POPS   D2A11200  12.607  14.466   6.852 -0.0395 -0.0625  0.1950
  782POPS   C3A11201  12.580  14.402   7.308  0.0773 -0.1753  0.3276
  782POPS   C4A11202  12.329  14.401   7.651  0.0507 -0.3647  0.2114
  782POPS   C1B11203  13.009  14.332   6.527 -0.2024 -0.0379 -0.0961
  782POPS   C2B11204  13.041  14.194   6.946 -0.2159  0.2759  0.2630
  782POPS   C3B11205  13.037  14.187   7.437  0.3939 -0.1671 -0.2371
  782POPS   C4B11206  12.807  14.347   7.756  0.0564  0.0040  0.0342
  783POPS   CNO11207   6.647   5.555   5.649  0.0397 -0.0936 -0.1378
  783POPS   PO411208   6.634   5.159   5.733 -0.2204  0.0411  0.1233
  783POPS   GL111209   6.577   5.056   6.135  0.1693  0.2145 -0.0152
  783POPS   GL211210   6.690   4.772   6.222  0.0184 -0.1541 -0.2544
  783POPS   C1A11211   6.599   5.060   6.631  0.1939  0.0588 -0.2543
  783POPS   D2A11212   6.501   5.072   7.089  0.0500 -0.3134  0.0016
  783POPS   C3A11213   6.188   5.297   7.291  0.0149 -0.4025 -0.0788
  783POPS   C4A11214   6.050   5.623   7.644 -0.1585  0.2199  0.0971
  783POPS   C1B11215   7.059   5.045   6.366 -0.0709  0.0729 -0.0243
  783POPS   C2B11216   7.088   5.484   6.571 -0.1017  0.1953 -0.2567
  783POPS   C3B11217   6.932   5.803   6.688  0.1049  0.0388  0.0423
  783POPS   C4B11218   6.707   6.105   6.654  0.0094  0.1331  0.0874
  784POPS   CNO11219   1.322   2.187   5.132  0.0676 -0.2359 -0.0796
  784POPS   PO411220   1.299   1.909   5.398  0.2172 -0.0987  0.1259
  784POPS   GL111221   1.351   1.679   5.798 -0.2924  0.1055 -0.1630
  784POPS   GL211222   1.203   1.716   6.047 -0.0538 -0.0429  0.2387
  784POPS   C1A11223   1.729   1.496   6.094 -0.2216  0.2155 -0.1449
  784POPS   D2A11224   1.748   1.492   6.478 -0.2767  0.0073 -0.0842
  784POPS   C3A11225   1.928   1.806   6.596 -0.0044 -0.2514  0.1183
  784POPS   C4A11226   1.971   1.916   6.236 -0.0655  0.1010 -0.0410
  784POPS   C1B11227   1.208   1.542   6.330 -0.0971  0.1162  0.1591
  784POPS   C2B11228   1.353   1.557   6.735  0.0693 -0.1454 -0.1450
  784POPS   C3B11229   1.664   1.677   7.060 -0.2922 -0.2937 -0.1669
  784POPS   C4B11230   1.935   1.330   6.947 -0.2423 -0.5044 -0.0662
  785POPS   CNO11231  16.996  15.938   5.844 -0.0149  0.1447  0.3704
  785POPS   PO411232  17.031  16.415   5.895 -0.2032  0.2369  0.0066
  785POPS   GL111233  17.002  16.224   6.269  0.1924  0.0604  0.1940
  785POPS   GL211234  16.799  16.208   6.575 -0.0785  0.1295  0.0168
  785POPS   C1A11235  17.301  16.037   6.585  0.1067 -0.0075 -0.3398
  785POPS   D2A11236  17.530  15.872   6.855 -0.0455  0.0486 -0.1632
  785POPS   C3A11237  17.302  15.631   7.199  0.3181 -0.1427  0.0250
  785POPS   C4A11238  17.078  15.523   7.474 -0.0433 -0.2161  0.0403
  785POPS   C1B11239  16.922  15.905   6.944 -0.0906 -0.0044  0.1348
  785POPS   C2B11240  16.929  16.024   7.400 -0.1956 -0.0545 -0.2151
  785POPS   C3B11241  16.838  16.249   7.707 -0.3632  0.0208  0.2087
  785POPS   C4B11242  16.744  16.515   7.998  0.3000 -0.0855 -0.2239
  786POPS   CNO11243  16.445  11.942   5.277 -0.1608 -0.2327 -0.2737
  786POPS   PO411244  16.181  11.626   5.511 -0.1314 -0.0146  0.0165
  786POPS   GL111245  15.989  11.760   5.910 -0.1672  0.0610  0.2346
  786POPS   GL211246  15.942  12.038   5.980 -0.0195  0.1943 -0.2342
  786POPS   C1A11247  15.705  11.782   6.281  0.2981 -0.0156 -0.2083
  786POPS   D2A11248  15.683  11.421   6.607  0.1041  0.1793  0.1629
  786POPS   C3A11249  15.936  11.296   6.944 -0.1904 -0.1246 -0.0474
  786POPS   C4A11250  16.259  11.086   7.188  0.2110  0.0116 -0.0659
  786POPS   C1B11251  16.177  12.227   6.260  0.3496  0.5129 -0.0377
  786POPS   C2B11252  16.142  12.269   6.680  0.0317  0.0786 -0.1535
  786POPS   C3B11253  16.116  12.183   7.152 -0.3132  0.0209  0.1167
  786POPS   C4B11254  16.379  12.142   7.427  0.1640 -0.0239 -0.0500
  787POPS   CNO11255   4.127   9.265   4.935  0.2581  0.0309 -0.0449
  787POPS   PO411256   4.236   9.243   5.306 -0.0230 -0.0176 -0.0918
  787POPS   GL111257   4.208   8.992   5.635 -0.1948  0.3225  0.0954
  787POPS   GL211258   4.314   9.230   5.855  0.2844 -0.2943 -0.0031
  787POPS   C1A11259   3.986   8.948   5.946  0.0647  0.1553 -0.0402
  787POPS   D2A11260   4.004   8.861   6.352 -0.1758  0.3321  0.0002
  787POPS   C3A11261   3.963   8.918   6.868 -0.0169 -0.0324 -0.1905
  787POPS   C4A11262   3.867   8.718   7.375 -0.1270 -0.1969 -0.2037
  787POPS   C1B11263   4.367   9.267   6.249  0.1474 -0.0412  0.0044
  787POPS   C2B11264   4.349   9.239   6.703  0.1552 -0.0981  0.1730
  787POPS   C3B11265   4.251   9.153   7.175  0.0003 -0.1962 -0.1169
  787POPS   C4B11266   4.206   9.107   7.491 -0.1256 -0.1065 -0.1212
  788POPS   CNO11267   4.166  15.900   5.804  0.2805 -0.1328 -0.3828
  788POPS   PO411268   4.214  15.898   6.276 -0.0644  0.0880 -0.0838
  788POPS   GL111269   4.246  15.590   6.583  0.0593  0.2934 -0.0917
  788POPS   GL211270   3.929  15.387   6.615 -0.0096 -0.0235  0.0874
  788POPS   C1A11271   4.193  15.524   7.098  0.1636 -0.1075  0.0752
  788POPS   D2A11272   3.967  15.432   7.378  0.0051  0.0900  0.0399
  788POPS   C3A11273   4.084  15.127   7.666  0.0023 -0.0621  0.3028
  788POPS   C4A11274   4.017  14.913   7.992  0.1227  0.3703  0.1408
  788POPS   C1B11275   3.768  15.147   6.941  0.3001  0.0350  0.0197
  788POPS   C2B11276   3.654  14.984   7.408  0.0102  0.3811  0.0152
  788POPS   C3B11277   3.446  14.958   7.753  0.0523  0.3695  0.0124
  788POPS   C4B11278   3.063  14.960   8.002 -0.2161  0.0520 -0.0185
  789POPS   CNO11279  16.261  14.729   5.421 -0.0431 -0.4512  0.3115
  789POPS   PO411280  16.044  15.077   5.559 -0.0019 -0.0235  0.0612
  789POPS   GL111281  16.128  14.916   5.949  0.3737 -0.0498 -0.1223
  789POPS   GL211282  16.347  14.720   5.985 -0.1969  0.2009 -0.0391
  789POPS   C1A11283  16.026  14.781   6.380 -0.0376  0.0688  0.1233
  789POPS   D2A11284  15.747  14.828   6.750 -0.1455 -0.1177 -0.0708
  789POPS   C3A11285  15.901  14.565   7.149 -0.0423 -0.0392  0.1718
  789POPS   C4A11286  15.580  14.343   7.193  0.2497 -0.0518 -0.2015
  789POPS   C1B11287  16.377  14.431   6.249 -0.3061  0.1081 -0.2292
  789POPS   C2B11288  16.355  14.448   6.642 -0.2694  0.0380  0.0242
  789POPS   C3B11289  16.423  14.409   7.126 -0.0829  0.2377  0.0186
  789POPS   C4B11290  16.533  14.551   7.525 -0.0395 -0.1583  0.0145
  790POPS   CNO11291  18.194   0.116   5.328  0.3500 -0.0654 -0.0118
  790POPS   PO411292  18.442   0.163   5.674  0.1472  0.0566 -0.0098
  790POPS   GL111293  18.405  -0.046   6.062 -0.1240 -0.0432  0.0405
  790POPS   GL211294  18.592   0.111   6.341 -0.1319 -0.2632 -0.0028
  790POPS   C1A11295  18.358  -0.432   6.370  0.0819  0.2235  0.0071
  790POPS   D2A11296  18.444  -0.857   6.538 -0.1737 -0.1540 -0.0929
  790POPS   C3A11297  18.567  -0.975   6.914  0.3092 -0.1270  0.1509
  790POPS   C4A11298  18.556  -1.132   7.282 -0.0421 -0.1939 -0.2522
  790POPS   C1B11299  18.469   0.016   6.821  0.1723 -0.1411  0.3428
  790POPS   C2B11300  18.365  -0.068   7.215  0.1950 -0.3176 -0.1312
  790POPS   C3B11301  18.537  -0.304   7.630 -0.0883 -0.0676 -0.1064
  790POPS   C4B11302  18.553  -0.359   8.021 -0.4815  0.2116  0.0716
  791POPS   CNO11303   4.607  12.989   5.322 -0.2355  0.0668  0.0982
  791POPS   PO411304   4.960  13.238   5.490 -0.2563  0.0659  0.2746
  791POPS   GL111305   5.169  13.304   5.946  0.2363 -0.0910  0.0238
  791POPS   GL211306   5.278  13.480   6.196  0.2132  0.1947 -0.2692
  791POPS   C1A11307   4.874  13.158   6.248 -0.3008 -0.0732  0.0101
  791POPS   D2A11308   4.533  12.963   6.276 -0.1609 -0.0504  0.5258
  791POPS   C3A11309   4.261  13.164   6.595  0.0076  0.0296  0.0466
  791POPS   C4A11310   4.152  13.300   6.987 -0.0857 -0.1526  0.0578
  791POPS   C1B11311   5.210  13.464   6.604  0.1370 -0.0193  0.0782
  791POPS   C2B11312   5.121  13.530   6.957  0.0443  0.2273  0.0650
  791POPS   C3B11313   5.040  13.454   7.338 -0.2003 -0.1427 -0.0488
  791POPS   C4B11314   5.028  13.540   7.698 -0.2715 -0.0118 -0.1044
  792POPS   CNO11315   9.075  10.144   4.976 -0.3145 -0.0648  0.0786
  792POPS   PO411316   8.916  10.171   5.371  0.0800  0.3417  0.2111
  792POPS   GL111317   8.968  10.032   5.730 -0.0516  0.4475 -0.2807
  792POPS   GL211318   8.878   9.711   5.796 -0.0594 -0.0019  0.0697
  792POPS   C1A11319   9.067  10.060   6.198 -0.0564  0.3400 -0.0228
  792POPS   D2A11320   8.868   9.920   6.680 -0.2169 -0.1006  0.1981
  792POPS   C3A11321   9.100   9.926   7.096  0.4021  0.0718 -0.0887
  792POPS   C4A11322   9.604   9.979   7.071  0.0166 -0.0198  0.0005
  792POPS   C1B11323   8.639   9.893   6.084  0.1807  0.1836  0.0911
  792POPS   C2B11324   8.667  10.304   6.342  0.1944  0.2631 -0.1501
  792POPS   C3B11325   8.418  10.446   6.725  0.0637 -0.3662  0.0221
  792POPS   C4B11326   8.428  10.402   7.197 -0.0541 -0.1489  0.1578
  793POPS   CNO11327   2.212  15.728   5.194 -0.1434  0.1868 -0.2696
  793POPS   PO411328   2.099  15.659   5.683  0.1213 -0.1227  0.1421
  793POPS   GL111329   1.928  15.504   6.061 -0.3209  0.1466 -0.0110
  793POPS   GL211330   1.635  15.301   5.922 -0.3625  0.1735 -0.0500
  793POPS   C1A11331   1.749  15.370   6.414 -0.0228  0.1037 -0.1589
  793POPS   D2A11332   1.853  15.362   6.873 -0.1836  0.1558 -0.0891
  793POPS   C3A11333   1.754  15.300   7.345 -0.3894 -0.1820  0.1705
  793POPS   C4A11334   1.780  15.140   7.750  0.3688 -0.1314  0.0815
  793POPS   C1B11335   1.362  15.131   6.201  0.2184  0.0825 -0.0727
  793POPS   C2B11336   1.219  15.162   6.505 -0.4066 -0.1926  0.0214
  793POPS   C3B11337   1.283  15.457   6.820 -0.1850 -0.1601 -0.1591
  793POPS   C4B11338   1.353  15.389   7.100 -0.3820  0.1555 -0.0718
  794POPS   CNO11339   1.461   7.338   6.010  0.0268  0.1178 -0.2453
  794POPS   PO411340   1.459   7.743   5.825  0.0737 -0.1297  0.3279
  794POPS   GL111341   1.261   7.976   6.160  0.1448 -0.0682  0.0866
  794POPS   GL211342   1.478   8.196   6.297  0.1414  0.3919  0.1047
  794POPS   C1A11343   1.065   8.179   6.577  0.0748  0.3956 -0.3652
  794POPS   D2A11344   0.793   8.144   6.953 -0.0090 -0.0183 -0.1770
  794POPS   C3A11345   1.048   7.990   7.391 -0.3617  0.1542 -0.0388
  794POPS   C4A11346   0.890   7.809   7.765  0.0637 -0.1597 -0.0142
  794POPS   C1B11347   1.667   8.404   6.643 -0.0138 -0.2082 -0.0565
  794POPS   C2B11348   2.172   8.509   6.779  0.2630  0.0057 -0.2223
  794POPS   C3B11349   2.276   8.819   7.145 -0.0339  0.1778  0.0433
  794POPS   C4B11350   2.373   8.991   7.517  0.1503 -0.0560 -0.0024
  795POPS   CNO11351   7.616  17.432   5.745  0.0792  0.1410  0.2360
  795POPS   PO411352   8.109  17.259   5.856 -0.4544 -0.1095 -0.0536
  795POPS   GL111353   8.032  17.200   6.273  0.1131 -0.1010  0.0303
  795POPS   GL211354   7.885  16.887   6.416 -0.2896 -0.3065  0.0474
  795POPS   C1A11355   8.409  17.139   6.547 -0.0673  0.0460 -0.0051
  795POPS   D2A11356   8.384  17.116   6.977 -0.2050 -0.1107 -0.1230
  795POPS   C3A11357   8.628  17.093   7.336 -0.0585 -0.3759  0.1753
  795POPS   C4A11358   8.520  16.804   7.588 -0.1399  0.1208  0.3821
  795POPS   C1B11359   8.110  16.675   6.822  0.1522 -0.1136 -0.1704
  795POPS   C2B11360   8.093  16.578   7.258  0.0694 -0.0981  0.1254
  795POPS   C3B11361   7.999  16.582   7.587  0.1295  0.0624 -0.0182
  795POPS   C4B11362   7.843  16.604   7.991 -0.1456  0.2183 -0.1771
  796POPS   CNO11363  16.415   6.798   5.534 -0.2340 -0.3011  0.1583
  796POPS   PO411364  16.362   6.504   5.854  0.1222 -0.1639 -0.2527
  796POPS   GL111365  16.473   6.191   6.156  0.1165 -0.0522  0.3886
  796POPS   GL211366  16.863   6.063   6.023  0.1926  0.0615 -0.0345
  796POPS   C1A11367  16.554   5.835   6.531 -0.1070 -0.1510 -0.1381
  796POPS   D2A11368  16.271   5.729   6.864 -0.4775  0.0482  0.0088
  796POPS   C3A11369  16.443   5.704   7.346  0.3989  0.0350 -0.1631
  796POPS   C4A11370  16.402   5.685   7.769 -0.0908  0.2600  0.1422
  796POPS   C1B11371  17.070   5.916   6.443 -0.0686  0.1002  0.0682
  796POPS   C2B11372  17.093   5.875   6.824  0.5757 -0.2032  0.0847
  796POPS   C3B11373  16.808   5.941   7.023 -0.0856  0.0891 -0.2860
  796POPS   C4B11374  16.772   6.020   7.472  0.1131 -0.1344 -0.3458
  797POPS   CNO11375   9.739  17.190   6.436 -0.4205 -0.0795  0.2261
  797POPS   PO411376   9.844  17.485   6.296  0.0538 -0.0832  0.1561
  797POPS   GL111377   9.612  17.615   6.639 -0.0913  0.1552 -0.1187
  797POPS   GL211378   9.397  17.902   6.581 -0.0348  0.2147 -0.0266
  797POPS   C1A11379   9.331  17.362   6.804 -0.2237 -0.0764 -0.1557
  797POPS   D2A11380   9.017  17.386   7.118  0.2023  0.1397  0.0594
  797POPS   C3A11381   8.894  17.483   7.514 -0.0637  0.2854  0.1003
  797POPS   C4A11382   9.029  17.560   7.906 -0.0087 -0.0626 -0.0598
  797POPS   C1B11383   9.253  17.824   6.913  0.1559  0.0024 -0.4388
  797POPS   C2B11384   9.412  17.664   7.155  0.1680 -0.1765  0.0048
  797POPS   C3B11385   9.427  17.424   7.488 -0.1548  0.5506 -0.2362
  797POPS   C4B11386   9.061  17.035   7.664  0.0266  0.0314  0.2468
  798POPS   CNO11387  17.750   7.246   5.580  0.0509 -0.1715  0.2732
  798POPS   PO411388  17.948   7.338   5.938 -0.0114 -0.0029 -0.0871
  798POPS   GL111389  17.947   7.367   6.313  0.2662 -0.4145 -0.2109
  798POPS   GL211390  18.229   7.529   6.389  0.2272  0.0891  0.2027
  798POPS   C1A11391  17.753   7.322   6.628 -0.0762  0.0352 -0.1753
  798POPS   D2A11392  17.601   7.532   7.008 -0.0117  0.0792  0.0382
  798POPS   C3A11393  17.318   7.909   7.188  0.0393 -0.1238 -0.0131
  798POPS   C4A11394  16.905   7.908   7.320 -0.0070  0.0613  0.0323
  798POPS   C1B11395  18.195   7.600   6.819 -0.0160  0.3331  0.0576
  798POPS   C2B11396  18.259   7.866   7.225  0.2866  0.1046 -0.1561
  798POPS   C3B11397  18.147   8.280   7.576  0.0728 -0.0428 -0.4101
  798POPS   C4B11398  18.256   8.695   7.625 -0.1868 -0.0932 -0.0223
  799POPS   CNO11399   9.446   1.820   5.817 -0.1630  0.1767  0.3441
  799POPS   PO411400   9.310   1.648   6.196 -0.0245  0.2453  0.1224
  799POPS   GL111401   9.376   1.864   6.650 -0.1973 -0.2640  0.0166
  799POPS   GL211402   9.124   1.993   6.686 -0.0951  0.1697  0.0569
  799POPS   C1A11403   9.401   1.880   7.149  0.0661  0.1323  0.2101
  799POPS   D2A11404   9.259   2.101   7.435 -0.1891  0.0849 -0.3272
  799POPS   C3A11405   9.252   2.047   7.927  0.1486  0.1615 -0.1354
  799POPS   C4A11406   9.335   1.973   8.342 -0.0554  0.1331  0.2095
  799POPS   C1B11407   8.766   1.968   7.032 -0.0794  0.1003 -0.1524
  799POPS   C2B11408   8.747   1.941   7.401  0.3539 -0.0070  0.0431
  799POPS   C3B11409   8.743   1.884   7.763  0.0445  0.0948 -0.1058
  799POPS   C4B11410   8.754   2.153   8.179 -0.3257  0.2084 -0.0344
  800POPS   CNO11411   9.974   3.613   5.522  0.0311 -0.0739  0.0696
  800POPS   PO411412   9.816   3.998   5.736  0.0815 -0.0852  0.2376
  800POPS   GL111413   9.855   4.294   6.019  0.0384 -0.3702 -0.1928
  800POPS   GL211414   9.573   4.361   6.082  0.1045  0.1953 -0.0280
  800POPS   C1A11415  10.012   4.476   6.302  0.0782  0.0955  0.0371
  800POPS   D2A11416  10.100   4.725   6.630  0.2209 -0.4544  0.2088
  800POPS   C3A11417   9.775   5.067   6.678 -0.1018  0.1740 -0.0259
  800POPS   C4A11418   9.390   5.246   6.351  0.6161  0.2909 -0.0511
  800POPS   C1B11419   9.313   4.250   6.417 -0.0595  0.1339 -0.2080
  800POPS   C2B11420   9.286   4.334   6.770 -0.0821  0.0630  0.0168
  800POPS   C3B11421   9.394   4.429   7.221  0.1607 -0.0433  0.2871
  800POPS   C4B11422   9.439   4.294   7.677  0.0883  0.2009 -0.1096
  801POPS   CNO11423  14.335   9.648   5.283 -0.1137 -0.3444  0.0603
  801POPS   PO411424  14.682   9.613   5.519 -0.3072 -0.0199  0.2296
  801POPS   GL111425  14.666   9.709   5.994 -0.0684  0.2590  0.0111
  801POPS   GL211426  15.054   9.785   6.096 -0.1750  0.2532 -0.0401
  801POPS   C1A11427  14.453   9.711   6.384 -0.1351  0.2521  0.0049
  801POPS   D2A11428  14.430   9.666   6.864 -0.0522 -0.3629  0.0977
  801POPS   C3A11429  14.137   9.253   6.952 -0.0295 -0.1788 -0.1852
  801POPS   C4A11430  14.095   8.923   7.209  0.0553 -0.2226 -0.1803
  801POPS   C1B11431  14.926   9.788   6.545 -0.3033  0.2099 -0.3081
  801POPS   C2B11432  14.798  10.134   6.751  0.2104 -0.3671  0.1778
  801POPS   C3B11433  14.895  10.233   7.153  0.0853 -0.4031  0.2540
  801POPS   C4B11434  14.698  10.206   7.565 -0.0671  0.0918 -0.0011
  802POPS   CNO11435   5.334   8.074   5.473 -0.0463  0.0436 -0.1313
  802POPS   PO411436   5.587   8.329   5.690 -0.0402 -0.0654 -0.0935
  802POPS   GL111437   5.417   8.449   6.131  0.0249  0.0790  0.2358
  802POPS   GL211438   5.403   8.746   6.271  0.1094  0.0096  0.0969
  802POPS   C1A11439   5.372   8.376   6.618 -0.0077 -0.0586  0.1150
  802POPS   D2A11440   5.537   8.263   7.000  0.0804  0.2558  0.1619
  802POPS   C3A11441   5.395   8.346   7.346 -0.1796  0.0489 -0.1901
  802POPS   C4A11442   5.530   8.291   7.806 -0.1712 -0.1071  0.1188
  802POPS   C1B11443   5.331   8.864   6.704  0.1582  0.0489  0.0294
  802POPS   C2B11444   5.341   8.825   7.141  0.1656  0.0217 -0.1814
  802POPS   C3B11445   5.018   8.874   7.455 -0.2265  0.0376 -0.1132
  802POPS   C4B11446   4.701   9.059   7.518  0.0570  0.2980 -0.1022
  803POPS   CNO11447  14.054   3.794   5.898  0.1444  0.2220  0.1079
  803POPS   PO411448  14.298   3.708   6.152  0.1324  0.1817  0.1204
  803POPS   GL111449  14.604   3.637   6.481 -0.1499  0.0598 -0.0227
  803POPS   GL211450  14.855   3.509   6.280 -0.0699  0.3205 -0.2211
  803POPS   C1A11451  14.772   3.674   6.923  0.0422  0.1734 -0.1191
  803POPS   D2A11452  14.839   3.785   7.416  0.0368  0.3640  0.2282
  803POPS   C3A11453  14.865   4.218   7.641  0.0104  0.2379 -0.0116
  803POPS   C4A11454  14.789   4.468   8.026 -0.3632 -0.1252  0.2282
  803POPS   C1B11455  14.990   3.314   6.637  0.0392  0.0984  0.0407
  803POPS   C2B11456  15.033   3.288   7.058  0.1182 -0.1345 -0.2416
  803POPS   C3B11457  15.028   3.328   7.623  0.3709  0.0872 -0.4043
  803POPS   C4B11458  15.064   3.517   8.083 -0.0926  0.0655  0.0974
  804POPS   CNO11459  15.698   2.951   5.649 -0.1412  0.0115 -0.2386
  804POPS   PO411460  15.702   3.346   5.531 -0.0933  0.1952  0.1193
  804POPS   GL111461  15.884   3.506   5.859 -0.2159 -0.0174 -0.0256
  804POPS   GL211462  15.830   3.383   6.108 -0.1708  0.1965 -0.1490
  804POPS   C1A11463  15.741   3.900   6.019 -0.3669  0.1761 -0.0068
  804POPS   D2A11464  15.720   4.181   6.289 -0.2962  0.0647  0.0031
  804POPS   C3A11465  15.884   4.074   6.690  0.0449  0.1384 -0.4221
  804POPS   C4A11466  15.777   4.104   7.042  0.4444  0.1736  0.1002
  804POPS   C1B11467  15.838   3.612   6.541 -0.1361  0.0374 -0.0817
  804POPS   C2B11468  15.907   3.545   6.994  0.0264  0.0847  0.1568
  804POPS   C3B11469  15.797   3.678   7.340  0.3157 -0.0951 -0.4084
  804POPS   C4B11470  15.807   4.005   7.577  0.1185 -0.1527  0.0767
  805POPS   CNO11471  11.604  13.423   5.388  0.1962  0.0318 -0.3317
  805POPS   PO411472  11.697  13.339   5.753  0.0387  0.3756  0.0847
  805POPS   GL111473  11.832  13.350   6.193  0.0883 -0.1086  0.3163
  805POPS   GL211474  11.643  13.237   6.474  0.0020 -0.2123  0.1051
  805POPS   C1A11475  12.117  13.383   6.444  0.2995 -0.0016 -0.0040
  805POPS   D2A11476  12.604  13.313   6.666  0.0581  0.1387  0.0316
  805POPS   C3A11477  12.818  13.555   6.930 -0.2372 -0.1131  0.0110
  805POPS   C4A11478  13.034  13.731   7.216 -0.2585  0.4535  0.2083
  805POPS   C1B11479  11.621  13.403   6.916 -0.1040 -0.1559  0.0969
  805POPS   C2B11480  11.817  13.582   7.271  0.1739 -0.0825  0.0480
  805POPS   C3B11481  11.730  13.682   7.640 -0.0313  0.1457 -0.1731
  805POPS   C4B11482  11.670  13.451   8.050  0.0214 -0.0373  0.0278
  806POPS   CNO11483  10.777  11.972   5.511 -0.2952  0.0315 -0.0745
  806POPS   PO411484  11.082  11.729   5.777 -0.1581  0.0642 -0.1884
  806POPS   GL111485  11.082  11.658   6.196 -0.2894 -0.0933  0.1053
  806POPS   GL211486  11.255  11.374   6.164  0.2699 -0.2228  0.0479
  806POPS   C1A11487  11.379  11.636   6.591  0.3039 -0.2260 -0.0244
  806POPS   D2A11488  11.591  11.428   6.774  0.0198  0.0588  0.0375
  806POPS   C3A11489  11.672  11.334   7.136  0.4087  0.0103 -0.1238
  806POPS   C4A11490  11.831  11.087   7.484  0.1080  0.2044 -0.3106
  806POPS   C1B11491  11.661  11.544   6.198 -0.0861  0.1608  0.1959
  806POPS   C2B11492  11.881  11.785   6.509  0.1141  0.0288 -0.2392
  806POPS   C3B11493  11.830  11.865   6.949 -0.1513  0.2210 -0.0461
  806POPS   C4B11494  11.643  12.142   7.255 -0.0672  0.0128 -0.0486
  807POPS   CNO11495   7.072  10.045   5.921  0.0475 -0.1229 -0.0429
  807POPS   PO411496   6.635   9.998   5.919  0.2131 -0.2790  0.0705
  807POPS   GL111497   6.419  10.015   6.352 -0.0617 -0.0104  0.0850
  807POPS   GL211498   6.248  10.329   6.269 -0.0297 -0.3170 -0.1556
  807POPS   C1A11499   6.246   9.774   6.654 -0.1031 -0.0768 -0.0155
  807POPS   D2A11500   6.245   9.400   6.905 -0.0212 -0.1249 -0.0702
  807POPS   C3A11501   5.878   9.128   6.825  0.1562 -0.5239  0.1390
  807POPS   C4A11502   5.785   9.025   6.423 -0.1920  0.1482  0.0983
  807POPS   C1B11503   6.336  10.426   6.660 -0.2861  0.1762  0.0880
  807POPS   C2B11504   6.554  10.148   6.884 -0.2940 -0.1900 -0.0192
  807POPS   C3B11505   6.509   9.876   7.270  0.1366  0.1465  0.2223
  807POPS   C4B11506   6.939   9.772   7.498 -0.1760  0.0048  0.0143
  808POPS   CNO11507  12.077  10.425   5.605 -0.0131  0.5485 -0.0518
  808POPS   PO411508  11.965  10.253   6.030  0.2009  0.2572 -0.1900
  808POPS   GL111509  11.837   9.784   6.241 -0.0090 -0.0261  0.4906
  808POPS   GL211510  11.778   9.997   6.440  0.1210 -0.0292  0.2263
  808POPS   C1A11511  11.758   9.606   6.708  0.0152  0.2481 -0.0118
  808POPS   D2A11512  11.757   9.644   7.182  0.0545 -0.0335 -0.1101
  808POPS   C3A11513  11.966   9.559   7.537  0.1566 -0.1588 -0.2119
  808POPS   C4A11514  11.837   9.782   7.944 -0.1181 -0.1555  0.0723
  808POPS   C1B11515  11.896  10.069   6.869 -0.1177 -0.1119  0.1222
  808POPS   C2B11516  11.935  10.098   7.291  0.2472 -0.2040  0.0149
  808POPS   C3B11517  12.104  10.102   7.646  0.0769 -0.1444 -0.0231
  808POPS   C4B11518  12.213  10.112   8.125  0.0837 -0.1568 -0.0170
  809POPS   CNO11519  13.007   6.784   5.877 -0.1066  0.1997 -0.1432
  809POPS   PO411520  13.373   6.566   5.936  0.0576 -0.0441  0.0109
  809POPS   GL111521  13.424   6.766   6.266 -0.0108  0.0096 -0.0989
  809POPS   GL211522  13.691   6.921   6.238  0.0645 -0.1537  0.1314
  809POPS   C1A11523  13.560   6.902   6.738 -0.2512 -0.3271  0.0419
  809POPS   D2A11524  13.544   7.102   7.114 -0.0386 -0.0578  0.0966
  809POPS   C3A11525  13.782   7.375   7.469 -0.0432  0.1156 -0.0529
  809POPS   C4A11526  13.600   7.297   7.895 -0.1170 -0.0669  0.0688
  809POPS   C1B11527  13.980   7.162   6.469 -0.0112  0.1040 -0.3896
  809POPS   C2B11528  14.092   7.078   6.874  0.0639  0.1519 -0.1177
  809POPS   C3B11529  14.067   6.864   7.158  0.1828  0.0806 -0.2251
  809POPS   C4B11530  14.329   6.540   7.413  0.2553 -0.1601  0.0453
  810POPS   CNO11531  10.825  13.831   5.706  0.1314 -0.0615 -0.0071
  810POPS   PO411532  10.959  13.678   5.887  0.1267 -0.0684  0.2284
  810POPS   GL111533  10.922  13.707   6.307 -0.1328 -0.2494 -0.0179
  810POPS   GL211534  11.009  13.980   6.406 -0.0295  0.2023 -0.1959
  810POPS   C1A11535  10.887  13.593   6.751 -0.0162  0.2189  0.0331
  810POPS   D2A11536  10.903  13.407   7.119  0.0460  0.1938  0.0328
  810POPS   C3A11537  10.774  13.408   7.513  0.1913 -0.0140 -0.2128
  810POPS   C4A11538  10.976  13.513   8.024  0.0590  0.1168  0.1995
  810POPS   C1B11539  11.168  14.229   6.759  0.0973 -0.1780 -0.0188
  810POPS   C2B11540  11.221  14.328   7.125  0.3045 -0.4346  0.2927
  810POPS   C3B11541  11.159  14.347   7.558  0.1246 -0.4093 -0.1163
  810POPS   C4B11542  11.313  14.322   7.903  0.1376 -0.1995 -0.2517
  811POPS   CNO11543   9.974  15.372   5.426  0.1558 -0.1375  0.0228
  811POPS   PO411544  10.213  15.027   5.448 -0.1431 -0.0297 -0.0262
  811POPS   GL111545  10.051  14.937   5.904  0.1381  0.2213 -0.1031
  811POPS   GL211546   9.891  14.656   6.066 -0.0725 -0.2212 -0.1087
  811POPS   C1A11547  10.207  14.959   6.281 -0.0193  0.1995  0.3817
  811POPS   D2A11548  10.262  14.788   6.702  0.1118 -0.0254  0.0473
  811POPS   C3A11549  10.245  14.634   7.162 -0.0875  0.0666 -0.0355
  811POPS   C4A11550  10.397  14.718   7.506  0.1996  0.1328  0.1992
  811POPS   C1B11551   9.855  14.601   6.601  0.1038 -0.3297 -0.2373
  811POPS   C2B11552   9.662  14.657   6.947 -0.1465  0.0804 -0.0966
  811POPS   C3B11553   9.529  14.944   7.232 -0.1239  0.0379  0.3483
  811POPS   C4B11554   9.532  15.044   7.610  0.1607  0.3770  0.3235
  812YOPS   CNO11555  12.967   7.965   5.269 -0.1685  0.0374 -0.0784
  812YOPS   PO411556  12.574   8.026   5.569  0.1309 -0.0373 -0.0283
  812YOPS   GL111557  12.547   8.044   5.950 -0.0841  0.0331 -0.1525
  812YOPS   GL211558  12.763   8.064   6.204 -0.0712 -0.2009 -0.0279
  812YOPS   C1A11559  12.205   8.060   6.277 -0.0377  0.1657  0.0771
  812YOPS   D2A11560  11.853   8.298   6.421 -0.0162 -0.2252  0.0416
  812YOPS   C3A11561  11.417   8.276   6.401 -0.0606  0.0909  0.1738
  812YOPS   C4A11562  11.102   8.532   6.653  0.2070 -0.1345  0.2065
  812YOPS   C1B11563  12.688   8.125   6.561 -0.1930  0.2648  0.1953
  812YOPS   C2B11564  12.726   8.360   6.947  0.0036 -0.2668 -0.0452
  812YOPS   D3B11565  12.691   8.473   7.327 -0.2777  0.1815 -0.2823
  812YOPS   C4B11566  12.518   8.730   7.575  0.0424 -0.2882 -0.0488
  813YOPS   CNO11567  12.477  11.665   5.992 -0.2481  0.0688  0.1055
  813YOPS   PO411568  12.133  11.468   5.706  0.2076  0.2374 -0.1841
  813YOPS   GL111569  12.141  11.254   6.179 -0.1393  0.4579  0.1361
  813YOPS   GL211570  12.250  11.451   6.382 -0.0024  0.4190  0.0120
  813YOPS   C1A11571  11.862  11.063   6.548  0.0552  0.0307  0.0846
  813YOPS   D2A11572  11.472  10.958   6.760  0.2953  0.3110  0.0562
  813YOPS   C3A11573  11.224  11.011   7.120 -0.1806 -0.0732 -0.4513
  813YOPS   C4A11574  10.951  10.736   7.334  0.1913  0.2244 -0.1232
  813YOPS   C1B11575  12.108  11.445   6.806 -0.1415  0.1216  0.1432
  813YOPS   C2B11576  12.218  11.491   7.195 -0.0636  0.1176 -0.0132
  813YOPS   D3B11577  11.880  11.604   7.517  0.1835 -0.0605  0.2994
  813YOPS   C4B11578  12.071  11.332   7.860 -0.0771 -0.2610 -0.1158
  814YOPS   CNO11579   6.304   0.771   5.475  0.0902 -0.0642 -0.3380
  814YOPS   PO411580   6.616   1.033   5.765 -0.1267 -0.0753 -0.2345
  814YOPS   GL111581   6.401   1.389   5.957  0.0622  0.1954  0.0048
  814YOPS   GL211582   6.506   1.736   6.092  0.0858  0.2114  0.3217
  814YOPS   C1A11583   6.235   1.420   6.368  0.0345 -0.0011 -0.3719
  814YOPS   D2A11584   6.125   1.569   6.823  0.0005 -0.4142 -0.2423
  814YOPS   C3A11585   5.819   1.733   7.115 -0.1557 -0.2068 -0.0374
  814YOPS   C4A11586   5.549   1.700   7.491 -0.3430 -0.1751  0.0221
  814YOPS   C1B11587   6.574   1.742   6.579 -0.1542  0.2626 -0.2032
  814YOPS   C2B11588   6.570   1.706   6.985  0.3317  0.0580  0.0463
  814YOPS   D3B11589   6.713   2.029   7.144  0.0578 -0.3264 -0.1029
  814YOPS   C4B11590   6.853   2.106   7.511 -0.1206 -0.0092 -0.1218
  815YOPS   CNO11591   7.869  13.682   5.809 -0.4167  0.0358  0.0990
  815YOPS   PO411592   8.145  13.435   6.057 -0.1866  0.0164 -0.1666
  815YOPS   GL111593   8.189  13.413   6.391  0.2544 -0.0392 -0.3901
  815YOPS   GL211594   8.433  13.587   6.481  0.3758 -0.1789 -0.1952
  815YOPS   C1A11595   8.050  13.543   6.777 -0.1166 -0.1852  0.0757
  815YOPS   D2A11596   7.747  13.687   7.013 -0.1228 -0.0603 -0.0891
  815YOPS   C3A11597   7.536  13.544   7.327  0.0279  0.3652 -0.1404
  815YOPS   C4A11598   7.684  13.592   7.673  0.0074 -0.0571 -0.0729
  815YOPS   C1B11599   8.501  13.708   6.954  0.2106  0.0287  0.0028
  815YOPS   C2B11600   8.141  13.687   7.281 -0.0575 -0.1136  0.0589
  815YOPS   D3B11601   8.015  13.981   7.580  0.0103  0.2895  0.2012
  815YOPS   C4B11602   8.212  13.991   8.003 -0.0993 -0.3316 -0.0607
  816YOPS   CNO11603   5.458  15.115   5.533  0.0202 -0.0615  0.1594
  816YOPS   PO411604   5.574  15.538   5.732  0.0583 -0.2035  0.0040
  816YOPS   GL111605   5.696  15.512   6.167 -0.1801  0.0073 -0.2616
  816YOPS   GL211606   5.409  15.557   6.388  0.0073  0.0023  0.2120
  816YOPS   C1A11607   5.791  15.240   6.559 -0.1813 -0.2860  0.2189
  816YOPS   D2A11608   5.826  14.884   6.488 -0.1559  0.0511  0.1681
  816YOPS   C3A11609   6.114  14.552   6.507  0.1054  0.1360  0.1691
  816YOPS   C4A11610   6.295  14.326   6.865 -0.2536 -0.2792  0.1322
  816YOPS   C1B11611   5.253  15.452   6.681  0.3194 -0.1324  0.0737
  816YOPS   C2B11612   5.131  15.392   7.085  0.3038  0.3559  0.1685
  816YOPS   D3B11613   5.171  15.229   7.570  0.1738 -0.1564  0.0058
  816YOPS   C4B11614   5.017  14.894   7.829  0.4182  0.0261  0.3479
  817YOPS   CNO11615  14.281  12.726   5.904 -0.3230  0.2615 -0.0844
  817YOPS   PO411616  14.477  12.543   5.599 -0.2229 -0.0281 -0.1419
  817YOPS   GL111617  14.630  12.309   5.970 -0.1568  0.2025  0.3871
  817YOPS   GL211618  14.671  12.521   6.166  0.0437  0.4593 -0.3328
  817YOPS   C1A11619  14.709  12.051   6.276 -0.0175 -0.1498  0.0893
  817YOPS   D2A11620  14.735  11.893   6.726 -0.2487 -0.1467  0.0451
  817YOPS   C3A11621  14.791  12.054   7.140  0.1878  0.2762  0.3344
  817YOPS   C4A11622  14.665  12.103   7.473  0.0886 -0.0447 -0.0131
  817YOPS   C1B11623  14.729  12.642   6.617 -0.1221  0.0381 -0.1467
  817YOPS   C2B11624  14.737  12.698   7.088 -0.2623  0.2340 -0.0052
  817YOPS   D3B11625  14.901  12.562   7.444  0.0090 -0.0225 -0.0674
  817YOPS   C4B11626  15.143  12.120   7.538  0.3098 -0.0865  0.2797
  818YOPS   CNO11627  17.153   5.620   5.564  0.1720  0.2936 -0.0960
  818YOPS   PO411628  16.725   5.697   5.673 -0.2148  0.1535  0.0880
  818YOPS   GL111629  16.863   5.585   6.143 -0.1365  0.1073 -0.0447
  818YOPS   GL211630  17.088   5.373   6.100  0.2735  0.0812 -0.0849
  818YOPS   C1A11631  16.810   5.456   6.567  0.0824  0.0765 -0.0150
  818YOPS   D2A11632  16.725   5.404   6.986  0.1601  0.0994 -0.1085
  818YOPS   C3A11633  16.915   5.438   7.344 -0.2388  0.0531  0.2102
  818YOPS   C4A11634  16.741   5.383   7.712  0.0561  0.0459  0.0146
  818YOPS   C1B11635  17.314   5.503   6.521 -0.0009  0.2746  0.0050
  818YOPS   C2B11636  17.299   5.448   6.995 -0.0207  0.0219  0.1169
  818YOPS   D3B11637  17.318   5.038   7.198  0.1667 -0.0016  0.2597
  818YOPS   C4B11638  17.458   4.806   7.572 -0.0812 -0.1677  0.1100
  819YOPS   CNO11639   4.040  13.684   5.766  0.1096 -0.1497 -0.1936
  819YOPS   PO411640   4.130  13.277   5.828  0.0976 -0.2931 -0.1816
  819YOPS   GL111641   4.308  13.492   6.176 -0.1370 -0.2077  0.0495
  819YOPS   GL211642   3.921  13.644   6.278  0.2080  0.2473  0.1141
  819YOPS   C1A11643   4.351  13.655   6.561  0.2563  0.0275 -0.0017
  819YOPS   D2A11644   4.137  13.834   6.919  0.0389  0.2059 -0.1874
  819YOPS   C3A11645   4.086  13.717   7.388 -0.0899  0.2749  0.3976
  819YOPS   C4A11646   3.630  13.527   7.552  0.0330 -0.1050 -0.2301
  819YOPS   C1B11647   3.820  13.540   6.689 -0.1966  0.0316 -0.0421
  819YOPS   C2B11648   3.725  13.575   7.087  0.1126 -0.0191 -0.3470
  819YOPS   D3B11649   3.813  13.146   7.300  0.0868 -0.2758  0.1393
  819YOPS   C4B11650   4.046  13.218   7.661  0.0678 -0.0077  0.2324
  820YOPS   CNO11651   1.655  11.647   5.530 -0.1033 -0.2139  0.2375
  820YOPS   PO411652   1.187  11.452   5.451 -0.0944 -0.0015 -0.3144
  820YOPS   GL111653   1.007  11.483   5.883 -0.0131  0.1898 -0.0088
  820YOPS   GL211654   0.850  11.774   5.917  0.1704  0.1177 -0.1258
  820YOPS   C1A11655   0.834  11.283   6.199 -0.0268 -0.0784 -0.0540
  820YOPS   D2A11656   0.798  10.898   6.458 -0.1603  0.0194  0.0269
  820YOPS   C3A11657   0.763  10.842   6.829  0.2836 -0.1042  0.2839
  820YOPS   C4A11658   0.999  10.704   7.225  0.0348 -0.0382  0.1279
  820YOPS   C1B11659   0.994  11.687   6.407 -0.1246 -0.3401 -0.2099
  820YOPS   C2B11660   0.965  11.413   6.784 -0.2665 -0.2226  0.0723
  820YOPS   D3B11661   1.007  11.268   7.199  0.0966  0.1474 -0.1175
  820YOPS   C4B11662   1.331  11.053   7.298 -0.2916  0.2581 -0.1425
  821YOPS   CNO11663   0.597   0.076   5.880  0.1501 -0.1372  0.0674
  821YOPS   PO411664   0.447   0.457   6.015  0.1754  0.0208 -0.1246
  821YOPS   GL111665   0.736   0.593   6.369  0.0630  0.1161 -0.1332
  821YOPS   GL211666   0.953   0.734   6.336  0.0269 -0.1751  0.0247
  821YOPS   C1A11667   1.006   0.712   6.803 -0.3489 -0.2909 -0.0163
  821YOPS   D2A11668   1.107   0.829   7.229  0.3153  0.2982  0.3598
  821YOPS   C3A11669   1.254   1.077   7.525 -0.1535  0.1654 -0.2951
  821YOPS   C4A11670   1.106   0.759   7.837  0.0758  0.1493 -0.1837
  821YOPS   C1B11671   1.191   0.445   6.382 -0.0115  0.0845 -0.2226
  821YOPS   C2B11672   1.364   0.346   6.777 -0.1396 -0.2407  0.3122
  821YOPS   D3B11673   1.480   0.088   7.007 -0.1324  0.1638  0.1022
  821YOPS   C4B11674   1.408   0.005   7.448  0.0477 -0.2465  0.1918
  822YOPS   CNO11675   2.626   3.838   5.988  0.0113  0.1385 -0.1479
  822YOPS   PO411676   2.929   3.520   5.890  0.1968 -0.0830 -0.3566
  822YOPS   GL111677   3.153   3.488   6.266  0.5006 -0.3620 -0.0672
  822YOPS   GL211678   3.068   3.613   6.515 -0.2674  0.1034 -0.2283
  822YOPS   C1A11679   3.101   3.172   6.681  0.0188 -0.0349  0.1662
  822YOPS   D2A11680   3.027   3.087   7.073  0.0098 -0.1017 -0.3561
  822YOPS   C3A11681   2.924   3.385   7.364  0.3397  0.0333  0.0746
  822YOPS   C4A11682   2.673   3.268   7.822  0.2511 -0.2127 -0.0646
  822YOPS   C1B11683   3.281   3.653   6.895 -0.1668 -0.1990  0.1006
  822YOPS   C2B11684   3.429   3.359   7.241 -0.4028 -0.0838  0.0237
  822YOPS   D3B11685   3.527   3.428   7.656 -0.3091  0.3165 -0.2063
  822YOPS   C4B11686   3.478   3.807   7.915 -0.0101  0.4601 -0.1093
  823YOPS   CNO11687  11.914  10.949   5.639 -0.0639 -0.1682 -0.1386
  823YOPS   PO411688  12.144  10.756   5.982 -0.2699  0.2797  0.2136
  823YOPS   GL111689  12.223  10.713   6.379 -0.1942 -0.2048 -0.0892
  823YOPS   GL211690  12.294  10.392   6.533  0.0238 -0.0409  0.1963
  823YOPS   C1A11691  12.295  10.897   6.688 -0.2821  0.0448  0.3655
  823YOPS   D2A11692  12.122  10.968   7.029  0.0276  0.0115  0.0910
  823YOPS   C3A11693  12.296  11.002   7.502 -0.2165 -0.5511  0.0963
  823YOPS   C4A11694  12.480  10.942   7.894  0.1120  0.2226 -0.0495
  823YOPS   C1B11695  12.239  10.386   6.997  0.0096  0.0844  0.0514
  823YOPS   C2B11696  12.153  10.572   7.364 -0.1381 -0.0997 -0.0334
  823YOPS   D3B11697  11.927  10.628   7.650 -0.1220 -0.3635  0.1596
  823YOPS   C4B11698  12.124  10.679   8.032  0.0813  0.1518 -0.2262
  824YOPS   CNO11699   7.795   0.245   6.048 -0.0450 -0.0264 -0.0387
  824YOPS   PO411700   7.656  -0.169   5.949 -0.2128 -0.1435 -0.1652
  824YOPS   GL111701   7.506  -0.051   6.385  0.0757 -0.0508 -0.3059
  824YOPS   GL211702   7.664  -0.106   6.647 -0.1954 -0.1125 -0.1889
  824YOPS   C1A11703   7.186   0.037   6.710  0.0316 -0.0381  0.0441
  824YOPS   D2A11704   6.926   0.277   6.995 -0.0509  0.5353  0.1247
  824YOPS   C3A11705   6.937   0.367   7.407  0.1627  0.1275 -0.0660
  824YOPS   C4A11706   7.237   0.509   7.708 -0.0610  0.3054  0.0254
  824YOPS   C1B11707   7.495  -0.176   7.089  0.0032  0.0734 -0.1143
  824YOPS   C2B11708   7.635  -0.371   7.358 -0.1366  0.0795  0.3179
  824YOPS   D3B11709   7.965  -0.445   7.447  0.1793  0.0663  0.5082
  824YOPS   C4B11710   8.162  -0.694   7.805 -0.2576  0.0397 -0.1348
  825YOPS   CNO11711   5.520   1.254   5.596  0.1021 -0.1330  0.0764
  825YOPS   PO411712   5.812   0.888   5.710  0.0654 -0.2085 -0.0525
  825YOPS   GL111713   5.912   1.185   6.022 -0.0955 -0.2519  0.0608
  825YOPS   GL211714   5.871   0.873   6.322  0.0076  0.0879  0.1074
  825YOPS   C1A11715   5.714   1.493   6.295  0.0944 -0.2954  0.0271
  825YOPS   D2A11716   5.494   1.519   6.735  0.1529  0.0171 -0.2533
  825YOPS   C3A11717   5.379   1.385   7.101 -0.1586 -0.1378 -0.0979
  825YOPS   C4A11718   5.439   0.989   7.214  0.0350  0.0042 -0.0253
  825YOPS   C1B11719   5.873   1.112   6.558  0.4612 -0.1612  0.1630
  825YOPS   C2B11720   5.846   1.222   6.984  0.0885 -0.0416  0.3774
  825YOPS   D3B11721   5.920   1.274   7.382 -0.0166 -0.0773 -0.0053
  825YOPS   C4B11722   5.598   1.244   7.686 -0.0461  0.1395  0.3976
  826YOPS   CNO11723   4.145   4.618   5.254 -0.1858 -0.0918 -0.4564
  826YOPS   PO411724   4.101   4.835   5.686  0.2740 -0.1637  0.1688
  826YOPS   GL111725   4.191   4.812   6.133 -0.1665 -0.1749 -0.2540
  826YOPS   GL211726   4.378   4.613   6.206  0.3183 -0.0467 -0.1595
  826YOPS   C1A11727   4.193   4.871   6.578 -0.2584 -0.1134  0.1909
  826YOPS   D2A11728   4.130   4.872   7.037 -0.0212  0.0639  0.0385
  826YOPS   C3A11729   3.783   5.194   7.214 -0.1257 -0.0012 -0.2319
  826YOPS   C4A11730   4.064   5.502   7.411 -0.1847  0.0443 -0.0944
  826YOPS   C1B11731   4.482   4.457   6.531 -0.2826  0.0604 -0.3906
  826YOPS   C2B11732   4.482   4.439   6.903  0.1063 -0.2619  0.1784
  826YOPS   D3B11733   4.452   4.631   7.340 -0.1871  0.1026  0.1311
  826YOPS   C4B11734   4.642   4.729   7.550 -0.0607 -0.1528 -0.1278
  827YOPS   CNO11735   6.043   4.094   5.392 -0.1241  0.0162  0.1167
  827YOPS   PO411736   6.102   3.702   5.639 -0.2920 -0.0892 -0.2033
  827YOPS   GL111737   6.173   3.662   6.008 -0.1198 -0.1409 -0.0454
  827YOPS   GL211738   6.326   3.355   5.987  0.4487 -0.4896  0.0486
  827YOPS   C1A11739   6.009   3.418   6.433 -0.0445  0.1502  0.0014
  827YOPS   D2A11740   6.026   3.490   6.915  0.2625 -0.1554 -0.1537
  827YOPS   C3A11741   5.944   3.412   7.385  0.0755  0.2054 -0.1651
  827YOPS   C4A11742   5.980   3.006   7.540  0.2711  0.2358 -0.1839
  827YOPS   C1B11743   6.448   3.192   6.403  0.0635  0.0532  0.2799
  827YOPS   C2B11744   6.475   3.315   6.807  0.0871  0.4297 -0.0102
  827YOPS   D3B11745   6.415   3.487   7.219 -0.0168 -0.0784  0.1559
  827YOPS   C4B11746   6.385   3.495   7.656 -0.0387  0.0602 -0.2526
  828YOPS   CNO11747   7.778   9.496   5.829 -0.0609  0.1462 -0.2121
  828YOPS   PO411748   7.540   9.792   5.740  0.0872  0.0152  0.0213
  828YOPS   GL111749   7.741   9.916   6.054 -0.1728  0.1107 -0.3034
  828YOPS   GL211750   7.449  10.065   6.262  0.0335  0.1408 -0.1834
  828YOPS   C1A11751   7.868   9.881   6.560  0.2472  0.1671  0.1542
  828YOPS   D2A11752   7.824   9.725   6.936  0.1019 -0.2122  0.1548
  828YOPS   C3A11753   7.903   9.603   7.382  0.0640 -0.2357  0.1991
  828YOPS   C4A11754   7.733   9.344   7.653  0.0941  0.1749 -0.1213
  828YOPS   C1B11755   7.434  10.211   6.745  0.3853  0.1357  0.0098
  828YOPS   C2B11756   7.379  10.435   7.058 -0.1610 -0.3787 -0.0733
  828YOPS   D3B11757   6.998  10.552   7.309 -0.2568 -0.1763  0.2329
  828YOPS   C4B11758   6.754  10.271   7.451  0.1608  0.1165 -0.2864
  829YOPS   CNO11759  11.257   7.705   5.382 -0.2696  0.0746 -0.0803
  829YOPS   PO411760  11.310   7.765   5.724 -0.1315  0.0478  0.0747
  829YOPS   GL111761  11.187   7.593   6.162  0.0187 -0.3787 -0.0864
  829YOPS   GL211762  11.102   7.900   6.308 -0.0466  0.0465  0.0594
  829YOPS   C1A11763  11.276   7.460   6.576  0.0547 -0.0481 -0.2684
  829YOPS   D2A11764  11.070   7.582   6.930  0.0112  0.2315 -0.1074
  829YOPS   C3A11765  11.151   7.585   7.302 -0.2373 -0.0596 -0.0104
  829YOPS   C4A11766  11.648   7.564   7.408 -0.0517 -0.3494 -0.0607
  829YOPS   C1B11767  11.017   8.031   6.703 -0.1808  0.0192 -0.1473
  829YOPS   C2B11768  10.971   8.041   7.190  0.1232 -0.1476 -0.1012
  829YOPS   D3B11769  11.052   8.175   7.570  0.1302 -0.1510  0.1056
  829YOPS   C4B11770  11.294   8.493   7.708 -0.3080 -0.0716  0.2370
  830YOPS   CNO11771   8.218   7.163   5.199  0.0556  0.1602 -0.1130
  830YOPS   PO411772   8.439   6.871   5.330 -0.0499  0.2950  0.2304
  830YOPS   GL111773   8.455   6.816   5.837  0.1774 -0.1864 -0.2030
  830YOPS   GL211774   8.283   7.087   5.935 -0.0881 -0.1971 -0.0185
  830YOPS   C1A11775   8.396   6.451   6.121  0.0055 -0.0270  0.0149
  830YOPS   D2A11776   8.228   6.294   6.581 -0.0668 -0.1575 -0.0569
  830YOPS   C3A11777   8.004   6.259   6.967  0.1183  0.0404  0.1430
  830YOPS   C4A11778   8.055   6.661   6.913  0.0720 -0.0611 -0.0217
  830YOPS   C1B11779   8.122   7.213   6.363 -0.4405  0.1395  0.2304
  830YOPS   C2B11780   8.153   7.189   6.775  0.1881  0.0067 -0.1306
  830YOPS   D3B11781   8.089   7.212   7.248  0.1305 -0.0684 -0.1751
  830YOPS   C4B11782   8.124   6.899   7.531 -0.0398  0.2829  0.0396
  831YOPS   CNO11783  14.894  16.903   6.239 -0.1552  0.1273  0.1077
  831YOPS   PO411784  15.100  17.236   6.265  0.2477  0.0983  0.2298
  831YOPS   GL111785  15.232  17.242   6.722  0.0941 -0.1973 -0.1570
  831YOPS   GL211786  15.083  17.027   6.762 -0.1246 -0.3560  0.1867
  831YOPS   C1A11787  15.294  17.306   7.124 -0.2299 -0.2205 -0.1249
  831YOPS   D2A11788  15.209  17.242   7.519  0.0551 -0.1122  0.2938
  831YOPS   C3A11789  15.216  17.220   8.007  0.0903  0.2435 -0.2328
  831YOPS   C4A11790  14.855  17.556   8.033  0.2367 -0.2372 -0.1000
  831YOPS   C1B11791  15.099  16.893   7.132 -0.0485 -0.0038 -0.0543
  831YOPS   C2B11792  15.024  16.680   7.565  0.2317 -0.2195 -0.1651
  831YOPS   D3B11793  14.890  16.213   7.737  0.0762  0.1198 -0.1067
  831YOPS   C4B11794  14.719  16.060   8.186 -0.0740 -0.1044 -0.1672
  832YOPS   CNO11795  17.559  17.935   5.648 -0.0298 -0.3985  0.1254
  832YOPS   PO411796  17.125  17.924   5.919 -0.1609  0.0125  0.0025
  832YOPS   GL111797  17.401  17.992   6.352  0.0803 -0.3082 -0.1806
  832YOPS   GL211798  17.625  18.104   6.308  0.2621  0.0620 -0.2363
  832YOPS   C1A11799  17.398  18.065   6.828  0.0908 -0.3111  0.1298
  832YOPS   D2A11800  17.477  18.014   7.335 -0.0748  0.1917 -0.0699
  832YOPS   C3A11801  17.691  18.244   7.657  0.0222 -0.3301  0.0946
  832YOPS   C4A11802  17.680  18.189   8.184 -0.3057 -0.1211 -0.0360
  832YOPS   C1B11803  17.891  17.763   6.566 -0.0978 -0.2711  0.2348
  832YOPS   C2B11804  18.185  17.809   6.852  0.0791  0.0651  0.0336
  832YOPS   D3B11805  18.293  17.613   7.219  0.1552  0.1135 -0.5042
  832YOPS   C4B11806  18.259  17.488   7.590  0.1316  0.2384  0.6283
  833YOPS   CNO11807   7.634   6.011   4.890 -0.0542  0.0693 -0.3028
  833YOPS   PO411808   7.846   6.034   5.302 -0.2994  0.0793 -0.0361
  833YOPS   GL111809   7.758   6.230   5.698 -0.2016 -0.1500  0.1180
  833YOPS   GL211810   7.503   6.400   5.680  0.1850 -0.2142  0.1289
  833YOPS   C1A11811   7.702   6.207   6.159 -0.0176 -0.1212 -0.2361
  833YOPS   D2A11812   7.684   6.364   6.564  0.0149 -0.2900 -0.0619
  833YOPS   C3A11813   7.507   6.378   6.967 -0.4089 -0.1147 -0.1482
  833YOPS   C4A11814   7.702   6.437   7.422 -0.3152 -0.1014 -0.0421
  833YOPS   C1B11815   7.361   6.542   6.128 -0.0580  0.1416  0.0093
  833YOPS   C2B11816   7.150   6.631   6.599 -0.1266 -0.1073 -0.0905
  833YOPS   D3B11817   7.180   6.747   6.975  0.2893 -0.0426  0.0912
  833YOPS   C4B11818   7.227   7.189   7.069 -0.1365  0.4275  0.0072
  834YOPS   CNO11819   7.528   2.886   5.330  0.0701  0.0605 -0.2835
  834YOPS   PO411820   7.196   2.793   5.546 -0.1852 -0.0381 -0.2676
  834YOPS   GL111821   7.344   2.723   5.969 -0.0289 -0.0835  0.0909
  834YOPS   GL211822   7.558   2.908   6.156  0.0133  0.0149 -0.1289
  834YOPS   C1A11823   7.205   2.546   6.342 -0.1423 -0.0146 -0.2502
  834YOPS   D2A11824   7.132   2.560   6.727  0.3059  0.0860  0.0683
  834YOPS   C3A11825   7.094   2.369   7.123  0.1631  0.0614 -0.0413
  834YOPS   C4A11826   7.320   2.462   7.374 -0.0664 -0.4417 -0.1386
  834YOPS   C1B11827   7.507   2.908   6.707  0.0124 -0.0511  0.0775
  834YOPS   C2B11828   7.345   2.891   7.096 -0.0851 -0.0523 -0.0740
  834YOPS   D3B11829   6.972   2.828   7.327  0.1773  0.1160 -0.1105
  834YOPS   C4B11830   6.974   2.938   7.811 -0.0099  0.1108  0.2980
  835YOPS   CNO11831  14.038   3.297   5.824 -0.1122 -0.0428 -0.0150
  835YOPS   PO411832  13.775   3.375   6.127  0.2649 -0.1932 -0.2600
  835YOPS   GL111833  13.949   3.462   6.541  0.2158  0.1772  0.3081
  835YOPS   GL211834  14.161   3.589   6.657  0.4764  0.0007  0.2685
  835YOPS   C1A11835  13.986   3.230   6.920  0.2346  0.0373 -0.0619
  835YOPS   D2A11836  14.051   3.275   7.265 -0.1126  0.2023  0.0955
  835YOPS   C3A11837  14.065   3.305   7.689 -0.0300 -0.1660  0.2604
  835YOPS   C4A11838  14.029   3.068   8.010  0.3621 -0.1294  0.2883
  835YOPS   C1B11839  14.290   3.688   7.096  0.2403  0.1918  0.0577
  835YOPS   C2B11840  14.278   3.727   7.552  0.3543  0.0255  0.1425
  835YOPS   D3B11841  14.212   3.647   8.030 -0.2231  0.1270 -0.1871
  835YOPS   C4B11842  14.061   3.402   8.408  0.2512 -0.1252  0.0883
  836YOPS   CNO11843  11.142   3.155   5.947  0.1707  0.0546  0.3765
  836YOPS   PO411844  11.377   2.766   5.957  0.0773  0.1033 -0.0573
  836YOPS   GL111845  11.515   2.975   6.351 -0.0204  0.1854 -0.3006
  836YOPS   GL211846  11.818   2.966   6.386  0.0428 -0.1280 -0.0726
  836YOPS   C1A11847  11.552   3.260   6.698 -0.0774  0.2010  0.3566
  836YOPS   D2A11848  11.567   3.241   7.108 -0.0712  0.0785 -0.0579
  836YOPS   C3A11849  11.569   3.052   7.567  0.2324  0.0904 -0.0027
  836YOPS   C4A11850  12.010   3.189   7.795  0.2071  0.0343 -0.3581
  836YOPS   C1B11851  11.957   2.975   6.834 -0.3728  0.0602 -0.0855
  836YOPS   C2B11852  11.932   2.946   7.262  0.3130  0.2990  0.0678
  836YOPS   D3B11853  12.131   2.767   7.592 -0.0247  0.0638  0.0572
  836YOPS   C4B11854  11.974   2.448   7.824 -0.4172  0.0781 -0.1082
  837YOPS   CNO11855   3.498   0.309   5.580  0.1599  0.1025 -0.0616
  837YOPS   PO411856   3.754   0.222   5.850  0.0718  0.1458 -0.3385
  837YOPS   GL111857   3.750   0.263   6.380 -0.0060  0.0284  0.1745
  837YOPS   GL211858   3.703  -0.085   6.426 -0.1335  0.0562  0.4137
  837YOPS   C1A11859   3.781   0.496   6.700 -0.1306 -0.0736 -0.2062
  837YOPS   D2A11860   3.896   0.863   6.880  0.0159 -0.0059  0.0446
  837YOPS   C3A11861   3.902   0.891   7.378  0.3546 -0.2209  0.4026
  837YOPS   C4A11862   4.351   1.051   7.506 -0.2563  0.1187 -0.4357
  837YOPS   C1B11863   3.558   0.098   6.854  0.0370  0.0346  0.0296
  837YOPS   C2B11864   3.448   0.092   7.284 -0.0768 -0.2120  0.0951
  837YOPS   D3B11865   3.420   0.189   7.741 -0.2348  0.0140  0.0287
  837YOPS   C4B11866   3.758   0.344   8.021  0.3242 -0.1756 -0.1989
  838YOPS   CNO11867   7.093   1.201   5.702  0.2711 -0.0135  0.1296
  838YOPS   PO411868   7.270   1.617   5.921 -0.4085  0.0005  0.0525
  838YOPS   GL111869   7.021   1.820   6.172 -0.3360 -0.0111  0.1549
  838YOPS   GL211870   6.874   2.168   6.249 -0.3170 -0.0450 -0.0030
  838YOPS   C1A11871   7.059   1.613   6.607  0.0224 -0.2406  0.0123
  838YOPS   D2A11872   7.120   1.744   7.036  0.2751 -0.1024  0.3056
  838YOPS   C3A11873   7.198   1.723   7.480  0.0507 -0.0787  0.1657
  838YOPS   C4A11874   7.127   1.353   7.733 -0.1652  0.3205 -0.3733
  838YOPS   C1B11875   6.471   2.174   6.346  0.0256  0.1704  0.1527
  838YOPS   C2B11876   6.373   2.134   6.782 -0.0769  0.0584 -0.0383
  838YOPS   D3B11877   6.238   2.067   7.096  0.1012 -0.1354  0.0041
  838YOPS   C4B11878   6.210   1.673   7.400 -0.1925  0.1354  0.1937
  839YOPS   CNO11879   8.895   0.292   5.446 -0.2230  0.0535  0.0287
  839YOPS   PO411880   8.509   0.335   5.685  0.4359  0.0424  0.3177
  839YOPS   GL111881   8.531   0.292   6.119  0.1130  0.1877  0.0111
  839YOPS   GL211882   8.225   0.481   6.157 -0.0068 -0.0107 -0.0743
  839YOPS   C1A11883   8.417   0.259   6.554  0.0758 -0.1569 -0.2229
  839YOPS   D2A11884   8.276   0.344   6.962  0.1894 -0.0205 -0.1031
  839YOPS   C3A11885   8.083   0.435   7.323 -0.2165  0.0352 -0.0763
  839YOPS   C4A11886   8.252   0.440   7.689  0.1571 -0.0181 -0.1023
  839YOPS   C1B11887   7.966   0.435   6.541  0.0174 -0.2097 -0.0460
  839YOPS   C2B11888   7.862   0.684   6.952  0.0211 -0.0298  0.1350
  839YOPS   D3B11889   7.748   0.813   7.336  0.0939  0.1587 -0.1824
  839YOPS   C4B11890   7.399   1.014   7.444 -0.0181  0.0445 -0.0682
  840YOPS   CNO11891   4.363   4.355   5.802 -0.0401 -0.2235 -0.4990
  840YOPS   PO411892   4.556   3.838   5.754  0.1626  0.0624 -0.0857
  840YOPS   GL111893   4.324   4.001   6.136  0.2506 -0.3664 -0.2991
  840YOPS   GL211894   4.043   4.138   6.122  0.2540  0.0722  0.0103
  840YOPS   C1A11895   4.144   3.854   6.515  0.1034  0.1600 -0.0739
  840YOPS   D2A11896   4.081   3.931   6.902 -0.0686  0.1974  0.1010
  840YOPS   C3A11897   4.153   4.171   7.181 -0.1087 -0.0498 -0.0111
  840YOPS   C4A11898   3.938   4.513   7.401 -0.2497  0.1333  0.0796
  840YOPS   C1B11899   3.959   4.345   6.458  0.1107  0.1516  0.1098
  840YOPS   C2B11900   3.885   4.536   6.831  0.0731  0.1465 -0.1908
  840YOPS   D3B11901   3.618   4.826   6.895 -0.1661 -0.0523 -0.0183
  840YOPS   C4B11902   3.863   5.218   6.720  0.1062  0.1059 -0.2642
  841YOPS   CNO11903   9.535  11.556   5.425  0.1324  0.2687  0.1102
  841YOPS   PO411904   9.695  11.349   5.653  0.0095 -0.1374  0.0775
  841YOPS   GL111905   9.733  11.659   6.121 -0.2243  0.2208  0.2055
  841YOPS   GL211906   9.659  11.998   6.116 -0.2001 -0.0295  0.0414
  841YOPS   C1A11907   9.615  11.413   6.482 -0.0771 -0.2054 -0.1064
  841YOPS   D2A11908   9.577  11.407   7.022  0.1400  0.2949  0.1608
  841YOPS   C3A11909   9.462  11.208   7.329 -0.1727  0.1383 -0.0926
  841YOPS   C4A11910   9.749  10.818   7.492  0.0103 -0.0688  0.4921
  841YOPS   C1B11911   9.833  11.932   6.502 -0.1951 -0.0885 -0.0701
  841YOPS   C2B11912   9.971  11.756   6.914 -0.1004  0.1922  0.1254
  841YOPS   D3B11913   9.868  11.641   7.347  0.0899 -0.4798 -0.3253
  841YOPS   C4B11914   9.942  11.785   7.771  0.2695 -0.1172  0.0927
  842POPE   NH311915  12.809  12.947   5.351 -0.0530 -0.1168  0.2312
  842POPE   PO411916  13.016  12.650   5.637  0.1435 -0.0923  0.1576
  842POPE   GL111917  12.904  12.872   5.920 -0.0101 -0.2566  0.1982
  842POPE   GL211918  12.957  12.709   6.234  0.2523 -0.3839 -0.2178
  842POPE   C1A11919  12.570  13.096   6.245  0.0166  0.1233 -0.2239
  842POPE   D2A11920  12.255  12.892   6.459  0.0844  0.0305  0.0738
  842POPE   C3A11921  12.390  12.481   6.685  0.0568 -0.2219 -0.0556
  842POPE   C4A11922  12.252  12.114   6.723  0.1482  0.2792 -0.0145
  842POPE   C1B11923  12.762  12.787   6.582 -0.3643 -0.0476 -0.0322
  842POPE   C2B11924  12.554  12.862   6.965 -0.1329  0.1248  0.1008
  842POPE   C3B11925  12.644  13.119   7.159 -0.2189 -0.0676  0.4415
  842POPE   C4B11926  12.676  13.475   7.412 -0.2354 -0.0634  0.0991
  843POPE   NH311927   0.790   2.957   5.752 -0.0048 -0.0731  0.3433
  843POPE   PO411928   1.234   2.810   5.917 -0.0481 -0.0491  0.0427
  843POPE   GL111929   1.204   2.739   6.272 -0.0333  0.2327 -0.3388
  843POPE   GL211930   0.908   2.555   6.213 -0.3868  0.1351 -0.0742
  843POPE   C1A11931   1.113   2.486   6.687 -0.1096 -0.0997 -0.0948
  843POPE   D2A11932   0.946   2.625   7.039 -0.2232 -0.1136  0.0762
  843POPE   C3A11933   1.209   2.624   7.365 -0.1412  0.3540 -0.0340
  843POPE   C4A11934   0.964   2.577   7.786 -0.1509 -0.1513 -0.0013
  843POPE   C1B11935   0.754   2.804   6.436  0.1589 -0.0581 -0.0784
  843POPE   C2B11936   0.689   2.955   6.836 -0.1934 -0.1611  0.1798
  843POPE   C3B11937   0.810   3.055   7.266  0.1337  0.0820 -0.3275
  843POPE   C4B11938   1.049   3.024   7.587  0.0003 -0.3308  0.0183
  844POPE   NH311939  10.876   3.269   5.184  0.0303  0.1018 -0.0988
  844POPE   PO411940  10.747   3.147   5.647  0.0927  0.0392 -0.0828
  844POPE   GL111941  10.674   3.111   6.127 -0.2502  0.0419  0.3764
  844POPE   GL211942  10.393   3.172   6.276  0.1087  0.2367 -0.0680
  844POPE   C1A11943  10.686   3.034   6.589  0.5313 -0.0886  0.0559
  844POPE   D2A11944  10.641   3.034   7.047 -0.0841  0.1112 -0.1421
  844POPE   C3A11945  10.284   2.786   7.239 -0.0942 -0.2007 -0.0787
  844POPE   C4A11946  10.302   2.383   7.040 -0.0494 -0.2347 -0.0851
  844POPE   C1B11947  10.100   3.436   6.467 -0.1428 -0.0108  0.2092
  844POPE   C2B11948  10.016   3.807   6.791 -0.0313  0.0711  0.1756
  844POPE   C3B11949  10.151   3.845   7.221  0.0183 -0.0998 -0.1052
  844POPE   C4B11950  10.221   4.091   7.543 -0.0117  0.0316 -0.1799
  845POPE   NH311951   3.733   5.822   5.594  0.0708 -0.0463  0.0736
  845POPE   PO411952   3.876   6.210   5.607  0.2254  0.0132 -0.0743
  845POPE   GL111953   3.950   6.307   6.062 -0.1348  0.1262  0.0195
  845POPE   GL211954   4.065   6.595   5.925 -0.0056  0.1578 -0.3356
  845POPE   C1A11955   3.973   6.340   6.536 -0.0280  0.0944 -0.1590
  845POPE   D2A11956   3.983   6.123   6.928 -0.1235 -0.3039  0.1303
  845POPE   C3A11957   4.266   5.855   7.177 -0.1249 -0.2318  0.1078
  845POPE   C4A11958   4.511   5.643   7.528 -0.4105  0.0951 -0.2719
  845POPE   C1B11959   4.057   6.758   6.276 -0.2080 -0.1348 -0.0274
  845POPE   C2B11960   4.086   6.798   6.660 -0.1889  0.3361  0.0383
  845POPE   C3B11961   4.190   6.622   7.133 -0.0294  0.2375  0.0677
  845POPE   C4B11962   4.136   6.335   7.370  0.3325 -0.5863 -0.2011
  846POPE   NH311963   4.027  11.132   5.748 -0.0155 -0.3146 -0.0072
  846POPE   PO411964   3.807  11.541   5.661  0.2542  0.0792  0.2062
  846POPE   GL111965   3.889  11.681   6.146  0.1249  0.1117  0.1022
  846POPE   GL211966   3.912  11.399   6.359  0.1632 -0.0220  0.1712
  846POPE   C1A11967   4.146  11.742   6.572 -0.2497  0.0280  0.0427
  846POPE   D2A11968   4.015  11.721   7.053  0.1169  0.1726  0.3238
  846POPE   C3A11969   4.245  11.908   7.436 -0.1491 -0.0581 -0.0914
  846POPE   C4A11970   4.646  12.127   7.486 -0.2274 -0.1779 -0.2142
  846POPE   C1B11971   3.693  11.623   6.620  0.0236  0.1998  0.2386
  846POPE   C2B11972   3.567  11.860   6.966 -0.2962  0.0319 -0.1002
  846POPE   C3B11973   3.377  11.971   7.390  0.0596  0.0081 -0.2712
  846POPE   C4B11974   3.163  11.903   7.786  0.0828  0.1296 -0.0276
  847POPE   NH311975   5.015  18.112   6.140  0.1492 -0.2130 -0.0214
  847POPE   PO411976   5.427  18.039   6.139 -0.0332 -0.1523  0.0885
  847POPE   GL111977   5.368  18.277   6.483 -0.0903  0.0100  0.0944
  847POPE   GL211978   5.084  18.247   6.642  0.0232 -0.0537 -0.0629
  847POPE   C1A11979   5.596  18.528   6.772  0.0238 -0.1263 -0.1227
  847POPE   D2A11980   5.695  18.636   7.268 -0.0595  0.0705  0.1137
  847POPE   C3A11981   5.678  18.491   7.685 -0.1255  0.0839 -0.0372
  847POPE   C4A11982   5.387  18.264   7.995  0.1350  0.0220 -0.2631
  847POPE   C1B11983   5.219  18.329   7.041  0.0262  0.0335  0.2590
  847POPE   C2B11984   5.514  18.101   7.325  0.0588  0.2193  0.1283
  847POPE   C3B11985   5.758  18.023   7.709 -0.1736  0.2084 -0.2069
  847POPE   C4B11986   5.951  18.228   8.031  0.1955  0.0326 -0.1583
  848POPE   NH311987  14.759  14.726   5.538  0.0783 -0.1928 -0.0589
  848POPE   PO411988  14.876  14.346   5.445 -0.2434 -0.0105 -0.0680
  848POPE   GL111989  15.005  14.177   5.701 -0.0172 -0.0774 -0.1141
  848POPE   GL211990  15.096  13.754   5.756  0.0234 -0.0816 -0.0819
  848POPE   C1A11991  15.218  14.191   6.076  0.2332 -0.2963 -0.1229
  848POPE   D2A11992  15.529  13.912   6.428  0.2147 -0.0913  0.1370
  848POPE   C3A11993  15.483  13.944   6.907  0.2412  0.2181  0.2364
  848POPE   C4A11994  15.360  13.852   7.285 -0.3824  0.2069  0.3530
  848POPE   C1B11995  15.134  13.685   6.213 -0.0932 -0.0970 -0.0623
  848POPE   C2B11996  15.073  13.976   6.536  0.0917  0.1897 -0.1119
  848POPE   C3B11997  14.989  14.141   6.885 -0.0892 -0.0218 -0.0161
  848POPE   C4B11998  14.890  14.311   7.191 -0.0098  0.2329 -0.3534
  849POPE   NH311999   8.225  16.081   5.831 -0.1732  0.2129 -0.3955
  849POPE   PO412000   8.425  15.953   5.338 -0.0395 -0.1227 -0.0573
  849POPE   GL112001   8.637  15.757   5.738 -0.2339 -0.0867  0.0808
  849POPE   GL212002   8.669  15.958   5.956 -0.1362 -0.0660 -0.0901
  849POPE   C1A12003   8.672  15.378   6.028  0.0443  0.2077  0.2253
  849POPE   D2A12004   8.426  15.072   6.018 -0.4321 -0.1403 -0.3633
  849POPE   C3A12005   8.411  14.757   6.341  0.0560  0.1438  0.2670
  849POPE   C4A12006   8.065  14.635   6.388 -0.1028 -0.2595  0.2889
  849POPE   C1B12007   8.958  15.767   6.244  0.1026 -0.1966 -0.2101
  849POPE   C2B12008   8.834  15.724   6.686 -0.1909 -0.0571  0.1862
  849POPE   C3B12009   8.783  15.651   7.160  0.0757 -0.0703 -0.1205
  849POPE   C4B12010   8.687  15.380   7.593  0.2955  0.1560 -0.0751
  850POPE   NH312011   1.653   2.517   5.370  0.1188  0.4217  0.2092
  850POPE   PO412012   1.676   2.565   5.665 -0.2711 -0.2882  0.1734
  850POPE   GL112013   1.773   2.667   5.999 -0.1876 -0.1450 -0.2035
  850POPE   GL212014   1.927   2.368   6.083 -0.2762  0.1121 -0.0361
  850POPE   C1A12015   1.694   2.722   6.420 -0.0351 -0.2674  0.3382
  850POPE   D2A12016   1.609   2.559   6.766 -0.0583 -0.0008 -0.1081
  850POPE   C3A12017   1.670   2.564   7.194  0.0766 -0.0515  0.1164
  850POPE   C4A12018   1.937   2.532   7.556  0.0387 -0.1626 -0.1470
  850POPE   C1B12019   1.952   2.262   6.568  0.0158 -0.1813  0.0015
  850POPE   C2B12020   1.857   2.148   6.976  0.0492  0.0344  0.0111
  850POPE   C3B12021   1.830   2.103   7.361 -0.0449  0.1846  0.0672
  850POPE   C4B12022   1.893   1.919   7.728  0.2267  0.1145 -0.3016
  851POPE   NH312023   0.115   5.602   5.410 -0.3017 -0.3047  0.0156
  851POPE   PO412024   0.415   5.447   5.658  0.0576 -0.1707 -0.0963
  851POPE   GL112025   0.310   5.231   6.051  0.0617 -0.1171 -0.0366
  851POPE   GL212026   0.528   5.192   6.278  0.1206 -0.3869 -0.0083
  851POPE   C1A12027   0.008   5.208   6.352 -0.1234 -0.1889 -0.0153
  851POPE   D2A12028   0.132   5.249   6.821  0.0643 -0.3366 -0.1247
  851POPE   C3A12029  -0.085   5.133   7.271  0.1270 -0.2668  0.0703
  851POPE   C4A12030  -0.121   5.180   7.688 -0.1837 -0.0371 -0.1533
  851POPE   C1B12031   0.582   5.063   6.644  0.2210  0.2987  0.0010
  851POPE   C2B12032   0.520   4.982   7.058 -0.2583  0.2580  0.0725
  851POPE   C3B12033   0.812   5.024   7.444 -0.2999 -0.1812  0.0757
  851POPE   C4B12034   0.942   4.828   7.821  0.1264  0.2588  0.0831
  852POPE   NH312035  16.032  16.143   5.990 -0.0540  0.2941  0.0093
  852POPE   PO412036  15.706  16.488   6.012  0.0925 -0.0657 -0.1183
  852POPE   GL112037  15.882  16.423   6.355 -0.1931  0.1422  0.0467
  852POPE   GL212038  15.944  16.663   6.524 -0.1985  0.0063 -0.1388
  852POPE   C1A12039  15.795  16.242   6.785 -0.1573  0.1321  0.2104
  852POPE   D2A12040  15.686  16.250   7.205 -0.0828  0.0045  0.1385
  852POPE   C3A12041  15.829  16.216   7.582  0.1881 -0.0239  0.0438
  852POPE   C4A12042  16.108  15.732   7.609  0.2443 -0.0208 -0.3190
  852POPE   C1B12043  16.054  16.651   6.923  0.1232  0.0823 -0.2364
  852POPE   C2B12044  16.070  16.595   7.335  0.0679 -0.0979 -0.1097
  852POPE   C3B12045  16.095  16.827   7.607  0.1900  0.1875 -0.2413
  852POPE   C4B12046  15.960  17.077   7.923  0.2423  0.1160  0.0651
  853POPE   NH312047   3.861  15.606   6.123 -0.0682  0.2091 -0.1612
  853POPE   PO412048   3.894  15.183   5.949  0.1126 -0.3896  0.1606
  853POPE   GL112049   3.929  14.874   6.225 -0.1635 -0.0984 -0.0707
  853POPE   GL212050   4.124  14.615   6.111  0.0914 -0.1295  0.2020
  853POPE   C1A12051   3.844  14.765   6.591 -0.3891  0.0404 -0.0259
  853POPE   D2A12052   3.717  14.646   7.036 -0.1144 -0.2866  0.0147
  853POPE   C3A12053   3.735  14.246   7.237  0.1908  0.1353 -0.3599
  853POPE   C4A12054   3.781  14.043   7.510  0.2470  0.1598  0.1399
  853POPE   C1B12055   4.295  14.546   6.511  0.2738  0.0331 -0.1477
  853POPE   C2B12056   4.212  14.296   6.877 -0.0010 -0.1757 -0.0093
  853POPE   C3B12057   4.211  14.221   7.309  0.2196 -0.2489  0.1343
  853POPE   C4B12058   4.303  14.231   7.756  0.0371 -0.1917  0.1869
  854POPE   NH312059  17.002   1.409   6.107 -0.0537  0.0536  0.0119
  854POPE   PO412060  17.447   1.328   5.940 -0.1408 -0.1056  0.0430
  854POPE   GL112061  17.593   1.350   6.345 -0.0735  0.1272 -0.1917
  854POPE   GL212062  17.786   1.630   6.323 -0.0479 -0.0929 -0.0518
  854POPE   C1A12063  17.641   1.046   6.663 -0.0233  0.1097 -0.1435
  854POPE   D2A12064  17.514   0.874   7.099 -0.0500 -0.2316  0.1751
  854POPE   C3A12065  17.560   1.041   7.510  0.1074 -0.3751  0.0634
  854POPE   C4A12066  17.375   1.200   7.863 -0.2335  0.2914 -0.0632
  854POPE   C1B12067  17.637   1.956   6.593 -0.3347 -0.0137  0.1921
  854POPE   C2B12068  17.434   2.005   6.994 -0.0024 -0.0801  0.1841
  854POPE   C3B12069  17.298   1.973   7.395  0.2571  0.0439 -0.0351
  854POPE   C4B12070  17.462   2.193   7.696  0.1245 -0.2786 -0.1720
  855POPE   NH312071  12.094   1.477   5.914 -0.0367  0.0543 -0.3214
  855POPE   PO412072  12.150   1.085   6.097  0.4004  0.0960  0.2908
  855POPE   GL112073  12.306   1.417   6.417  0.1049  0.0428 -0.2146
  855POPE   GL212074  12.242   1.284   6.799 -0.0782 -0.3423  0.0561
  855POPE   C1A12075  12.523   1.668   6.684 -0.2022  0.0818  0.0062
  855POPE   D2A12076  12.908   1.663   7.079 -0.0181  0.1382  0.0296
  855POPE   C3A12077  12.963   2.074   7.439 -0.0517  0.0091 -0.2122
  855POPE   C4A12078  13.014   2.459   7.675  0.0110 -0.2648 -0.4472
  855POPE   C1B12079  12.379   1.458   7.220 -0.1832  0.0541  0.0813
  855POPE   C2B12080  12.527   1.652   7.471  0.1759 -0.0985 -0.1073
  855POPE   C3B12081  12.710   1.871   7.843  0.0147 -0.0027 -0.0663
  855POPE   C4B12082  13.063   2.102   7.967 -0.1041 -0.2290 -0.2063
  856POPE   NH312083   9.163   5.943   5.731 -0.3875 -0.0101 -0.0246
  856POPE   PO412084   8.731   5.945   5.628  0.4707 -0.1588  0.0394
  856POPE   GL112085   8.496   5.873   5.969  0.3282  0.3513  0.2281
  856POPE   GL212086   8.163   6.029   6.080  0.1051 -0.0902 -0.0440
  856POPE   C1A12087   8.561   5.999   6.379 -0.1863 -0.0357  0.1524
  856POPE   D2A12088   8.720   6.099   6.760 -0.0326 -0.1145  0.0825
  856POPE   C3A12089   8.495   6.394   6.974  0.2283 -0.0612 -0.0762
  856POPE   C4A12090   8.264   6.461   7.364  0.2864 -0.1870  0.0162
  856POPE   C1B12091   8.196   5.705   6.440  0.0561 -0.0456 -0.0820
  856POPE   C2B12092   8.256   5.852   6.829  0.0792  0.0733 -0.0865
  856POPE   C3B12093   8.317   5.967   7.158  0.0537 -0.1329  0.3741
  856POPE   C4B12094   8.279   6.018   7.600  0.1453  0.1183  0.1034
  857POPE   NH312095   1.326  13.281   5.945  0.1395  0.0043  0.1859
  857POPE   PO412096   0.792  13.156   5.844 -0.1251  0.2973 -0.0101
  857POPE   GL112097   0.961  13.158   6.245 -0.0269 -0.0627  0.2600
  857POPE   GL212098   1.108  12.888   6.384  0.3226  0.0432  0.0227
  857POPE   C1A12099   0.805  13.502   6.658  0.0478  0.3853 -0.0795
  857POPE   D2A12100   0.752  13.543   7.037 -0.3248  0.1784  0.2092
  857POPE   C3A12101   1.068  13.441   7.337  0.0351  0.1863 -0.2182
  857POPE   C4A12102   1.301  13.349   7.700 -0.1870  0.1386  0.0688
  857POPE   C1B12103   1.213  12.639   6.675 -0.0292  0.2590 -0.0216
  857POPE   C2B12104   1.177  12.519   7.049 -0.0818 -0.0036 -0.1059
  857POPE   C3B12105   1.191  12.444   7.432  0.0325  0.0318 -0.0426
  857POPE   C4B12106   0.911  12.461   7.742 -0.1067  0.0135  0.1340
  858POPE   NH312107   3.113  16.441   6.099  0.0696  0.1157 -0.0776
  858POPE   PO412108   3.286  16.137   6.244 -0.1125 -0.0471 -0.0107
  858POPE   GL112109   3.041  16.330   6.605 -0.3287  0.1850 -0.1412
  858POPE   GL212110   2.790  16.545   6.444 -0.0459 -0.1729  0.1123
  858POPE   C1A12111   2.899  16.224   6.924  0.2667  0.2436  0.1905
  858POPE   D2A12112   2.850  16.240   7.369 -0.1345 -0.0258 -0.1020
  858POPE   C3A12113   3.078  15.813   7.620 -0.4310 -0.2737  0.0081
  858POPE   C4A12114   3.134  15.526   7.987  0.0145  0.2296  0.0043
  858POPE   C1B12115   2.662  16.660   6.807  0.2177  0.0914 -0.0959
  858POPE   C2B12116   2.531  16.666   7.256  0.0036 -0.2474 -0.2262
  858POPE   C3B12117   2.308  16.353   7.535  0.1528  0.0519 -0.1024
  858POPE   C4B12118   2.018  16.280   7.811 -0.0304 -0.3725 -0.0915
  859POPE   NH312119  15.558  15.383   5.609 -0.1427 -0.1537 -0.1905
  859POPE   PO412120  15.162  15.007   5.436  0.1791  0.0602 -0.1435
  859POPE   GL112121  15.108  15.143   5.809  0.1352 -0.4192  0.1349
  859POPE   GL212122  14.827  15.090   5.877 -0.1776  0.1408  0.4842
  859POPE   C1A12123  15.012  15.293   6.291  0.3230  0.1036  0.0164
  859POPE   D2A12124  15.097  15.179   6.695  0.0134  0.3449  0.0022
  859POPE   C3A12125  14.865  15.259   7.177  0.0867 -0.3873 -0.0087
  859POPE   C4A12126  14.483  15.175   7.348 -0.1390 -0.1470 -0.1620
  859POPE   C1B12127  14.602  15.011   6.256  0.1242  0.0554 -0.0648
  859POPE   C2B12128  14.471  15.018   6.669 -0.2046 -0.2468 -0.2648
  859POPE   C3B12129  14.624  14.707   6.923 -0.3591 -0.1426 -0.0419
  859POPE   C4B12130  14.462  14.570   7.336  0.1135  0.0055  0.1376
  860POPE   NH312131   7.930   7.314   5.616  0.2483 -0.2281  0.1227
  860POPE   PO412132   7.811   7.679   5.394  0.1485  0.1023 -0.0003
  860POPE   GL112133   7.839   7.716   5.865  0.0962 -0.1997 -0.0717
  860POPE   GL212134   7.529   7.978   5.937 -0.0960  0.0340 -0.1297
  860POPE   C1A12135   8.019   7.673   6.198 -0.1879  0.2756  0.3426
  860POPE   D2A12136   8.193   7.647   6.610  0.1874 -0.1620  0.2653
  860POPE   C3A12137   8.164   7.872   6.987  0.0928  0.0852  0.1119
  860POPE   C4A12138   8.393   8.190   7.167  0.2051  0.0180  0.0640
  860POPE   C1B12139   7.642   8.025   6.320 -0.1321  0.0148  0.0407
  860POPE   C2B12140   7.704   8.065   6.809 -0.0700  0.3702 -0.0132
  860POPE   C3B12141   7.718   8.048   7.198 -0.2045 -0.0306 -0.0181
  860POPE   C4B12142   8.071   7.823   7.420  0.0405  0.0872 -0.2337
  861POPE   NH312143   7.243   3.283   5.469 -0.0822 -0.0423  0.2163
  861POPE   PO412144   7.439   3.688   5.534  0.1230 -0.1939  0.0329
  861POPE   GL112145   7.479   3.513   5.894 -0.0879  0.0545 -0.0830
  861POPE   GL212146   7.278   3.227   5.946  0.0000  0.1154  0.1695
  861POPE   C1A12147   7.356   3.394   6.427  0.2647  0.1425  0.0459
  861POPE   D2A12148   7.324   3.494   6.798  0.3845 -0.2229  0.0474
  861POPE   C3A12149   7.355   3.360   7.262 -0.2416 -0.0618  0.0336
  861POPE   C4A12150   7.300   3.122   7.531  0.2995 -0.1685 -0.1628
  861POPE   C1B12151   6.984   2.999   6.327 -0.1096  0.0572 -0.2218
  861POPE   C2B12152   6.999   3.125   6.778 -0.2226  0.1628  0.0844
  861POPE   C3B12153   6.912   3.280   7.174 -0.1033 -0.0522 -0.0809
  861POPE   C4B12154   6.965   3.565   7.530 -0.0617  0.1409  0.4135
  862POPE   NH312155   7.012   0.654   5.883  0.1138  0.1393  0.0922
  862POPE   PO412156   7.512   0.690   5.975 -0.0532  0.0976  0.1408
  862POPE   GL112157   7.581   0.713   6.372 -0.0708  0.0535  0.1755
  862POPE   GL212158   7.420   0.480   6.425 -0.2070  0.1178 -0.0378
  862POPE   C1A12159   7.453   0.919   6.660 -0.2370  0.1102  0.0150
  862POPE   D2A12160   7.217   1.206   6.868  0.0348 -0.1317  0.0359
  862POPE   C3A12161   6.934   1.302   7.243 -0.0001  0.1166 -0.3090
  862POPE   C4A12162   6.698   1.632   7.465 -0.1531  0.0589  0.2183
  862POPE   C1B12163   7.023   0.641   6.651  0.2286 -0.2159  0.1894
  862POPE   C2B12164   7.070   0.797   7.077 -0.0205  0.1988  0.0495
  862POPE   C3B12165   6.950   0.874   7.505  0.0135  0.0010 -0.2787
  862POPE   C4B12166   6.879   0.918   7.920  0.0133 -0.0579 -0.0200
  863POPE   NH312167  12.445   2.432   5.865  0.1843 -0.0202  0.2731
  863POPE   PO412168  12.698   2.775   5.952  0.1939 -0.1069 -0.2355
  863POPE   GL112169  12.805   2.692   6.397  0.0642 -0.1254  0.1921
  863POPE   GL212170  13.137   2.658   6.509  0.0090 -0.1716  0.2522
  863POPE   C1A12171  12.579   2.518   6.738  0.1068  0.1632 -0.2345
  863POPE   D2A12172  12.349   2.594   7.046  0.1515 -0.0511 -0.0610
  863POPE   C3A12173  12.041   2.366   7.201  0.0230 -0.3373  0.0901
  863POPE   C4A12174  11.702   2.159   7.503  0.1101  0.0447  0.0908
  863POPE   C1B12175  13.083   2.702   6.929 -0.1492 -0.1212  0.0500
  863POPE   C2B12176  12.847   2.641   7.219  0.0958 -0.3044  0.1405
  863POPE   C3B12177  12.617   2.808   7.609  0.1473 -0.0567  0.2392
  863POPE   C4B12178  12.489   2.973   7.917 -0.1238 -0.0010 -0.0026
  864POPE   NH312179  14.733   0.236   6.359  0.2213 -0.2638  0.1375
  864POPE   PO412180  14.794  -0.219   6.257 -0.1708 -0.0092  0.0201
  864POPE   GL112181  14.718  -0.340   6.697 -0.0230 -0.3170  0.3287
  864POPE   GL212182  14.810  -0.132   6.914  0.0911 -0.0541 -0.0753
  864POPE   C1A12183  14.474  -0.500   7.012  0.1719 -0.1212 -0.1647
  864POPE   D2A12184  14.522  -0.535   7.464  0.1723  0.3479 -0.0438
  864POPE   C3A12185  14.642  -0.229   7.793 -0.0422 -0.0380 -0.0737
  864POPE   C4A12186  14.778  -0.212   8.182 -0.1691  0.3252 -0.0835
  864POPE   C1B12187  14.686  -0.124   7.274 -0.1526 -0.0174  0.1403
  864POPE   C2B12188  14.646   0.192   7.558  0.1722  0.3925  0.2181
  864POPE   C3B12189  14.296   0.301   7.825 -0.0625 -0.0841 -0.2595
  864POPE   C4B12190  14.082   0.518   8.147 -0.1971  0.3503  0.0746
  865POPE   NH312191  16.303   0.622   6.152  0.4190 -0.1746  0.3209
  865POPE   PO412192  16.355   0.192   5.920 -0.0216  0.2290 -0.2600
  865POPE   GL112193  16.502   0.171   6.309  0.0432  0.1248  0.1322
  865POPE   GL212194  16.540  -0.170   6.525  0.1391 -0.0263 -0.3793
  865POPE   C1A12195  16.600   0.315   6.678  0.0937 -0.2787  0.1975
  865POPE   D2A12196  16.549   0.262   7.147 -0.3286 -0.0433  0.0062
  865POPE   C3A12197  16.225  -0.036   7.289 -0.0578 -0.1623  0.2154
  865POPE   C4A12198  15.898  -0.267   7.223 -0.0629  0.0644 -0.0775
  865POPE   C1B12199  16.525  -0.201   6.973 -0.1092 -0.1257 -0.0025
  865POPE   C2B12200  16.592  -0.323   7.451  0.3100 -0.0138 -0.1863
  865POPE   C3B12201  16.515  -0.130   7.821  0.3175  0.3359  0.0073
  865POPE   C4B12202  16.221   0.149   7.880 -0.1597  0.1195 -0.0919
  866POPE   NH312203  13.405   7.129   5.907 -0.4900 -0.2193  0.2271
  866POPE   PO412204  13.397   7.625   5.901  0.2016  0.2045 -0.0758
  866POPE   GL112205  13.553   7.715   6.298 -0.0567  0.0520 -0.0225
  866POPE   GL212206  13.501   7.349   6.459 -0.0856 -0.1105 -0.1658
  866POPE   C1A12207  13.862   7.625   6.647 -0.1477 -0.0366  0.0129
  866POPE   D2A12208  13.853   7.504   7.016  0.1335 -0.1426 -0.4179
  866POPE   C3A12209  14.071   7.739   7.289 -0.0551  0.2774 -0.0180
  866POPE   C4A12210  14.027   8.121   7.491  0.0463  0.1204  0.4243
  866POPE   C1B12211  13.397   7.456   6.770  0.2288 -0.3438  0.1795
  866POPE   C2B12212  13.350   7.558   7.116  0.1698  0.1305  0.1314
  866POPE   C3B12213  13.457   7.797   7.478 -0.1332 -0.1146 -0.4851
  866POPE   C4B12214  13.530   8.175   7.793  0.2321 -0.0334 -0.0719
  867POPE   NH312215   1.397  15.077   5.535 -0.2491  0.0797 -0.0915
  867POPE   PO412216   1.529  14.611   5.663  0.0350  0.4769 -0.0331
  867POPE   GL112217   1.756  14.806   6.045 -0.1110  0.1265 -0.1122
  867POPE   GL212218   1.996  15.004   6.130  0.1376 -0.1219 -0.0882
  867POPE   C1A12219   1.682  14.757   6.528  0.1235  0.0443  0.0493
  867POPE   D2A12220   1.430  14.921   6.907 -0.0792  0.0333 -0.0488
  867POPE   C3A12221   1.393  14.960   7.390 -0.0980 -0.0603  0.1743
  867POPE   C4A12222   1.350  15.319   7.683  0.0819  0.3222 -0.1275
  867POPE   C1B12223   2.083  14.998   6.536  0.4837 -0.0665 -0.1930
  867POPE   C2B12224   2.020  14.907   6.844 -0.2562 -0.1179 -0.2811
  867POPE   C3B12225   2.200  15.051   7.194  0.2890 -0.0585 -0.1505
  867POPE   C4B12226   2.197  15.294   7.585 -0.2762 -0.0289 -0.2785
  868POPE   NH312227   0.934   7.720   5.739 -0.0381 -0.0406  0.1976
  868POPE   PO412228   1.089   8.100   5.644  0.2052 -0.2579 -0.0532
  868POPE   GL112229   0.806   8.179   5.884  0.3722 -0.1327  0.3365
  868POPE   GL212230   0.420   8.193   5.886 -0.2400  0.0202  0.1114
  868POPE   C1A12231   0.643   8.689   5.929  0.3087  0.1747 -0.0280
  868POPE   D2A12232   0.782   9.083   6.234 -0.1184  0.1311  0.2418
  868POPE   C3A12233   0.639   9.144   6.636  0.1040  0.1772 -0.2649
  868POPE   C4A12234   0.398   9.439   6.982 -0.0366  0.0899 -0.1381
  868POPE   C1B12235   0.302   8.425   6.180 -0.0686 -0.0231 -0.1955
  868POPE   C2B12236   0.285   8.922   6.356  0.3143  0.1499 -0.2252
  868POPE   C3B12237   0.219   9.355   6.556  0.0457  0.0807 -0.2432
  868POPE   C4B12238   0.521   9.636   6.536 -0.2552 -0.1494 -0.1318
  869POPE   NH312239   6.780  16.421   6.200  0.0387  0.0287 -0.2221
  869POPE   PO412240   6.950  16.089   6.189 -0.0346  0.1708 -0.1374
  869POPE   GL112241   7.010  15.732   6.426  0.2614 -0.2489 -0.1308
  869POPE   GL212242   7.343  15.721   6.309 -0.1168 -0.0004  0.0703
  869POPE   C1A12243   7.089  15.550   6.843 -0.0760  0.0459  0.1874
  869POPE   D2A12244   7.037  15.558   7.277 -0.0316  0.3836  0.2405
  869POPE   C3A12245   6.756  15.580   7.568  0.0220 -0.0106  0.2059
  869POPE   C4A12246   6.598  15.516   7.880 -0.0734  0.0577  0.1439
  869POPE   C1B12247   7.491  15.923   6.716 -0.0084  0.0269 -0.2671
  869POPE   C2B12248   7.439  15.858   7.099  0.0280  0.1198 -0.1108
  869POPE   C3B12249   7.362  15.932   7.537 -0.0946  0.2381  0.1689
  869POPE   C4B12250   7.566  16.096   7.900 -0.0642  0.0872  0.2187
  870POPE   NH312251  15.482  16.031   5.892 -0.0884  0.1665  0.2786
  870POPE   PO412252  15.114  15.703   5.782 -0.2694  0.1358 -0.0547
  870POPE   GL112253  15.085  15.874   6.192  0.0552  0.2161 -0.0751
  870POPE   GL212254  14.768  16.010   6.316 -0.1013  0.1749 -0.3812
  870POPE   C1A12255  15.094  15.711   6.551  0.0140 -0.0696  0.2084
  870POPE   D2A12256  15.060  15.641   6.934 -0.3387  0.0855  0.1330
  870POPE   C3A12257  15.425  15.822   7.132  0.1280 -0.3781 -0.2432
  870POPE   C4A12258  15.846  15.765   7.043 -0.0030  0.0311  0.2144
  870POPE   C1B12259  14.839  16.192   6.757  0.1152  0.2267 -0.4318
  870POPE   C2B12260  14.889  16.061   7.270  0.0990 -0.1190  0.1130
  870POPE   C3B12261  15.042  15.778   7.506 -0.1302 -0.1333 -0.2305
  870POPE   C4B12262  15.257  15.746   7.878 -0.0528 -0.0574 -0.0239
  871POPE   NH312263  13.278  17.296   5.953 -0.0453  0.1122 -0.1633
  871POPE   PO412264  13.638  17.596   6.068 -0.2060  0.1830 -0.2641
  871POPE   GL112265  13.715  17.217   6.319 -0.0397  0.0324  0.0555
  871POPE   GL212266  13.995  16.903   6.455  0.1654  0.3921 -0.1640
  871POPE   C1A12267  13.686  17.172   6.750 -0.0085 -0.0501  0.1360
  871POPE   D2A12268  13.599  17.291   7.127 -0.1594  0.2151  0.3503
  871POPE   C3A12269  13.650  17.144   7.474 -0.2593  0.0481  0.0365
  871POPE   C4A12270  13.876  17.158   7.901 -0.1482  0.2555  0.1187
  871POPE   C1B12271  14.042  16.653   6.868 -0.0956  0.0852 -0.4313
  871POPE   C2B12272  13.942  16.421   7.095  0.0310  0.0191  0.2351
  871POPE   C3B12273  13.700  16.183   7.428 -0.2736  0.0070  0.1118
  871POPE   C4B12274  13.655  15.967   7.734 -0.2527 -0.1912  0.0551
  872YOPE   NH312275  11.059   9.469   5.581  0.0698  0.0887 -0.0410
  872YOPE   PO412276  11.116   9.909   5.630 -0.2690 -0.0196  0.0724
  872YOPE   GL112277  11.018   9.850   5.963 -0.0890 -0.2013 -0.1215
  872YOPE   GL212278  11.374   9.697   6.023  0.1948  0.0839 -0.0221
  872YOPE   C1A12279  10.736   9.745   6.264  0.1090 -0.0829 -0.2209
  872YOPE   D2A12280  10.357   9.644   6.599 -0.0335 -0.0322 -0.1552
  872YOPE   C3A12281  10.241   9.966   6.939  0.0404  0.0582 -0.2518
  872YOPE   C4A12282  10.059  10.137   7.239  0.1106 -0.1833 -0.0277
  872YOPE   C1B12283  11.309   9.657   6.426 -0.0418  0.0498  0.2674
  872YOPE   C2B12284  11.226   9.602   6.865  0.1362  0.0265 -0.0926
  872YOPE   D3B12285  11.383   9.359   7.283 -0.0155 -0.0449  0.0695
  872YOPE   C4B12286  11.563   9.404   7.711 -0.0443 -0.1361  0.2009
  873YOPE   NH312287   6.374  17.639   6.203  0.1699 -0.0523  0.0736
  873YOPE   PO412288   6.831  17.559   6.109 -0.1458  0.1245 -0.0441
  873YOPE   GL112289   6.995  17.290   6.461 -0.0952  0.3672  0.0566
  873YOPE   GL212290   6.674  17.320   6.594 -0.2970  0.2183  0.0750
  873YOPE   C1A12291   7.123  17.286   6.895  0.4196 -0.0954 -0.0089
  873YOPE   D2A12292   7.042  17.164   7.293  0.0234  0.2689  0.0603
  873YOPE   C3A12293   7.128  17.278   7.590 -0.1865  0.0923 -0.1119
  873YOPE   C4A12294   7.279  17.461   8.021  0.1238  0.1039 -0.1104
  873YOPE   C1B12295   6.601  17.470   6.910 -0.1714 -0.0462 -0.0053
  873YOPE   C2B12296   6.612  17.423   7.310  0.0092 -0.2542  0.3828
  873YOPE   D3B12297   6.685  17.595   7.640  0.1405 -0.0149 -0.0094
  873YOPE   C4B12298   6.800  17.902   7.892  0.4114  0.2358  0.0526
  874YOPE   NH312299   6.496   3.651   5.350 -0.1415  0.0469  0.1684
  874YOPE   PO412300   6.555   4.027   5.202 -0.0089 -0.3225 -0.0586
  874YOPE   GL112301   6.494   4.065   5.662  0.0194  0.0225 -0.2784
  874YOPE   GL212302   6.586   3.827   5.791 -0.4427  0.0637 -0.0518
  874YOPE   C1A12303   6.284   4.129   6.067 -0.0262  0.0762 -0.1303
  874YOPE   D2A12304   6.532   4.341   6.386  0.0624  0.0199  0.1492
  874YOPE   C3A12305   6.713   4.201   6.691  0.3276  0.0795 -0.2835
  874YOPE   C4A12306   6.665   4.293   7.145 -0.0139  0.2319 -0.0473
  874YOPE   C1B12307   6.882   3.476   6.066 -0.1698  0.1501  0.0372
  874YOPE   C2B12308   6.841   3.483   6.464 -0.1439 -0.1926 -0.4098
  874YOPE   D3B12309   6.849   3.688   6.815  0.0252 -0.1154  0.1908
  874YOPE   C4B12310   6.932   3.824   7.092  0.0777 -0.3198 -0.0742
  875YOPE   NH312311  13.441  13.081   5.992  0.0822 -0.1300  0.1714
  875YOPE   PO412312  13.813  13.026   5.835 -0.1238 -0.1984 -0.0199
  875YOPE   GL112313  13.874  12.931   6.230  0.0504  0.0316 -0.0583
  875YOPE   GL212314  13.815  12.667   6.222  0.1620 -0.0244 -0.2104
  875YOPE   C1A12315  14.030  12.974   6.579  0.0440  0.2058 -0.3765
  875YOPE   D2A12316  14.046  13.203   6.913  0.0085  0.0861  0.0677
  875YOPE   C3A12317  13.908  13.152   7.268 -0.1200  0.1307 -0.1992
  875YOPE   C4A12318  13.618  13.094   7.675  0.0135 -0.1690 -0.2245
  875YOPE   C1B12319  13.864  12.420   6.635  0.0863 -0.0831 -0.0089
  875YOPE   C2B12320  13.908  12.145   6.952  0.2104 -0.3907 -0.0178
  875YOPE   D3B12321  13.796  12.237   7.244 -0.2331 -0.1066 -0.1248
  875YOPE   C4B12322  13.601  12.167   7.668  0.2469  0.0912  0.0252
  876YOPE   NH312323  17.663  15.824   5.837  0.0745 -0.1563 -0.2584
  876YOPE   PO412324  17.892  15.369   5.702  0.0962  0.2105  0.0686
  876YOPE   GL112325  18.059  15.264   6.117  0.0243  0.1594  0.2244
  876YOPE   GL212326  18.324  15.025   6.196  0.0859 -0.0671  0.1153
  876YOPE   C1A12327  18.100  15.239   6.585 -0.0290 -0.0054 -0.4880
  876YOPE   D2A12328  18.180  15.132   7.042  0.2002 -0.0842  0.1946
  876YOPE   C3A12329  18.380  15.317   7.372 -0.1178  0.1599 -0.0766
  876YOPE   C4A12330  18.501  15.622   7.684 -0.1369 -0.1324 -0.0890
  876YOPE   C1B12331  18.487  15.465   6.334 -0.0127 -0.2197  0.0082
  876YOPE   C2B12332  18.629  15.681   6.611 -0.0838  0.1634  0.0614
  876YOPE   D3B12333  18.956  15.923   6.792 -0.1426 -0.2611  0.0522
  876YOPE   C4B12334  19.021  16.331   6.725  0.0143  0.1406 -0.1346
  877YOPE   NH312335  10.706   1.801   5.882 -0.2059  0.0845  0.1747
  877YOPE   PO412336  10.293   1.797   5.998  0.0927 -0.0520  0.0865
  877YOPE   GL112337  10.210   1.924   6.406 -0.0126  0.0380  0.0878
  877YOPE   GL212338  10.289   2.213   6.531 -0.0875  0.4147  0.3377
  877YOPE   C1A12339  10.272   1.782   6.910  0.5913 -0.0987  0.0621
  877YOPE   D2A12340  10.278   1.939   7.296  0.0123  0.0189  0.1400
  877YOPE   C3A12341  10.107   1.835   7.696  0.0528  0.0243  0.1088
  877YOPE   C4A12342  10.132   1.715   8.082 -0.2647 -0.0117 -0.3124
  877YOPE   C1B12343   9.909   2.086   6.875  0.0213  0.2423  0.1220
  877YOPE   C2B12344   9.775   2.051   7.383  0.0023  0.1769  0.1331
  877YOPE   D3B12345   9.716   2.133   7.747 -0.1904 -0.1410 -0.1544
  877YOPE   C4B12346   9.792   2.147   8.214 -0.0383  0.2316  0.0169
  878YOPE   NH312347   6.272  16.217   6.017  0.1160  0.0829 -0.0738
  878YOPE   PO412348   6.380  16.663   5.973 -0.0141  0.0389 -0.2035
  878YOPE   GL112349   6.290  16.568   6.410 -0.2323 -0.0271  0.0077
  878YOPE   GL212350   6.075  16.272   6.490 -0.2140 -0.0549 -0.1526
  878YOPE   C1A12351   6.433  16.447   6.847 -0.1706 -0.3103  0.1067
  878YOPE   D2A12352   6.356  16.311   7.318  0.0321  0.5272  0.1380
  878YOPE   C3A12353   6.622  16.519   7.489  0.1171 -0.0186 -0.0521
  878YOPE   C4A12354   6.602  17.010   7.499 -0.1721  0.1257  0.0497
  878YOPE   C1B12355   5.961  16.228   6.945  0.2512 -0.0482  0.0572
  878YOPE   C2B12356   5.765  16.410   7.310  0.1836  0.3003 -0.2457
  878YOPE   D3B12357   5.768  16.436   7.715  0.0946 -0.2416  0.1462
  878YOPE   C4B12358   5.959  16.210   8.067  0.0427  0.1469 -0.0011
  879YOPE   NH312359  13.769  15.740   5.801 -0.1019 -0.1649 -0.0434
  879YOPE   PO412360  13.476  15.383   5.606  0.0687 -0.3723 -0.0419
  879YOPE   GL112361  13.444  15.277   5.994 -0.2479 -0.0266 -0.1212
  879YOPE   GL212362  13.216  15.059   5.961 -0.2319  0.3041 -0.2488
  879YOPE   C1A12363  13.699  15.047   6.227  0.0517 -0.3093 -0.2931
  879YOPE   D2A12364  13.818  14.898   6.617 -0.1042  0.0008  0.0768
  879YOPE   C3A12365  13.571  14.896   6.984 -0.1632  0.0569 -0.0512
  879YOPE   C4A12366  13.547  14.736   7.322  0.1233  0.2810  0.0830
  879YOPE   C1B12367  13.250  15.295   6.503  0.0721 -0.0276  0.0073
  879YOPE   C2B12368  13.153  15.219   6.952 -0.1683  0.1183 -0.1506
  879YOPE   D3B12369  13.253  15.150   7.300  0.3251 -0.0069  0.1607
  879YOPE   C4B12370  13.549  15.204   7.643 -0.1022 -0.0419  0.0141
  880YOPE   NH312371   4.657   8.129   5.922 -0.1075  0.1045  0.0739
  880YOPE   PO412372   4.944   7.925   5.725  0.0665  0.1595  0.2466
  880YOPE   GL112373   5.069   8.066   6.201  0.1053  0.0784  0.0338
  880YOPE   GL212374   4.900   7.931   6.355  0.0136  0.2728  0.3644
  880YOPE   C1A12375   5.441   7.887   6.475 -0.1114 -0.4434 -0.3264
  880YOPE   D2A12376   5.391   7.846   6.878 -0.0855  0.0826 -0.1448
  880YOPE   C3A12377   5.579   7.813   7.271 -0.0988 -0.1997  0.0021
  880YOPE   C4A12378   5.810   8.037   7.476  0.1255 -0.1384 -0.0381
  880YOPE   C1B12379   4.903   7.858   6.733  0.0845 -0.0776 -0.1878
  880YOPE   C2B12380   4.974   7.856   7.135  0.0877 -0.2055  0.1191
  880YOPE   D3B12381   5.173   7.949   7.527  0.0359 -0.2471 -0.0253
  880YOPE   C4B12382   5.069   7.986   7.940 -0.1050  0.0030  0.0735
  881YOPE   NH312383  11.625  14.485   6.011  0.1360 -0.0459  0.1321
  881YOPE   PO412384  11.283  14.536   5.863  0.0037  0.0783  0.0879
  881YOPE   GL112385  11.098  14.424   6.228  0.0199  0.0507 -0.2617
  881YOPE   GL212386  11.535  14.516   6.510 -0.0762  0.1468 -0.0762
  881YOPE   C1A12387  11.087  14.692   6.604  0.2280  0.0572  0.1974
  881YOPE   D2A12388  11.041  14.817   7.106 -0.1887 -0.0463  0.1245
  881YOPE   C3A12389  11.099  14.822   7.514 -0.1707  0.0522  0.2079
  881YOPE   C4A12390  10.967  14.798   7.881  0.1697  0.0560  0.1769
  881YOPE   C1B12391  11.547  14.575   6.923 -0.1827  0.2382  0.0301
  881YOPE   C2B12392  11.597  14.583   7.397 -0.0380  0.2661 -0.2033
  881YOPE   D3B12393  11.814  14.357   7.642  0.1168 -0.1080 -0.0528
  881YOPE   C4B12394  11.841  14.029   7.938  0.2986  0.1045 -0.0344
  882YOPE   NH312395  12.955   4.146   6.095  0.0104  0.0226 -0.1098
  882YOPE   PO412396  12.566   4.301   6.179  0.2286 -0.0290  0.1708
  882YOPE   GL112397  12.610   4.075   6.483 -0.3709 -0.1653  0.0116
  882YOPE   GL212398  12.984   3.919   6.499  0.1408 -0.1148 -0.0405
  882YOPE   C1A12399  12.456   4.178   6.955  0.0508  0.1729  0.0913
  882YOPE   D2A12400  12.449   4.151   7.433 -0.1216  0.5997  0.0162
  882YOPE   C3A12401  12.419   3.995   7.873  0.0794 -0.0689 -0.0286
  882YOPE   C4A12402  12.234   4.126   8.267  0.0164 -0.0409 -0.0545
  882YOPE   C1B12403  13.123   3.687   6.908 -0.0010 -0.1505 -0.2276
  882YOPE   C2B12404  13.263   3.696   7.270  0.0051  0.0113  0.1882
  882YOPE   D3B12405  13.230   3.626   7.718  0.2065  0.2788  0.0304
  882YOPE   C4B12406  13.326   3.849   8.052  0.0662  0.1906 -0.1976
  883YOPE   NH312407  16.798   7.104   5.752  0.0724 -0.1952 -0.0623
  883YOPE   PO412408  16.941   7.495   5.912 -0.1747 -0.1413  0.0661
  883YOPE   GL112409  16.832   7.258   6.223  0.1848 -0.0434  0.1405
  883YOPE   GL212410  16.924   6.961   6.230 -0.1123 -0.1168 -0.1047
  883YOPE   C1A12411  16.522   7.231   6.565 -0.1856  0.0932 -0.0225
  883YOPE   D2A12412  16.344   7.108   6.971 -0.2196  0.0252  0.3149
  883YOPE   C3A12413  16.200   7.206   7.456 -0.1268  0.2258 -0.0000
  883YOPE   C4A12414  16.012   7.106   7.714 -0.1078  0.1316 -0.0345
  883YOPE   C1B12415  17.112   6.800   6.647  0.2753 -0.0910 -0.0406
  883YOPE   C2B12416  17.033   6.878   7.057 -0.2519  0.0915  0.2593
  883YOPE   D3B12417  16.774   7.034   7.297  0.0554 -0.3049  0.0781
  883YOPE   C4B12418  16.542   6.900   7.762  0.2639 -0.0191 -0.2115
  884YOPE   NH312419   0.540  13.627   5.841 -0.2863 -0.1621 -0.0357
  884YOPE   PO412420   0.874  14.012   5.797  0.0892  0.1200 -0.0464
  884YOPE   GL112421   1.076  14.190   6.129 -0.1574  0.2129 -0.1506
  884YOPE   GL212422   1.345  14.249   5.991  0.0961  0.1012  0.1416
  884YOPE   C1A12423   0.939  14.210   6.488  0.1353 -0.3066 -0.2561
  884YOPE   D2A12424   0.909  13.981   6.833  0.1897  0.1596 -0.0259
  884YOPE   C3A12425   1.352  14.051   7.058 -0.0912  0.0298  0.0862
  884YOPE   C4A12426   1.473  13.787   7.407  0.4125  0.3320 -0.0162
  884YOPE   C1B12427   1.577  14.275   6.336 -0.1584 -0.1127  0.1614
  884YOPE   C2B12428   1.552  14.322   6.679 -0.2510 -0.1612 -0.1562
  884YOPE   D3B12429   1.730  14.525   7.020 -0.1062 -0.0412  0.0628
  884YOPE   C4B12430   1.848  14.797   7.357  0.2208 -0.1119  0.3205
  885YOPE   NH312431   2.033  15.124   5.660  0.0313 -0.0481  0.2313
  885YOPE   PO412432   2.412  14.885   5.793  0.0216 -0.1246 -0.1361
  885YOPE   GL112433   2.387  14.614   6.198  0.0047 -0.0520 -0.2008
  885YOPE   GL212434   2.118  14.385   6.180 -0.4203 -0.0680  0.0126
  885YOPE   C1A12435   2.652  14.420   6.545 -0.1756 -0.1774  0.3646
  885YOPE   D2A12436   2.747  14.423   6.913 -0.1275 -0.1802  0.0079
  885YOPE   C3A12437   3.191  14.353   7.087  0.0355  0.0011  0.0149
  885YOPE   C4A12438   3.345  13.943   7.209 -0.0438  0.0181  0.0333
  885YOPE   C1B12439   2.086  14.407   6.597  0.1634  0.2185  0.1229
  885YOPE   C2B12440   2.237  14.465   6.949 -0.0415 -0.0581  0.3723
  885YOPE   D3B12441   2.322  14.557   7.248 -0.2158 -0.1505 -0.0059
  885YOPE   C4B12442   2.411  14.407   7.558  0.1098  0.0575  0.0234
  886YOPE   NH312443   8.995   9.669   5.244 -0.0128  0.2173 -0.0534
  886YOPE   PO412444   8.855   9.298   5.455 -0.1864 -0.0693  0.5644
  886YOPE   GL112445   9.165   9.188   5.786 -0.0962  0.0927  0.1264
  886YOPE   GL212446   8.944   8.918   6.017 -0.2790  0.3283 -0.3681
  886YOPE   C1A12447   9.362   9.171   6.170  0.2431 -0.1525 -0.0842
  886YOPE   D2A12448   9.328   9.162   6.541 -0.1247  0.0540 -0.3850
  886YOPE   C3A12449   9.537   9.029   6.871  0.2943 -0.1356 -0.0427
  886YOPE   C4A12450   9.528   8.782   7.227  0.0164  0.1247  0.1014
  886YOPE   C1B12451   8.865   8.953   6.452 -0.1161  0.1303  0.0364
  886YOPE   C2B12452   9.000   8.899   6.907 -0.1065 -0.1563 -0.0702
  886YOPE   D3B12453   9.149   9.131   7.357  0.0980  0.0372 -0.1081
  886YOPE   C4B12454   9.252   9.543   7.609 -0.2825  0.0841  0.0609
  887YOPE   NH312455   3.794  14.632   5.709 -0.0792  0.2165  0.1938
  887YOPE   PO412456   3.303  14.846   6.001 -0.1572  0.2536  0.0489
  887YOPE   GL112457   3.008  14.954   6.255  0.0263  0.0721 -0.1110
  887YOPE   GL212458   2.760  14.951   6.275  0.1114 -0.2379 -0.3297
  887YOPE   C1A12459   2.936  15.237   6.665  0.1510  0.0611 -0.0046
  887YOPE   D2A12460   2.886  15.303   6.968 -0.0119  0.0312  0.0711
  887YOPE   C3A12461   2.620  15.340   7.306  0.3035  0.1094 -0.0459
  887YOPE   C4A12462   2.599  15.439   7.828  0.2886  0.1587 -0.0076
  887YOPE   C1B12463   2.573  14.887   6.741  0.1154  0.1322  0.2174
  887YOPE   C2B12464   2.705  14.848   7.156  0.0155  0.0756  0.1486
  887YOPE   D3B12465   2.592  14.949   7.563  0.2939  0.1872  0.1637
  887YOPE   C4B12466   2.192  14.837   7.672 -0.0581  0.0557 -0.3868
  888YOPE   NH312467   8.987   2.066   6.072  0.1298 -0.1316  0.0779
  888YOPE   PO412468   8.620   2.278   5.944  0.1320  0.0985  0.0175
  888YOPE   GL112469   8.411   2.092   6.356  0.1422 -0.0928  0.2138
  888YOPE   GL212470   8.630   2.126   6.580 -0.2578  0.1556 -0.2257
  888YOPE   C1A12471   8.090   2.219   6.624 -0.3055 -0.2972  0.0726
  888YOPE   D2A12472   7.750   2.015   6.683 -0.1961  0.0628 -0.0511
  888YOPE   C3A12473   7.603   1.898   7.151  0.0969 -0.0585 -0.2611
  888YOPE   C4A12474   7.666   2.099   7.517  0.0645  0.5460 -0.1017
  888YOPE   C1B12475   8.460   2.314   6.974 -0.0690 -0.0062  0.1461
  888YOPE   C2B12476   8.500   2.352   7.411 -0.0833 -0.1729  0.0819
  888YOPE   D3B12477   8.451   2.228   7.756  0.3320  0.0548  0.1353
  888YOPE   C4B12478   8.368   1.880   8.113  0.2723  0.0684  0.0585
  889YOPE   NH312479  11.373   4.881   6.219 -0.2149  0.1153  0.1427
  889YOPE   PO412480  11.694   4.580   6.168  0.2774  0.0180  0.0608
  889YOPE   GL112481  11.567   4.483   6.604  0.2115 -0.0058  0.3165
  889YOPE   GL212482  11.177   4.424   6.544  0.1751 -0.0853  0.3429
  889YOPE   C1A12483  11.411   4.451   6.972 -0.0109  0.0830 -0.3023
  889YOPE   D2A12484  11.402   4.319   7.318  0.0718  0.0944  0.3429
  889YOPE   C3A12485  11.560   4.378   7.695 -0.0235  0.0267 -0.2227
  889YOPE   C4A12486  11.515   4.426   8.033  0.0189 -0.1557  0.1990
  889YOPE   C1B12487  10.840   4.622   6.694 -0.0669  0.0785  0.1175
  889YOPE   C2B12488  10.656   4.849   6.876  0.0812 -0.3190 -0.2811
  889YOPE   D3B12489  10.205   5.036   7.010  0.0844  0.0800 -0.0438
  889YOPE   C4B12490  10.041   5.432   7.355  0.1319  0.0101  0.0858
  890YOPE   NH312491   8.298   2.799   5.782  0.1408 -0.0571 -0.0625
  890YOPE   PO412492   8.417   3.321   5.771 -0.1328  0.0754  0.0618
  890YOPE   GL112493   8.359   3.266   6.135 -0.0462 -0.0196 -0.0453
  890YOPE   GL212494   8.172   2.992   6.244 -0.0950 -0.0186 -0.0423
  890YOPE   C1A12495   8.389   3.271   6.632  0.0396  0.2433  0.1314
  890YOPE   D2A12496   8.284   3.331   7.010 -0.0290  0.0031 -0.0054
  890YOPE   C3A12497   8.364   3.581   7.408  0.0814  0.0697  0.3145
  890YOPE   C4A12498   8.359   3.994   7.592 -0.2421  0.3137 -0.0156
  890YOPE   C1B12499   8.056   2.785   6.608  0.5579 -0.0201 -0.0317
  890YOPE   C2B12500   7.939   2.813   6.975 -0.1717 -0.2568  0.0468
  890YOPE   D3B12501   7.744   2.717   7.312 -0.1350  0.1167  0.1397
  890YOPE   C4B12502   7.496   2.721   7.725  0.0439  0.2619 -0.0922
  891YOPE   NH312503   9.417   0.251   5.634 -0.0060 -0.2449 -0.2271
  891YOPE   PO412504   9.435   0.055   6.070  0.0119  0.4024 -0.1815
  891YOPE   GL112505   9.586   0.199   6.434  0.2739  0.0624 -0.2044
  891YOPE   GL212506   9.733  -0.032   6.625  0.0616 -0.1445  0.0222
  891YOPE   C1A12507   9.217   0.079   6.740  0.0120  0.1683  0.0196
  891YOPE   D2A12508   9.079   0.024   7.117 -0.3096 -0.0468  0.0664
  891YOPE   C3A12509   9.020   0.236   7.584  0.1978 -0.0817 -0.1978
  891YOPE   C4A12510   8.995   0.363   8.065 -0.0259  0.4946 -0.0467
  891YOPE   C1B12511   9.606  -0.072   6.989  0.1399 -0.3134 -0.0840
  891YOPE   C2B12512   9.437  -0.166   7.426  0.4349  0.2983 -0.0510
  891YOPE   D3B12513   9.433  -0.463   7.762 -0.0759  0.0363 -0.1344
  891YOPE   C4B12514   9.740  -0.692   7.962  0.3967 -0.0094  0.0460
  892YOPE   NH312515   0.642  12.614   5.766  0.0814 -0.1656  0.1077
  892YOPE   PO412516   0.421  12.876   5.679  0.0757 -0.2015 -0.0602
  892YOPE   GL112517   0.348  12.933   6.098  0.2191 -0.3174 -0.0594
  892YOPE   GL212518   0.576  12.816   6.199  0.1597 -0.1251  0.2186
  892YOPE   C1A12519   0.127  13.055   6.466 -0.0138  0.1757 -0.0380
  892YOPE   D2A12520  -0.092  13.048   6.835 -0.2363 -0.1514 -0.0401
  892YOPE   C3A12521   0.103  12.927   7.249  0.2328 -0.2094  0.0553
  892YOPE   C4A12522   0.056  12.886   7.647 -0.1693 -0.1818 -0.1873
  892YOPE   C1B12523   0.625  13.020   6.599 -0.0417 -0.1666  0.2059
  892YOPE   C2B12524   0.380  13.209   6.895  0.0240  0.2151  0.1489
  892YOPE   D3B12525   0.239  13.443   7.207  0.2416  0.2243 -0.1170
  892YOPE   C4B12526   0.278  13.369   7.619  0.0272  0.1221 -0.1355
  893YOPE   NH312527   2.908   2.302   5.869  0.3016  0.1151 -0.1606
  893YOPE   PO412528   2.651   1.923   5.717 -0.1611  0.1296 -0.0646
  893YOPE   GL112529   2.799   1.918   6.203  0.2781 -0.1659 -0.1980
  893YOPE   GL212530   2.499   1.929   6.239  0.2103 -0.1542  0.2216
  893YOPE   C1A12531   2.994   2.172   6.582 -0.1934  0.0125 -0.0370
  893YOPE   D2A12532   3.127   2.089   6.890 -0.0073  0.0815 -0.3387
  893YOPE   C3A12533   3.061   2.102   7.292 -0.0561  0.1032  0.0465
  893YOPE   C4A12534   3.225   2.007   7.704  0.2492 -0.0501 -0.2098
  893YOPE   C1B12535   2.395   1.568   6.480 -0.0189  0.1444 -0.4741
  893YOPE   C2B12536   2.453   1.361   7.031  0.0316 -0.0843 -0.0641
  893YOPE   D3B12537   2.533   1.336   7.424 -0.1085  0.1738  0.3535
  893YOPE   C4B12538   2.665   1.273   7.798  0.5361  0.1528 -0.1654
  894YOPE   NH312539  16.520   2.345   5.855 -0.0297 -0.0338  0.0769
  894YOPE   PO412540  16.920   2.350   5.934 -0.0428  0.3153 -0.1590
  894YOPE   GL112541  16.844   2.435   6.408  0.0256 -0.0309  0.0988
  894YOPE   GL212542  16.557   2.323   6.415  0.0099 -0.0727  0.0430
  894YOPE   C1A12543  16.771   2.406   6.835  0.1950  0.4285  0.0345
  894YOPE   D2A12544  16.538   2.488   7.146 -0.0202 -0.1521 -0.0323
  894YOPE   C3A12545  16.784   2.498   7.602  0.0597  0.0576 -0.0476
  894YOPE   C4A12546  16.950   2.246   7.889  0.1530  0.1157 -0.0644
  894YOPE   C1B12547  16.310   2.112   6.653 -0.1442  0.1396  0.0901
  894YOPE   C2B12548  16.098   2.287   7.053  0.0321  0.3584 -0.1120
  894YOPE   D3B12549  16.077   2.499   7.438 -0.1938  0.0861  0.0082
  894YOPE   C4B12550  16.343   2.818   7.493 -0.2283  0.4635 -0.1851
  895YOPE   NH312551  12.280  17.112   5.754  0.0562  0.2206 -0.2869
  895YOPE   PO412552  12.220  17.401   6.022  0.0911 -0.1290  0.1746
  895YOPE   GL112553  12.391  17.084   6.246 -0.4664  0.0447  0.0604
  895YOPE   GL212554  12.445  16.820   6.102 -0.1103 -0.0948  0.1433
  895YOPE   C1A12555  12.582  16.789   6.637  0.0061 -0.2414 -0.0033
  895YOPE   D2A12556  12.570  16.784   7.007 -0.0399  0.0383 -0.2264
  895YOPE   C3A12557  12.334  16.752   7.372  0.0041 -0.2168 -0.1411
  895YOPE   C4A12558  12.279  16.693   7.831 -0.1133  0.2510 -0.0592
  895YOPE   C1B12559  12.224  16.492   6.429  0.1677 -0.0111 -0.0305
  895YOPE   C2B12560  12.164  16.484   6.808  0.2948 -0.3522  0.0807
  895YOPE   D3B12561  11.978  16.419   7.224 -0.1568  0.1336  0.3303
  895YOPE   C4B12562  11.987  16.321   7.643  0.1246  0.0180 -0.2998
  896YOPE   NH312563  12.938   0.807   6.255 -0.1566 -0.1273  0.0193
  896YOPE   PO412564  12.893   0.333   5.995  0.0145 -0.0755 -0.2227
  896YOPE   GL112565  12.707   0.380   6.424  0.4043 -0.1961  0.0775
  896YOPE   GL212566  12.921   0.300   6.687  0.2009 -0.0233  0.1848
  896YOPE   C1A12567  12.352   0.420   6.712 -0.0122 -0.0787 -0.0225
  896YOPE   D2A12568  12.589   0.587   6.925  0.0859  0.3332 -0.0405
  896YOPE   C3A12569  12.538   0.533   7.356 -0.0512  0.2470 -0.1519
  896YOPE   C4A12570  12.645   0.712   7.688 -0.0809  0.0127  0.0223
  896YOPE   C1B12571  12.931   0.253   7.162  0.1797 -0.0613 -0.1631
  896YOPE   C2B12572  12.868   0.212   7.626  0.4803  0.2193 -0.0645
  896YOPE   D3B12573  12.734   0.117   8.056 -0.0753  0.1475  0.0910
  896YOPE   C4B12574  13.056   0.050   8.308  0.0105 -0.1036  0.4572
  897YOPE   NH312575   7.358   8.754   5.432 -0.1132  0.0569  0.2474
  897YOPE   PO412576   7.348   8.389   5.632  0.0782  0.1102 -0.1118
  897YOPE   GL112577   7.560   8.470   5.972 -0.0019 -0.3170 -0.0529
  897YOPE   GL212578   7.483   8.755   6.065 -0.3243  0.0421 -0.0360
  897YOPE   C1A12579   7.590   8.516   6.456 -0.3772 -0.0790 -0.0508
  897YOPE   D2A12580   7.556   8.507   6.990 -0.0043 -0.2895 -0.0427
  897YOPE   C3A12581   7.604   8.880   7.193 -0.1191 -0.1742 -0.3909
  897YOPE   C4A12582   7.536   9.244   7.181  0.1716 -0.2637 -0.3694
  897YOPE   C1B12583   7.660   9.041   6.219 -0.2725 -0.0226 -0.3568
  897YOPE   C2B12584   7.661   9.444   6.406 -0.3571 -0.0224  0.2963
  897YOPE   D3B12585   7.399   9.675   6.597  0.1307 -0.0442  0.2721
  897YOPE   C4B12586   7.041   9.978   6.505  0.1018 -0.1998 -0.0521
  898YOPE   NH312587  17.069   9.978   5.877  0.0585  0.3521 -0.0065
  898YOPE   PO412588  17.275   9.560   5.838 -0.0304  0.0301  0.0337
  898YOPE   GL112589  17.044   9.554   6.245  0.2015  0.1097 -0.1701
  898YOPE   GL212590  17.018   9.860   6.419 -0.2713  0.0181  0.2122
  898YOPE   C1A12591  17.079   9.425   6.711 -0.0391  0.0259  0.0276
  898YOPE   D2A12592  17.121   9.332   7.205 -0.0303  0.0108 -0.0521
  898YOPE   C3A12593  16.929   8.935   7.367  0.2879 -0.0060  0.2316
  898YOPE   C4A12594  16.666   8.961   7.677 -0.1432 -0.1663 -0.0681
  898YOPE   C1B12595  16.984   9.985   6.911 -0.1985 -0.0057 -0.2261
  898YOPE   C2B12596  17.039   9.859   7.344  0.0747 -0.0006 -0.1138
  898YOPE   D3B12597  16.874   9.508   7.637 -0.3456  0.0516 -0.0287
  898YOPE   C4B12598  16.770   9.407   7.952 -0.0494  0.0953  0.0111
  899YOPE   NH312599  14.667  17.517   6.369 -0.0583  0.2232 -0.2482
  899YOPE   PO412600  14.190  17.414   6.285 -0.0533  0.3690  0.2308
  899YOPE   GL112601  14.186  17.421   6.662 -0.0056  0.4382 -0.0540
  899YOPE   GL212602  13.883  17.642   6.601  0.1795 -0.2135  0.0166
  899YOPE   C1A12603  14.188  17.211   6.925 -0.1641  0.0910 -0.0229
  899YOPE   D2A12604  14.072  17.032   7.234 -0.2053  0.0606 -0.2124
  899YOPE   C3A12605  14.080  16.723   7.507  0.4098  0.1401  0.0466
  899YOPE   C4A12606  14.046  16.330   7.752 -0.0690 -0.0830  0.0599
  899YOPE   C1B12607  13.993  17.662   6.989  0.0786 -0.1920 -0.1653
  899YOPE   C2B12608  14.018  17.533   7.297 -0.1574 -0.1492 -0.1289
  899YOPE   D3B12609  13.981  17.618   7.706  0.0259  0.2774  0.0646
  899YOPE   C4B12610  14.368  17.572   7.939  0.2495  0.1409 -0.0753
  900YOPE   NH312611   1.367   6.867   5.799 -0.2174  0.3389  0.2956
  900YOPE   PO412612   1.383   6.541   5.919  0.0186 -0.1022 -0.2144
  900YOPE   GL112613   1.388   6.235   6.292 -0.0071 -0.0917 -0.1990
  900YOPE   GL212614   1.108   6.096   6.491 -0.0270  0.0484  0.1730
  900YOPE   C1A12615   1.582   6.044   6.699 -0.0933  0.3015  0.0137
  900YOPE   D2A12616   1.921   5.911   6.986 -0.0489  0.0593  0.0936
  900YOPE   C3A12617   2.029   6.130   7.349  0.1584 -0.2764  0.1402
  900YOPE   C4A12618   2.087   6.314   7.762  0.1632  0.1025 -0.0658
  900YOPE   C1B12619   1.063   6.037   6.941  0.0129 -0.1724 -0.2846
  900YOPE   C2B12620   0.762   6.017   7.186 -0.0126  0.0607 -0.0716
  900YOPE   D3B12621   0.344   5.841   7.479  0.1784 -0.2048 -0.3021
  900YOPE   C4B12622   0.067   6.021   7.905  0.0711  0.5678  0.3061
  901YOPE   NH312623   6.804  17.022   6.055  0.3034 -0.2137 -0.0811
  901YOPE   PO412624   7.098  16.819   6.139  0.1647 -0.2883 -0.0156
  901YOPE   GL112625   6.817  16.794   6.520 -0.0926 -0.3897 -0.3350
  901YOPE   GL212626   6.927  16.613   6.674  0.1054  0.0135  0.0635
  901YOPE   C1A12627   6.674  16.968   6.933  0.1528 -0.2666  0.0189
  901YOPE   D2A12628   6.269  16.752   7.187 -0.1357 -0.0572 -0.1704
  901YOPE   C3A12629   6.166  16.730   7.666 -0.0704 -0.0419  0.1500
  901YOPE   C4A12630   6.128  16.662   8.106 -0.2623 -0.0173  0.3154
  901YOPE   C1B12631   6.965  16.621   7.151 -0.1103  0.0250  0.0293
  901YOPE   C2B12632   7.018  16.780   7.604  0.2251 -0.1084 -0.3118
  901YOPE   D3B12633   7.058  17.001   7.987  0.3950 -0.1742 -0.0726
  901YOPE   C4B12634   6.733  17.280   8.022  0.2795  0.0398 -0.0855
  902YOPE   NH312635   4.336   6.980   5.707  0.0994  0.3318  0.0555
  902YOPE   PO412636   4.313   7.449   5.756 -0.2758  0.2264 -0.0961
  902YOPE   GL112637   4.150   7.460   6.114 -0.0443  0.1681  0.1414
  902YOPE   GL212638   3.863   7.664   6.042  0.1034 -0.0168  0.1275
  902YOPE   C1A12639   4.116   7.328   6.500  0.1733 -0.0363 -0.0594
  902YOPE   D2A12640   3.766   7.220   6.767 -0.0299  0.3149 -0.0816
  902YOPE   C3A12641   3.749   6.998   7.053  0.0994 -0.0843 -0.1235
  902YOPE   C4A12642   3.761   6.786   7.474  0.2400  0.0727  0.0712
  902YOPE   C1B12643   3.671   7.577   6.371 -0.1349 -0.1365 -0.0822
  902YOPE   C2B12644   3.453   7.631   6.704  0.3219 -0.0315 -0.1845
  902YOPE   D3B12645   3.224   7.771   7.077  0.0805 -0.1917 -0.1681
  902YOPE   C4B12646   3.201   8.101   7.446  0.2085  0.1054 -0.4126
  903YOPE   NH312647  11.708  16.408   5.811  0.1134 -0.1952 -0.1301
  903YOPE   PO412648  11.445  16.685   5.897 -0.0953  0.2292 -0.4224
  903YOPE   GL112649  11.452  16.805   6.266 -0.0590  0.0037 -0.0044
  903YOPE   GL212650  11.232  16.995   6.345  0.0503  0.1115 -0.0192
  903YOPE   C1A12651  11.654  16.713   6.728  0.2709 -0.0606 -0.2650
  903YOPE   D2A12652  11.806  16.847   6.987  0.0906  0.5685 -0.1184
  903YOPE   C3A12653  11.724  16.824   7.393 -0.0809 -0.1826  0.0121
  903YOPE   C4A12654  11.680  16.763   7.802  0.1767  0.2114  0.2562
  903YOPE   C1B12655  11.205  17.159   6.703 -0.2539 -0.1430 -0.0326
  903YOPE   C2B12656  11.406  17.160   7.044  0.1079 -0.0385  0.1614
  903YOPE   D3B12657  11.653  17.351   7.349  0.3318 -0.1930  0.1665
  903YOPE   C4B12658  11.751  17.446   7.831  0.2035  0.5214  0.1984
  904YOPE   NH312659  10.400  16.594   5.996  0.0886 -0.0803 -0.0222
  904YOPE   PO412660  10.175  16.353   5.642  0.4204  0.0325 -0.2062
  904YOPE   GL112661   9.952  16.164   6.027 -0.2695  0.0725  0.2052
  904YOPE   GL212662  10.071  16.319   6.288 -0.1470  0.1316  0.0752
  904YOPE   C1A12663  10.017  15.830   6.279  0.2832 -0.2237  0.0807
  904YOPE   D2A12664   9.678  15.659   6.587 -0.1485 -0.1880 -0.0262
  904YOPE   C3A12665   9.736  15.539   6.942  0.0190 -0.0723 -0.0066
  904YOPE   C4A12666   9.658  15.431   7.345  0.2003 -0.0177 -0.0550
  904YOPE   C1B12667   9.772  16.245   6.615 -0.0096 -0.0941  0.1177
  904YOPE   C2B12668   9.587  16.456   6.938  0.3168  0.0188  0.2275
  904YOPE   D3B12669   9.712  16.912   7.009  0.0047  0.4111 -0.1959
  904YOPE   C4B12670   9.656  17.149   7.222 -0.2736 -0.0627  0.1414
  905YOPE   NH312671   0.588   9.774   5.590  0.0453  0.0617  0.0925
  905YOPE   PO412672   1.006   9.679   5.508  0.1047  0.0699  0.0958
  905YOPE   GL112673   0.971   9.726   6.071 -0.0567  0.2821  0.1188
  905YOPE   GL212674   0.668   9.972   6.088  0.0288  0.0843 -0.0207
  905YOPE   C1A12675   1.016   9.794   6.427  0.1654  0.1122  0.3684
  905YOPE   D2A12676   0.867   9.893   6.807  0.2328  0.0412 -0.0858
  905YOPE   C3A12677   0.762   9.734   7.200 -0.3119 -0.2550  0.3358
  905YOPE   C4A12678   0.703   9.419   7.436  0.4923  0.0960 -0.2942
  905YOPE   C1B12679   0.679  10.228   6.499 -0.0991 -0.1196 -0.3416
  905YOPE   C2B12680   0.687  10.397   6.965  0.0425 -0.0132  0.0279
  905YOPE   D3B12681   0.646  10.267   7.377  0.0406 -0.2783 -0.0497
  905YOPE   C4B12682   0.920  10.303   7.698  0.2211 -0.0229  0.1357
  906YOPE   NH312683   9.517   8.341   5.534  0.1716  0.0237 -0.0306
  906YOPE   PO412684  10.058   8.487   5.549  0.1576 -0.2555  0.1100
  906YOPE   GL112685  10.126   8.216   5.860 -0.3529 -0.0228  0.0813
  906YOPE   GL212686  10.232   8.398   6.068 -0.2725 -0.0231 -0.0915
  906YOPE   C1A12687  10.068   7.938   6.159 -0.1883 -0.2012 -0.0909
  906YOPE   D2A12688   9.827   7.784   6.476 -0.2551 -0.2209  0.3996
  906YOPE   C3A12689   9.409   7.947   6.403  0.1908  0.2026 -0.1411
  906YOPE   C4A12690   8.990   8.057   6.488  0.0118  0.0309  0.0873
  906YOPE   C1B12691  10.242   8.395   6.525 -0.1346  0.1528  0.3216
  906YOPE   C2B12692  10.202   8.445   6.996 -0.0955  0.1790  0.1327
  906YOPE   D3B12693  10.090   8.337   7.446  0.4038 -0.0778 -0.2917
  906YOPE   C4B12694   9.890   8.453   7.901 -0.0243  0.0215 -0.2594
  907YOPE   NH312695   7.546   1.184   5.854 -0.2176 -0.3524  0.0663
  907YOPE   PO412696   7.983   0.984   6.026  0.2714 -0.2326 -0.1818
  907YOPE   GL112697   7.766   1.203   6.364 -0.3459 -0.2786  0.0027
  907YOPE   GL212698   7.409   1.400   6.389  0.0446 -0.0475  0.0996
  907YOPE   C1A12699   7.882   1.193   6.799 -0.1395 -0.3383  0.1043
  907YOPE   D2A12700   7.945   1.264   7.265  0.1350  0.2869 -0.2222
  907YOPE   C3A12701   7.932   1.117   7.735 -0.0006  0.1686  0.0892
  907YOPE   C4A12702   7.856   0.944   8.192  0.1239 -0.0238 -0.1813
  907YOPE   C1B12703   7.554   1.556   6.751  0.0136  0.0386 -0.2634
  907YOPE   C2B12704   7.485   1.434   7.194 -0.4375  0.1810  0.3873
  907YOPE   D3B12705   7.616   1.479   7.638 -0.1472  0.1298 -0.0922
  907YOPE   C4B12706   7.484   1.021   7.932 -0.1480 -0.1679 -0.1023
  908YOPE   NH312707  11.350   7.268   5.744 -0.0605  0.0045 -0.3120
  908YOPE   PO412708  11.695   7.057   5.663  0.0673  0.0330  0.1537
  908YOPE   GL112709  11.554   6.963   6.139 -0.1712 -0.1341  0.0172
  908YOPE   GL212710  11.645   7.294   6.223 -0.1061 -0.2419 -0.2812
  908YOPE   C1A12711  11.570   6.965   6.564 -0.2016  0.0606 -0.1211
  908YOPE   D2A12712  11.576   6.708   6.912 -0.0674 -0.0510 -0.0204
  908YOPE   C3A12713  11.741   6.227   6.826 -0.0129 -0.0313  0.0311
  908YOPE   C4A12714  11.544   5.786   7.058 -0.0716 -0.1444  0.0528
  908YOPE   C1B12715  11.933   7.315   6.629 -0.2550  0.0561 -0.1732
  908YOPE   C2B12716  12.036   7.466   7.062  0.2335  0.1411 -0.1592
  908YOPE   D3B12717  12.117   7.492   7.479  0.0970  0.0803 -0.2431
  908YOPE   C4B12718  12.387   7.591   7.800  0.0508 -0.0360 -0.0284
  909YOPE   NH312719   9.195   2.534   5.835 -0.2678 -0.0093  0.1617
  909YOPE   PO412720   9.444   2.275   6.032  0.0681 -0.1691 -0.1362
  909YOPE   GL112721   9.552   2.344   6.437  0.0764 -0.0457 -0.3416
  909YOPE   GL212722   9.543   2.661   6.540 -0.1173  0.0612 -0.0121
  909YOPE   C1A12723   9.498   2.389   6.925  0.1719  0.0134 -0.0506
  909YOPE   D2A12724   9.505   2.579   7.416 -0.1285  0.0896 -0.0416
  909YOPE   C3A12725   9.944   2.635   7.560  0.1105  0.3228 -0.0408
  909YOPE   C4A12726  10.137   2.844   7.797 -0.1012 -0.1399  0.0715
  909YOPE   C1B12727   9.357   2.853   6.935 -0.2687  0.0972  0.3139
  909YOPE   C2B12728   9.277   3.051   7.310 -0.0738  0.2978 -0.1373
  909YOPE   D3B12729   9.172   2.983   7.758  0.2561 -0.1178 -0.1864
  909YOPE   C4B12730   9.319   2.976   8.141 -0.1057 -0.0942 -0.1628
  910YOPE   NH312731   0.567   4.902   5.665  0.0072  0.0675  0.1019
  910YOPE   PO412732   1.032   4.705   5.800 -0.0239 -0.1693  0.2564
  910YOPE   GL112733   0.992   4.777   6.219  0.1821 -0.0828  0.0712
  910YOPE   GL212734   1.268   4.873   6.281  0.0748  0.1690  0.1508
  910YOPE   C1A12735   0.921   4.634   6.632 -0.0892 -0.1787 -0.1741
  910YOPE   D2A12736   0.897   4.634   7.062 -0.1226  0.5977  0.1178
  910YOPE   C3A12737   0.524   4.439   7.279 -0.0555 -0.0250 -0.0314
  910YOPE   C4A12738   0.405   4.084   7.682 -0.0778  0.1018 -0.2823
  910YOPE   C1B12739   1.417   4.593   6.574  0.2939 -0.0192  0.2081
  910YOPE   C2B12740   1.420   4.555   7.046 -0.2106  0.2680 -0.1654
  910YOPE   D3B12741   1.195   4.481   7.409  0.2487 -0.1011 -0.2002
  910YOPE   C4B12742   1.361   4.360   7.796  0.0806 -0.3200 -0.5655
  911YOPE   NH312743  13.259   0.016   5.852  0.0387 -0.4053 -0.1915
  911YOPE   PO412744  13.447  -0.211   6.129  0.2838 -0.1248 -0.1845
  911YOPE   GL112745  13.364  -0.407   6.452 -0.0023 -0.2622 -0.1567
  911YOPE   GL212746  13.168  -0.136   6.657  0.2348  0.0984 -0.2620
  911YOPE   C1A12747  13.383  -0.634   6.893 -0.2348  0.1415  0.0690
  911YOPE   D2A12748  13.268  -0.682   7.315  0.2280 -0.3099 -0.0604
  911YOPE   C3A12749  13.506  -0.745   7.746 -0.1782  0.0913 -0.0250
  911YOPE   C4A12750  13.510  -0.856   8.141  0.0953  0.2181  0.0927
  911YOPE   C1B12751  13.152  -0.234   7.123 -0.2237 -0.1543 -0.2441
  911YOPE   C2B12752  13.054  -0.234   7.586 -0.1713  0.1439  0.0522
  911YOPE   D3B12753  13.184  -0.401   8.003 -0.0399  0.3431 -0.2694
  911YOPE   C4B12754  13.269  -0.403   8.505 -0.1271  0.2081 -0.0379
  912YOPE   NH312755   7.940   5.731   5.713  0.0970  0.1136 -0.2690
  912YOPE   PO412756   7.875   5.377   5.663  0.0645  0.1644  0.1186
  912YOPE   GL112757   7.970   5.103   6.018 -0.1544 -0.1409 -0.0634
  912YOPE   GL212758   7.963   4.789   6.038 -0.2548 -0.1227 -0.4051
  912YOPE   C1A12759   7.983   5.257   6.460 -0.0900 -0.0257  0.0838
  912YOPE   D2A12760   8.031   5.400   6.913 -0.1286  0.0128  0.0625
  912YOPE   C3A12761   7.781   5.354   7.169 -0.0753 -0.2252 -0.1639
  912YOPE   C4A12762   7.509   5.417   7.478 -0.2173 -0.6634 -0.2321
  912YOPE   C1B12763   7.931   4.775   6.579 -0.0933  0.2007 -0.2843
  912YOPE   C2B12764   7.897   4.915   6.973  0.1147  0.2024 -0.0524
  912YOPE   D3B12765   8.093   5.041   7.433 -0.1966  0.0264 -0.0981
  912YOPE   C4B12766   8.331   5.078   7.803  0.0192 -0.2667  0.0138
  913YOPE   NH312767   7.306   0.200   5.999 -0.2506  0.0797  0.4598
  913YOPE   PO412768   6.836   0.199   6.160  0.2098 -0.3998  0.1653
  913YOPE   GL112769   6.644   0.464   6.330 -0.1190 -0.0651  0.1610
  913YOPE   GL212770   6.675   0.805   6.223  0.0551 -0.0902 -0.0721
  913YOPE   C1A12771   6.568   0.535   6.790  0.0187 -0.0791 -0.0882
  913YOPE   D2A12772   6.533   0.656   7.210  0.2233 -0.3183 -0.3092
  913YOPE   C3A12773   6.599   0.589   7.721 -0.1637 -0.1243  0.0394
  913YOPE   C4A12774   6.486   0.442   8.167 -0.1504  0.0138  0.1322
  913YOPE   C1B12775   6.372   0.906   6.518 -0.3034  0.0330 -0.0036
  913YOPE   C2B12776   6.163   0.845   6.889 -0.1365  0.0146 -0.1175
  913YOPE   D3B12777   6.049   0.833   7.318 -0.2507 -0.3133  0.0484
  913YOPE   C4B12778   5.679   0.729   7.605 -0.0850 -0.2196 -0.2425
  914YOPE   NH312779   6.212  11.626   5.493 -0.1323 -0.0204 -0.0965
  914YOPE   PO412780   6.456  11.515   5.806  0.3210  0.0628  0.1993
  914YOPE   GL112781   6.346  11.540   6.207 -0.1725 -0.0251  0.0200
  914YOPE   GL212782   6.558  11.314   6.291  0.1950 -0.1268  0.0694
  914YOPE   C1A12783   6.315  11.775   6.538 -0.0935  0.1973  0.1350
  914YOPE   D2A12784   6.356  12.105   6.898 -0.1079  0.0542  0.1186
  914YOPE   C3A12785   6.404  12.534   6.898  0.3214 -0.2330  0.0411
  914YOPE   C4A12786   6.648  12.803   7.180 -0.0729 -0.0980 -0.2155
  914YOPE   C1B12787   6.746  11.608   6.620  0.1350 -0.0146  0.0834
  914YOPE   C2B12788   6.715  11.734   7.073  0.0269 -0.0995  0.0415
  914YOPE   D3B12789   7.024  11.638   7.370 -0.2812  0.0877  0.1073
  914YOPE   C4B12790   6.972  11.607   7.726 -0.0403  0.0036  0.1029
  915YOPE   NH312791  11.161   1.739   6.096  0.4032 -0.0929  0.0453
  915YOPE   PO412792  11.535   1.551   6.204  0.2975 -0.0257  0.2497
  915YOPE   GL112793  11.556   1.448   6.672 -0.1287  0.0469  0.0076
  915YOPE   GL212794  11.759   1.156   6.818 -0.0230  0.1388 -0.5033
  915YOPE   C1A12795  11.586   1.718   7.120  0.2060 -0.3739  0.1779
  915YOPE   D2A12796  11.270   1.831   7.457  0.3057  0.0937  0.0930
  915YOPE   C3A12797  11.291   2.026   7.850  0.0110  0.0882  0.1103
  915YOPE   C4A12798  10.822   2.128   8.137 -0.2159 -0.0032  0.1201
  915YOPE   C1B12799  11.924   1.293   7.189 -0.0299  0.0483  0.0747
  915YOPE   C2B12800  12.041   1.419   7.585 -0.1223 -0.0751 -0.1314
  915YOPE   D3B12801  12.233   1.588   7.856  0.0134  0.0237  0.3329
  915YOPE   C4B12802  12.150   1.535   8.233  0.4250 -0.0514  0.3509
  916YOPE   NH312803  12.950   1.316   5.614  0.0569  0.0366 -0.1075
  916YOPE   PO412804  13.155   1.214   6.071  0.3911 -0.1806  0.1994
  916YOPE   GL112805  13.351   1.073   6.455  0.1040 -0.0685  0.1814
  916YOPE   GL212806  13.439   0.799   6.443  0.0082  0.1099 -0.2812
  916YOPE   C1A12807  13.232   1.249   6.879 -0.1481 -0.1246  0.1402
  916YOPE   D2A12808  13.364   1.230   7.348 -0.2209 -0.1036 -0.2045
  916YOPE   C3A12809  13.486   1.412   7.683 -0.1599  0.2076 -0.3085
  916YOPE   C4A12810  13.638   1.730   8.030 -0.2185 -0.1316 -0.0685
  916YOPE   C1B12811  13.594   0.611   6.726  0.0446  0.0116  0.0922
  916YOPE   C2B12812  13.487   0.260   6.980 -0.0403 -0.2253  0.0440
  916YOPE   D3B12813  13.409   0.101   7.398 -0.1674  0.2641  0.0779
  916YOPE   C4B12814  13.354   0.137   7.862 -0.1536 -0.1118  0.1531
  917YOPE   NH312815   8.548  12.268   6.024  0.0106  0.2739 -0.0864
  917YOPE   PO412816   8.741  12.710   5.886  0.0158  0.2588  0.0068
  917YOPE   GL112817   8.918  12.432   6.264 -0.0026 -0.2539  0.0310
  917YOPE   GL212818   9.108  12.250   6.104 -0.1291 -0.2250  0.1188
  917YOPE   C1A12819   9.060  12.375   6.620 -0.1551  0.0778  0.3368
  917YOPE   D2A12820   9.145  12.519   6.971  0.0497  0.0589 -0.3033
  917YOPE   C3A12821   9.584  12.523   7.126  0.3284 -0.1701  0.0797
  917YOPE   C4A12822   9.863  12.638   7.300  0.0512 -0.3156 -0.3305
  917YOPE   C1B12823   9.487  12.367   6.419 -0.0968  0.2391  0.0158
  917YOPE   C2B12824   9.889  12.405   6.693 -0.1162 -0.2563  0.0054
  917YOPE   D3B12825  10.077  12.193   7.080 -0.0721 -0.1476 -0.2192
  917YOPE   C4B12826  10.194  12.044   7.430 -0.2031 -0.1021  0.0826
  918YOPE   NH312827   7.586  13.311   5.540 -0.4092  0.2021  0.0434
  918YOPE   PO412828   7.306  13.314   5.823  0.1558 -0.3903 -0.2865
  918YOPE   GL112829   7.557  13.343   6.137  0.0296 -0.1721 -0.1387
  918YOPE   GL212830   7.663  13.570   6.241  0.0417  0.1541  0.1731
  918YOPE   C1A12831   7.755  13.220   6.594  0.3011 -0.2260 -0.1404
  918YOPE   D2A12832   7.828  13.211   7.096  0.0277  0.0826 -0.0087
  918YOPE   C3A12833   7.950  13.134   7.584  0.0635  0.3276 -0.3558
  918YOPE   C4A12834   7.844  12.787   7.896 -0.0932 -0.3808  0.3788
  918YOPE   C1B12835   7.693  13.800   6.500 -0.0441  0.1616 -0.2529
  918YOPE   C2B12836   7.625  14.121   6.773 -0.2673 -0.2118 -0.2771
  918YOPE   D3B12837   7.705  14.544   6.880  0.1165  0.2878 -0.0121
  918YOPE   C4B12838   7.657  14.881   6.746 -0.0382 -0.1569  0.0669
  919YOPE   NH312839  13.230   5.844   6.094  0.0493  0.2103 -0.4297
  919YOPE   PO412840  13.055   5.389   6.093  0.1894 -0.0377 -0.1781
  919YOPE   GL112841  13.017   5.568   6.450 -0.2557  0.4832  0.1357
  919YOPE   GL212842  13.079   5.963   6.577 -0.0195 -0.0149 -0.4893
  919YOPE   C1A12843  13.094   5.434   6.812  0.1546  0.0053  0.0497
  919YOPE   D2A12844  13.144   5.440   7.292 -0.0908  0.0171 -0.5338
  919YOPE   C3A12845  13.018   5.622   7.727 -0.0834 -0.0297 -0.1412
  919YOPE   C4A12846  13.139   5.833   8.080  0.1899  0.0069  0.0263
  919YOPE   C1B12847  13.109   5.920   7.023 -0.2154  0.2516  0.0583
  919YOPE   C2B12848  13.292   5.921   7.443  0.0683 -0.0604  0.0158
  919YOPE   D3B12849  13.532   5.630   7.615  0.2190  0.0210 -0.0337
  919YOPE   C4B12850  13.695   5.526   8.018 -0.0502  0.0051  0.1809
  920YOPE   NH312851  17.910   9.656   5.672  0.0894  0.1677  0.4940
  920YOPE   PO412852  18.391   9.650   5.680  0.1238  0.1880  0.0863
  920YOPE   GL112853  18.223   9.532   6.149  0.0857 -0.3263 -0.0133
  920YOPE   GL212854  17.842   9.476   6.156  0.2283  0.0925 -0.1816
  920YOPE   C1A12855  18.070   9.666   6.592 -0.1072  0.0668  0.2808
  920YOPE   D2A12856  18.164   9.527   7.085  0.0437  0.2116  0.0339
  920YOPE   C3A12857  17.878   9.275   7.450 -0.2240 -0.1939  0.0262
  920YOPE   C4A12858  17.828   8.970   7.812 -0.0824  0.2846  0.0257
  920YOPE   C1B12859  17.632   9.438   6.533 -0.1159  0.2540  0.0740
  920YOPE   C2B12860  17.628   9.444   6.984  0.2451 -0.1097  0.0812
  920YOPE   D3B12861  17.596   9.724   7.362 -0.0622 -0.0207  0.2319
  920YOPE   C4B12862  17.910   9.864   7.635  0.0963 -0.0603 -0.1632
  921YOPE   NH312863  17.579   3.652   5.534  0.1461  0.0964  0.1489
  921YOPE   PO412864  17.769   3.313   5.838  0.1991  0.4334  0.0889
  921YOPE   GL112865  17.767   3.268   6.289  0.1909 -0.3213 -0.1698
  921YOPE   GL212866  17.664   2.958   6.326  0.3710 -0.1869  0.0200
  921YOPE   C1A12867  17.873   3.314   6.758 -0.2212  0.1666 -0.3313
  921YOPE   D2A12868  18.052   3.403   7.241 -0.3455  0.1053  0.1356
  921YOPE   C3A12869  18.074   3.317   7.714 -0.0404 -0.0265 -0.1160
  921YOPE   C4A12870  17.749   3.272   7.904  0.0464  0.0474 -0.0589
  921YOPE   C1B12871  17.538   2.989   6.838 -0.0363 -0.1519  0.0616
  921YOPE   C2B12872  17.321   3.154   7.249 -0.1191 -0.1498 -0.1015
  921YOPE   D3B12873  17.344   3.117   7.712 -0.0849  0.0100 -0.1908
  921YOPE   C4B12874  17.402   2.970   8.158 -0.1558  0.1647 -0.1233
  922YOPE   NH312875   4.155   2.899   5.686  0.1241  0.1664  0.2837
  922YOPE   PO412876   3.862   3.293   5.657 -0.2749 -0.2932 -0.1152
  922YOPE   GL112877   3.953   3.236   6.036 -0.0439  0.0295 -0.1217
  922YOPE   GL212878   4.246   3.384   6.017 -0.0649  0.0439 -0.1751
  922YOPE   C1A12879   4.022   3.255   6.458  0.0533  0.0008  0.0213
  922YOPE   D2A12880   4.336   3.495   6.753  0.1029  0.4592  0.1827
  922YOPE   C3A12881   4.409   3.330   7.158  0.1118 -0.5130 -0.1231
  922YOPE   C4A12882   4.322   3.303   7.567  0.1829 -0.0982  0.1535
  922YOPE   C1B12883   4.502   3.308   6.284  0.1703  0.0650  0.1434
  922YOPE   C2B12884   4.662   3.132   6.830 -0.1528  0.0387 -0.2394
  922YOPE   D3B12885   4.669   2.876   7.172  0.0320 -0.1024 -0.0238
  922YOPE   C4B12886   4.655   2.963   7.524 -0.1480  0.3597  0.1398
  923YOPE   NH312887   8.875   8.575   5.558 -0.0390 -0.0516  0.1051
  923YOPE   PO412888   8.640   8.163   5.617  0.0653 -0.4165  0.1028
  923YOPE   GL112889   8.484   8.438   5.917 -0.1779  0.0503  0.0748
  923YOPE   GL212890   8.749   8.421   6.103  0.0412  0.2351 -0.0215
  923YOPE   C1A12891   8.432   8.812   6.059  0.0055 -0.1116 -0.0882
  923YOPE   D2A12892   8.335   9.012   6.397  0.0332  0.0250 -0.1425
  923YOPE   C3A12893   8.471   8.974   6.753  0.0219 -0.1253  0.0143
  923YOPE   C4A12894   8.590   9.065   7.217  0.2207  0.0102  0.2914
  923YOPE   C1B12895   8.711   8.461   6.562 -0.1845  0.3484 -0.0986
  923YOPE   C2B12896   8.715   8.544   6.980  0.3105 -0.2201  0.0040
  923YOPE   D3B12897   8.584   8.498   7.449  0.4781  0.0265  0.1390
  923YOPE   C4B12898   8.686   8.435   7.981  0.1597 -0.1601 -0.2713
  924YOPE   NH312899  18.205   0.485   6.023 -0.1113  0.1653 -0.0767
  924YOPE   PO412900  18.348   0.930   6.083  0.0005  0.1090 -0.0755
  924YOPE   GL112901  18.358   1.156   6.379  0.2381  0.1912 -0.0431
  924YOPE   GL212902  18.086   0.894   6.509 -0.1776 -0.1663 -0.1271
  924YOPE   C1A12903  17.993   1.369   6.652 -0.0311 -0.1430 -0.0722
  924YOPE   D2A12904  17.714   1.591   6.965  0.3322  0.2781  0.3367
  924YOPE   C3A12905  17.465   1.370   7.228 -0.3522 -0.2365  0.4337
  924YOPE   C4A12906  17.087   1.435   7.544  0.1229  0.0387 -0.0964
  924YOPE   C1B12907  18.258   0.986   6.859 -0.0349 -0.1457 -0.1253
  924YOPE   C2B12908  17.929   1.167   7.151 -0.1208  0.1005 -0.3516
  924YOPE   D3B12909  18.112   1.234   7.528  0.3084  0.2584 -0.0513
  924YOPE   C4B12910  18.096   1.111   8.017 -0.0030  0.0698 -0.1185
  925YOPE   NH312911  12.209   9.079   5.830 -0.0630 -0.1656  0.1196
  925YOPE   PO412912  12.620   8.906   5.800  0.0647 -0.2935 -0.2804
  925YOPE   GL112913  12.612   8.703   6.098 -0.1069 -0.2071 -0.1174
  925YOPE   GL212914  12.465   8.445   6.239  0.2893 -0.0738 -0.1928
  925YOPE   C1A12915  12.979   8.516   6.311 -0.1954  0.1095  0.0464
  925YOPE   D2A12916  13.451   8.567   6.415  0.0937  0.2612  0.2871
  925YOPE   C3A12917  13.611   8.486   6.773  0.0752  0.1117  0.0770
  925YOPE   C4A12918  13.950   8.533   6.994  0.0021  0.1307 -0.2988
  925YOPE   C1B12919  12.706   8.820   6.581  0.0695  0.2960 -0.0235
  925YOPE   C2B12920  12.847   8.910   7.044 -0.1300 -0.1579 -0.0245
  925YOPE   D3B12921  12.873   9.029   7.515  0.1581  0.0571 -0.0204
  925YOPE   C4B12922  12.682   8.948   7.952 -0.4978 -0.2037 -0.0032
  926YOPE   NH312923  15.539   0.222   6.199  0.2343  0.0220  0.0021
  926YOPE   PO412924  15.201   0.499   6.423  0.2877 -0.0047 -0.1486
  926YOPE   GL112925  15.473   0.433   6.740  0.0449  0.0465 -0.1659
  926YOPE   GL212926  15.620   0.191   6.687 -0.0163  0.2160  0.3311
  926YOPE   C1A12927  15.624   0.677   7.012 -0.0829 -0.1270  0.0670
  926YOPE   D2A12928  15.803   1.062   6.844 -0.0085 -0.0316  0.0110
  926YOPE   C3A12929  16.093   1.373   6.968  0.3396  0.1255  0.0782
  926YOPE   C4A12930  15.913   1.837   7.142 -0.3159 -0.1206  0.1170
  926YOPE   C1B12931  15.723   0.209   7.207  0.0243 -0.0003 -0.0359
  926YOPE   C2B12932  15.769   0.108   7.644  0.0649 -0.0742  0.1662
  926YOPE   D3B12933  15.671   0.380   7.976 -0.0192 -0.2234 -0.3376
  926YOPE   C4B12934  15.852   0.809   8.002  0.2390 -0.1321 -0.1288
  927YOPE   NH312935   4.385  16.376   6.129 -0.0444  0.2509 -0.0535
  927YOPE   PO412936   4.817  16.323   6.097 -0.0500 -0.2448 -0.2540
  927YOPE   GL112937   4.614  16.407   6.527 -0.2245 -0.1092 -0.1537
  927YOPE   GL212938   4.494  16.051   6.627 -0.2449  0.2310  0.2548
  927YOPE   C1A12939   4.775  16.341   6.976  0.2377  0.1992  0.2018
  927YOPE   D2A12940   4.831  16.403   7.388  0.1379 -0.2260 -0.0093
  927YOPE   C3A12941   4.908  16.171   7.736 -0.1259  0.1322 -0.0406
  927YOPE   C4A12942   4.839  15.974   8.144  0.0603 -0.0857 -0.0521
  927YOPE   C1B12943   4.474  15.906   6.988 -0.0569  0.1896  0.3456
  927YOPE   C2B12944   4.487  15.928   7.359 -0.3484  0.0874 -0.5914
  927YOPE   D3B12945   4.394  15.587   7.723  0.2428  0.0557  0.0731
  927YOPE   C4B12946   4.392  15.316   8.046  0.2781 -0.1497 -0.1276
  928YOPE   NH312947   0.778   6.686   6.001 -0.1458 -0.1412  0.0319
  928YOPE   PO412948   0.357   6.835   5.914  0.0672  0.0665 -0.0639
  928YOPE   GL112949   0.425   6.828   6.314 -0.0413 -0.1494 -0.0713
  928YOPE   GL212950   0.350   7.104   6.458  0.2240 -0.3605 -0.1301
  928YOPE   C1A12951   0.356   6.682   6.721 -0.2381 -0.1637  0.0596
  928YOPE   D2A12952   0.241   6.821   7.118 -0.3675 -0.0382  0.0241
  928YOPE   C3A12953   0.010   6.699   7.398 -0.0184 -0.2976  0.2089
  928YOPE   C4A12954  -0.388   6.547   7.376 -0.0704 -0.3488  0.0380
  928YOPE   C1B12955   0.381   7.310   6.765  0.0374 -0.1068  0.1298
  928YOPE   C2B12956   0.207   7.387   7.216  0.2672 -0.1840  0.1280
  928YOPE   D3B12957   0.155   7.193   7.656 -0.1426 -0.3121  0.1403
  928YOPE   C4B12958   0.211   6.896   7.962 -0.0296 -0.2873  0.1710
  929YOPE   NH312959  12.769   4.861   6.133 -0.0292 -0.0858 -0.1429
  929YOPE   PO412960  12.388   4.726   6.250 -0.0003  0.0765  0.1114
  929YOPE   GL112961  12.264   4.930   6.564 -0.0975  0.2328  0.0164
  929YOPE   GL212962  12.513   5.040   6.647 -0.0168  0.0710 -0.0374
  929YOPE   C1A12963  12.106   4.989   7.052 -0.2958 -0.1377  0.2585
  929YOPE   D2A12964  12.174   5.035   7.435 -0.0819 -0.0595  0.1794
  929YOPE   C3A12965  12.318   4.909   7.825 -0.0435  0.1324 -0.0260
  929YOPE   C4A12966  12.204   4.723   8.228 -0.2996 -0.1114  0.2414
  929YOPE   C1B12967  12.714   5.223   6.940  0.1145  0.3009 -0.0490
  929YOPE   C2B12968  12.994   4.988   7.202  0.0945  0.0286 -0.0763
  929YOPE   D3B12969  13.092   5.016   7.674  0.2385 -0.1442  0.1232
  929YOPE   C4B12970  13.159   5.195   8.076  0.1971 -0.0563 -0.1151
  930YOPE   NH312971  12.078   4.243   6.095 -0.2772 -0.0115  0.1539
  930YOPE   PO412972  11.765   3.874   6.024 -0.1264 -0.2940  0.1663
  930YOPE   GL112973  11.838   3.981   6.426 -0.1591 -0.1912 -0.2323
  930YOPE   GL212974  12.101   3.952   6.683  0.2643 -0.0244 -0.0627
  930YOPE   C1A12975  11.406   3.997   6.751 -0.1585  0.1334 -0.3769
  930YOPE   D2A12976  11.000   4.235   7.044  0.0311  0.2606  0.0039
  930YOPE   C3A12977  10.936   4.631   7.221 -0.0026 -0.4992  0.2430
  930YOPE   C4A12978  10.781   4.901   7.530 -0.1267 -0.0414 -0.0514
  930YOPE   C1B12979  12.053   3.887   7.176  0.0842  0.1804 -0.1434
  930YOPE   C2B12980  11.990   3.976   7.583  0.1262 -0.1565  0.2413
  930YOPE   D3B12981  11.808   3.976   7.969  0.0856  0.1423  0.2108
  930YOPE   C4B12982  11.413   3.897   8.198 -0.0870 -0.0690  0.2098
  931YOPE   NH312983  11.708   1.069   6.337  0.0523 -0.1685  0.1645
  931YOPE   PO412984  11.433   0.984   6.480 -0.2954 -0.0532  0.2415
  931YOPE   GL112985  11.310   0.955   6.824  0.1044  0.0325  0.1491
  931YOPE   GL212986  11.172   1.159   6.891  0.0198 -0.0474 -0.2213
  931YOPE   C1A12987  11.238   0.784   7.248  0.2821  0.1051  0.0346
  931YOPE   D2A12988  11.193   0.957   7.557 -0.1722 -0.2902  0.0760
  931YOPE   C3A12989  11.053   1.335   7.580 -0.0286 -0.0811  0.0880
  931YOPE   C4A12990  10.933   1.485   7.237  0.1236 -0.0396  0.2604
  931YOPE   C1B12991  11.412   1.249   7.217  0.1962 -0.2237  0.1279
  931YOPE   C2B12992  11.569   1.465   7.600  0.1138  0.0147 -0.1124
  931YOPE   D3B12993  11.692   1.625   8.005 -0.2631  0.0033  0.1294
  931YOPE   C4B12994  11.669   1.990   8.284 -0.3081 -0.0472 -0.0659
  932YOPE   NH312995  16.054   5.573   5.536 -0.2407 -0.0988 -0.0522
  932YOPE   PO412996  15.627   5.522   5.553 -0.0780  0.1430  0.2017
  932YOPE   GL112997  15.790   5.612   5.961 -0.4989  0.0922  0.0029
  932YOPE   GL212998  15.558   5.778   6.083  0.1739  0.0162  0.1167
  932YOPE   C1A12999  15.975   5.611   6.402  0.0384  0.0386  0.0827
  932YOPE   D2A13000  15.841   5.590   6.884 -0.0081  0.2486  0.1963
  932YOPE   C3A13001  15.890   5.568   7.322  0.1759 -0.0360 -0.2555
  932YOPE   C4A13002  15.951   5.428   7.707 -0.2012  0.3033 -0.1478
  932YOPE   C1B13003  15.473   5.877   6.590  0.1382  0.1150 -0.0097
  932YOPE   C2B13004  15.349   5.923   7.047  0.0338  0.0339  0.2555
  932YOPE   D3B13005  15.532   5.910   7.438 -0.0978 -0.0209 -0.0854
  932YOPE   C4B13006  15.571   6.034   7.826  0.0975 -0.0835  0.4484
  933YOPE   NH313007   2.881   0.774   5.783  0.2798  0.1225 -0.0433
  933YOPE   PO413008   3.039   1.032   6.019 -0.1667 -0.1313  0.1631
  933YOPE   GL113009   3.094   1.180   6.432 -0.0713  0.1190  0.2315
  933YOPE   GL213010   2.900   1.487   6.468  0.2478 -0.0649  0.1103
  933YOPE   C1A13011   2.987   0.812   6.823  0.2506 -0.2102  0.0344
  933YOPE   D2A13012   2.685   0.882   7.095 -0.1270 -0.3878  0.1609
  933YOPE   C3A13013   2.669   0.841   7.490 -0.0466 -0.4062  0.0815
  933YOPE   C4A13014   2.612   0.610   7.931  0.0630 -0.0376  0.1538
  933YOPE   C1B13015   2.766   1.791   6.783 -0.0141 -0.0161  0.1820
  933YOPE   C2B13016   2.702   1.749   7.262 -0.0704  0.0894 -0.0264
  933YOPE   D3B13017   2.939   1.596   7.506 -0.0177  0.1984  0.0271
  933YOPE   C4B13018   2.887   1.652   7.959 -0.0578  0.1429  0.0175
  934YOPE   NH313019   2.659  10.831   5.985 -0.0638 -0.1779  0.0216
  934YOPE   PO413020   2.258  10.668   5.879 -0.0100 -0.0360 -0.0166
  934YOPE   GL113021   2.139  10.738   6.352 -0.2208 -0.3026  0.1224
  934YOPE   GL213022   2.426  10.844   6.488 -0.2983  0.1921  0.0197
  934YOPE   C1A13023   2.059  10.687   6.801 -0.0279  0.0660 -0.2284
  934YOPE   D2A13024   1.976  10.477   7.181  0.1313  0.2277  0.1251
  934YOPE   C3A13025   2.090  10.062   7.399 -0.3255  0.1151 -0.0477
  934YOPE   C4A13026   2.475   9.870   7.528  0.2648  0.0298 -0.0217
  934YOPE   C1B13027   2.456  10.901   7.043  0.1775  0.0173  0.0718
  934YOPE   C2B13028   2.441  10.830   7.368  0.1441  0.1137  0.2853
  934YOPE   D3B13029   2.202  10.682   7.668  0.0963  0.1053 -0.1133
  934YOPE   C4B13030   1.701  10.865   7.898 -0.2750  0.0903  0.0672
  935YOPE   NH313031   2.581  13.063   5.309  0.3754 -0.0081 -0.0488
  935YOPE   PO413032   2.314  12.848   5.622 -0.2996  0.1587 -0.1963
  935YOPE   GL113033   2.238  12.938   6.113 -0.1614 -0.2074 -0.0320
  935YOPE   GL213034   2.222  13.367   6.209 -0.0121  0.0303  0.1817
  935YOPE   C1A13035   2.260  12.949   6.486 -0.1419  0.1339  0.2147
  935YOPE   D2A13036   2.570  13.094   6.763  0.3098  0.0884 -0.2143
  935YOPE   C3A13037   2.603  13.128   7.184 -0.0622  0.0867  0.0118
  935YOPE   C4A13038   2.338  13.129   7.473  0.3557  0.0140  0.1845
  935YOPE   C1B13039   2.230  13.460   6.532  0.0562  0.3081  0.0498
  935YOPE   C2B13040   2.257  13.558   6.908  0.2793 -0.1646  0.0931
  935YOPE   D3B13041   2.274  13.610   7.324  0.1987 -0.2428 -0.1551
  935YOPE   C4B13042   2.451  13.831   7.576 -0.1307  0.0645 -0.0281
  936YOPE   NH313043  13.717   3.950   6.193  0.0990 -0.0355  0.0748
  936YOPE   PO413044  13.405   4.168   6.340 -0.2120  0.2278  0.1813
  936YOPE   GL113045  13.414   4.064   6.690  0.1617  0.1925  0.1020
  936YOPE   GL213046  13.684   3.879   6.656  0.0171  0.0495  0.1633
  936YOPE   C1A13047  13.467   4.120   7.098  0.4013  0.1225  0.2860
  936YOPE   D2A13048  13.623   4.157   7.499  0.2638 -0.0501  0.0479
  936YOPE   C3A13049  13.731   4.485   7.514  0.0357 -0.1011  0.1506
  936YOPE   C4A13050  14.044   4.815   7.604 -0.2617  0.0043  0.2974
  936YOPE   C1B13051  13.965   4.099   6.891 -0.0976  0.1097 -0.1785
  936YOPE   C2B13052  13.806   4.471   6.974  0.3543 -0.0978 -0.4130
  936YOPE   D3B13053  13.955   4.917   6.998 -0.1288  0.1852 -0.0809
  936YOPE   C4B13054  13.858   5.314   6.813  0.4504 -0.1304  0.4468
  937YOPE   NH313055  11.989  15.482   5.873 -0.1654 -0.0542 -0.1428
  937YOPE   PO413056  11.774  15.911   5.916 -0.0979  0.1197  0.3252
  937YOPE   GL113057  11.668  15.735   6.319  0.0703  0.0267  0.0819
  937YOPE   GL213058  11.567  15.394   6.202 -0.0405  0.2302 -0.0742
  937YOPE   C1A13059  11.439  15.651   6.693  0.1406  0.3351  0.1100
  937YOPE   D2A13060  11.182  15.725   7.076  0.3261 -0.1840  0.2679
  937YOPE   C3A13061  11.352  15.609   7.487  0.0893 -0.0939  0.0372
  937YOPE   C4A13062  11.445  15.477   7.824  0.1629 -0.2621 -0.1898
  937YOPE   C1B13063  11.226  15.277   6.422  0.0210  0.0413  0.1730
  937YOPE   C2B13064  11.165  15.257   6.834 -0.4102 -0.2403  0.0507
  937YOPE   D3B13065  11.440  15.255   7.120 -0.2610  0.0601  0.0731
  937YOPE   C4B13066  11.538  15.096   7.499 -0.1685  0.2113  0.0700
  938YOPE   NH313067   0.815   1.810   5.713 -0.0376  0.0782 -0.0339
  938YOPE   PO413068   0.450   1.864   5.824 -0.0348  0.3538  0.0972
  938YOPE   GL113069   0.255   1.859   6.246 -0.0792 -0.0405  0.0634
  938YOPE   GL213070  -0.005   1.666   6.329 -0.0065  0.2631  0.0956
  938YOPE   C1A13071   0.389   1.990   6.664  0.3070  0.1496 -0.2803
  938YOPE   D2A13072   0.214   2.018   7.088 -0.0812  0.0927  0.0514
  938YOPE   C3A13073   0.516   1.819   7.282 -0.1439  0.1626 -0.0923
  938YOPE   C4A13074   0.568   1.643   7.740 -0.3253  0.0672 -0.0560
  938YOPE   C1B13075  -0.141   1.853   6.638 -0.0376  0.0426  0.0760
  938YOPE   C2B13076  -0.313   2.023   7.041  0.0214 -0.1569  0.1481
  938YOPE   D3B13077  -0.509   1.869   7.394  0.1767  0.2672 -0.2250
  938YOPE   C4B13078  -0.408   1.593   7.781 -0.1311  0.0748  0.0031
  939YOPE   NH313079  10.869   0.062   6.016  0.0468  0.2501 -0.0253
  939YOPE   PO413080  11.249   0.050   6.295  0.0459 -0.2943 -0.3232
  939YOPE   GL113081  10.931   0.223   6.495  0.0789  0.1828  0.0263
  939YOPE   GL213082  11.068   0.458   6.707  0.0942  0.0257 -0.0241
  939YOPE   C1A13083  10.577   0.469   6.553  0.2173  0.1444 -0.2232
  939YOPE   D2A13084  10.262   0.681   6.830 -0.1804 -0.0683  0.1715
  939YOPE   C3A13085  10.221   0.558   7.294 -0.1436  0.0799 -0.1405
  939YOPE   C4A13086  10.017   0.314   7.642 -0.2853  0.0607 -0.2517
  939YOPE   C1B13087  11.129   0.281   7.063  0.1981  0.1315  0.0478
  939YOPE   C2B13088  10.987   0.363   7.484 -0.0806  0.3191  0.0273
  939YOPE   D3B13089  11.040   0.627   7.895 -0.2433  0.1444  0.2026
  939YOPE   C4B13090  10.989   0.742   8.290 -0.1599  0.1163  0.0325
  940YOPE   NH313091  11.920   3.244   5.551  0.1268 -0.2184  0.2576
  940YOPE   PO413092  11.953   2.965   5.888  0.1979  0.1073  0.0324
  940YOPE   GL113093  12.206   2.718   6.219 -0.1190 -0.0403 -0.3361
  940YOPE   GL213094  12.346   2.945   6.459 -0.1273 -0.1822  0.2300
  940YOPE   C1A13095  12.043   2.534   6.607  0.0749  0.2128  0.1824
  940YOPE   D2A13096  11.767   2.138   6.799  0.0825  0.1542  0.0971
  940YOPE   C3A13097  11.468   1.943   6.688  0.0932  0.1149 -0.0808
  940YOPE   C4A13098  11.201   1.764   6.832  0.0806  0.0929 -0.2867
  940YOPE   C1B13099  12.451   3.081   6.712 -0.1505 -0.2883 -0.0457
  940YOPE   C2B13100  12.486   3.021   7.125 -0.0163  0.1378  0.2153
  940YOPE   D3B13101  12.467   3.258   7.468  0.0004 -0.1204 -0.0425
  940YOPE   C4B13102  12.266   3.601   7.543  0.0643  0.0519 -0.0065
  941YOPE   NH313103   4.976   1.449   5.751  0.1980  0.1976  0.1894
  941YOPE   PO413104   4.786   1.031   5.761 -0.2163  0.1338  0.0345
  941YOPE   GL113105   4.954   0.950   6.145 -0.1859  0.3438  0.0388
  941YOPE   GL213106   5.226   1.164   6.085  0.0518  0.2148 -0.0367
  941YOPE   C1A13107   4.837   0.900   6.546  0.0221 -0.2558  0.0400
  941YOPE   D2A13108   4.930   0.956   7.055 -0.0156  0.1578  0.0992
  941YOPE   C3A13109   4.676   1.303   7.242 -0.0554 -0.2912  0.1547
  941YOPE   C4A13110   4.707   1.472   7.632 -0.1050  0.1919 -0.1686
  941YOPE   C1B13111   5.400   1.185   6.417 -0.1071  0.1561  0.2145
  941YOPE   C2B13112   5.359   1.030   6.760 -0.1415  0.1493  0.0521
  941YOPE   D3B13113   5.697   0.752   6.902  0.0095 -0.3093  0.1253
  941YOPE   C4B13114   6.038   0.480   6.567 -0.2506 -0.0931 -0.0612
  942POPC   NC313115   1.236  10.494   5.472 -0.0822  0.2017 -0.0007
  942POPC   PO413116   1.633  10.560   5.520  0.1610  0.2022 -0.1645
  942POPC   GL113117   1.520  10.578   5.856 -0.3860  0.0728 -0.1360
  942POPC   GL213118   1.690  10.330   6.034 -0.1241 -0.1224 -0.1121
  942POPC   C1A13119   1.336  10.830   6.160 -0.0437 -0.0103  0.1710
  942POPC   D2A13120   1.302  11.252   6.422  0.1102 -0.0763 -0.1125
  942POPC   C3A13121   1.427  11.368   6.908 -0.1190  0.0793  0.0459
  942POPC   C4A13122   1.565  11.479   7.254 -0.2056 -0.0293 -0.2050
  942POPC   C1B13123   1.646  10.487   6.415  0.0018  0.0376 -0.0994
  942POPC   C2B13124   1.536  10.518   6.938  0.1036 -0.0179 -0.1739
  942POPC   C3B13125   1.497  10.560   7.371  0.4825 -0.2315  0.0372
  942POPC   C4B13126   1.275  10.719   7.675 -0.1062 -0.2063 -0.0866
  943POPC   NC313127   5.599   9.742   5.795  0.0434  0.0060 -0.2775
  943POPC   PO413128   5.970   9.681   5.671 -0.1630  0.0176  0.5893
  943POPC   GL113129   6.070   9.673   6.078 -0.2083 -0.1754  0.0789
  943POPC   GL213130   5.825   9.589   6.262  0.3273 -0.2599  0.0656
  943POPC   C1A13131   6.251   9.292   6.307 -0.2210 -0.5216  0.0666
  943POPC   D2A13132   6.245   8.930   6.589  0.1556  0.0324 -0.0079
  943POPC   C3A13133   6.183   8.819   7.062  0.1930 -0.0776  0.1988
  943POPC   C4A13134   6.180   8.752   7.482  0.0891 -0.2793  0.0867
  943POPC   C1B13135   5.771   9.576   6.715  0.0742  0.0089 -0.0054
  943POPC   C2B13136   5.921   9.688   7.124 -0.0845  0.0604  0.0505
  943POPC   C3B13137   6.051   9.635   7.545  0.0138 -0.0736 -0.0281
  943POPC   C4B13138   6.085   9.661   8.006 -0.0324 -0.1905 -0.0871
  944POPC   NC313139  16.621  11.354   5.409 -0.2776 -0.1815  0.0003
  944POPC   PO413140  17.051  11.523   5.539 -0.1028  0.3420  0.0046
  944POPC   GL113141  16.912  11.324   5.906  0.1464 -0.1080 -0.3343
  944POPC   GL213142  17.254  11.306   6.083 -0.0992  0.2048 -0.0367
  944POPC   C1A13143  16.853  11.103   6.333 -0.0045 -0.0936 -0.1102
  944POPC   D2A13144  16.902  11.013   6.805 -0.0426 -0.0483  0.0637
  944POPC   C3A13145  16.759  11.192   7.175 -0.0555  0.1809 -0.0416
  944POPC   C4A13146  16.515  11.293   7.508 -0.0165 -0.1553  0.2614
  944POPC   C1B13147  17.367  10.936   6.334 -0.1044 -0.2248  0.1247
  944POPC   C2B13148  17.453  10.856   6.709  0.3034 -0.2320  0.0397
  944POPC   C3B13149  17.467  10.729   7.118 -0.0736  0.2778  0.0680
  944POPC   C4B13150  17.526  10.652   7.600  0.0838 -0.1241  0.0231
  945POPC   NC313151   3.408   8.661   5.693  0.2085  0.2377  0.3737
  945POPC   PO413152   3.155   8.302   5.602  0.2247 -0.2810 -0.0047
  945POPC   GL113153   2.923   8.266   5.964 -0.1187 -0.2924 -0.0029
  945POPC   GL213154   2.864   8.041   6.148 -0.1019 -0.1338 -0.2981
  945POPC   C1A13155   2.889   8.484   6.384 -0.1088  0.0509  0.0975
  945POPC   D2A13156   2.694   8.515   6.820  0.0848 -0.1042 -0.1589
  945POPC   C3A13157   2.760   8.729   7.167 -0.1083 -0.3169 -0.1113
  945POPC   C4A13158   2.736   8.664   7.536  0.0095 -0.1279 -0.0501
  945POPC   C1B13159   2.666   7.735   6.385  0.1680 -0.1437 -0.1239
  945POPC   C2B13160   2.916   7.641   6.750 -0.1025 -0.0138 -0.0178
  945POPC   C3B13161   2.797   7.435   7.113 -0.3814  0.0352  0.0832
  945POPC   C4B13162   2.809   6.992   7.270 -0.2144 -0.1959  0.3390
  946POPC   NC313163   9.783  12.896   5.278  0.0778  0.0862 -0.2055
  946POPC   PO413164   9.647  12.852   5.703  0.2852  0.1006 -0.1620
  946POPC   GL113165   9.843  12.706   6.057 -0.2227 -0.0486  0.0135
  946POPC   GL213166  10.271  12.705   6.213 -0.0681  0.0873 -0.0032
  946POPC   C1A13167   9.820  12.822   6.420 -0.0333  0.0191  0.0684
  946POPC   D2A13168   9.935  12.881   6.817 -0.0495 -0.3564 -0.0745
  946POPC   C3A13169   9.874  13.184   7.152  0.0764  0.0760  0.3664
  946POPC   C4A13170   9.923  13.368   7.501 -0.3295  0.0278 -0.0928
  946POPC   C1B13171  10.348  12.705   6.662 -0.1644 -0.1545  0.2195
  946POPC   C2B13172  10.381  12.546   7.022 -0.1022  0.1189  0.0081
  946POPC   C3B13173  10.365  12.519   7.460  0.1105  0.0541  0.0120
  946POPC   C4B13174  10.053  12.388   7.745 -0.2098  0.1107 -0.1767
  947POPC   NC313175  10.185  13.683   5.411 -0.4019 -0.1733  0.2082
  947POPC   PO413176  10.371  14.076   5.724 -0.0055 -0.0447  0.2760
  947POPC   GL113177  10.550  14.008   6.136  0.1948 -0.0175 -0.2002
  947POPC   GL213178  10.387  13.724   6.296  0.0628  0.2192  0.1783
  947POPC   C1A13179  10.585  14.288   6.433 -0.1400 -0.2229  0.3196
  947POPC   D2A13180  10.702  14.540   6.857 -0.0826 -0.0562  0.0487
  947POPC   C3A13181  10.712  14.417   7.252 -0.0380 -0.1982 -0.2933
  947POPC   C4A13182  10.706  14.336   7.764  0.1851  0.2146 -0.2720
  947POPC   C1B13183  10.456  13.828   6.682 -0.0850 -0.0887 -0.2046
  947POPC   C2B13184  10.383  13.975   7.048 -0.3001 -0.1307 -0.0202
  947POPC   C3B13185  10.220  14.213   7.512 -0.1881  0.0589 -0.0839
  947POPC   C4B13186  10.144  14.340   7.857 -0.2111 -0.0240 -0.0604
  948POPC   NC313187  10.218   3.240   5.841 -0.1165 -0.1401 -0.1944
  948POPC   PO413188   9.762   3.262   5.943  0.2101  0.0920  0.0569
  948POPC   GL113189   9.614   3.721   6.178  0.0668  0.2213  0.1454
  948POPC   GL213190   9.281   3.779   6.274 -0.2005  0.0149  0.2599
  948POPC   C1A13191   9.730   3.997   6.453  0.0443 -0.3554  0.1805
  948POPC   D2A13192   9.812   4.324   6.764  0.1369  0.0648  0.2942
  948POPC   C3A13193   9.805   4.698   7.047  0.2453 -0.1007  0.3631
  948POPC   C4A13194   9.754   4.604   7.429  0.0425  0.0745  0.2839
  948POPC   C1B13195   9.361   3.769   6.688 -0.1737 -0.4465  0.0655
  948POPC   C2B13196   9.570   3.946   7.071 -0.0225  0.4965  0.4811
  948POPC   C3B13197   9.720   3.911   7.469 -0.3576 -0.2626  0.2015
  948POPC   C4B13198   9.856   3.672   7.759  0.2192  0.3047  0.1374
  949POPC   NC313199  10.608   6.566   5.656  0.2065  0.1005 -0.0885
  949POPC   PO413200  10.825   6.324   5.868 -0.2939 -0.1084 -0.0157
  949POPC   GL113201  11.002   6.165   6.269  0.1452  0.3102 -0.2008
  949POPC   GL213202  11.400   6.162   6.455 -0.0528  0.0628 -0.3071
  949POPC   C1A13203  10.925   5.981   6.645 -0.0282  0.0791  0.1632
  949POPC   D2A13204  10.993   5.852   7.065  0.2665 -0.0245  0.2296
  949POPC   C3A13205  10.843   6.157   7.283  0.0010 -0.4785 -0.1641
  949POPC   C4A13206  10.864   6.348   7.722  0.3032 -0.0677  0.2174
  949POPC   C1B13207  11.247   6.266   6.905  0.4135  0.1048  0.0064
  949POPC   C2B13208  11.452   6.294   7.252 -0.0864  0.0670 -0.0359
  949POPC   C3B13209  11.591   6.289   7.692  0.0280 -0.2034  0.2689
  949POPC   C4B13210  11.653   6.274   8.214 -0.1045 -0.2052 -0.0176
  950POPC   NC313211  14.393   1.040   6.221 -0.2076  0.0291 -0.3254
  950POPC   PO413212  14.575   0.625   6.071  0.1058  0.3823  0.2210
  950POPC   GL113213  14.355   0.557   6.447  0.0006  0.0830  0.2751
  950POPC   GL213214  14.554   0.613   6.635  0.0023 -0.4994 -0.2838
  950POPC   C1A13215  14.109   0.665   6.846  0.1678 -0.0913 -0.1937
  950POPC   D2A13216  13.733   0.713   7.205 -0.1072  0.0532 -0.0428
  950POPC   C3A13217  13.760   0.984   7.483 -0.2475  0.1500 -0.0351
  950POPC   C4A13218  13.662   1.006   7.912 -0.0824 -0.2486  0.2449
  950POPC   C1B13219  14.680   0.711   7.050  0.1730 -0.0273  0.0475
  950POPC   C2B13220  14.705   0.759   7.504  0.0113 -0.1205 -0.3063
  950POPC   C3B13221  14.777   0.705   7.917  0.1747 -0.0888  0.0291
  950POPC   C4B13222  14.675   0.808   8.442 -0.1550 -0.0444 -0.4707
  951POPC   NC313223  10.983  16.597   6.055  0.0603  0.1963  0.2798
  951POPC   PO413224  10.707  16.912   6.244 -0.2001  0.2075 -0.1141
  951POPC   GL113225  10.644  17.060   6.625  0.1643 -0.1041  0.0093
  951POPC   GL213226  10.642  17.317   6.657 -0.1865  0.0147 -0.0345
  951POPC   C1A13227  10.803  17.012   7.011 -0.1401  0.0952 -0.0273
  951POPC   D2A13228  10.924  17.120   7.232  0.3409 -0.2404 -0.0559
  951POPC   C3A13229  11.269  17.116   7.586 -0.0762 -0.0141  0.0032
  951POPC   C4A13230  11.302  17.209   8.000  0.1556  0.0292 -0.0919
  951POPC   C1B13231  10.540  17.402   7.077  0.1205 -0.1278  0.1682
  951POPC   C2B13232  10.508  17.272   7.484  0.0712  0.0954  0.2909
  951POPC   C3B13233  10.561  17.312   7.946  0.2959 -0.1289 -0.1191
  951POPC   C4B13234  10.788  17.246   8.167 -0.0680 -0.2027  0.1642
  952POPC   NC313235  15.853   4.788   5.584  0.3000 -0.0028 -0.1106
  952POPC   PO413236  15.954   5.147   5.455  0.0450 -0.1329  0.0654
  952POPC   GL113237  15.640   5.138   5.862 -0.0919  0.0853 -0.0391
  952POPC   GL213238  15.332   5.097   5.789  0.2748  0.0066 -0.1163
  952POPC   C1A13239  15.795   5.200   6.253 -0.0578  0.1360  0.0159
  952POPC   D2A13240  15.797   5.128   6.670  0.0093  0.1118 -0.0358
  952POPC   C3A13241  15.923   5.063   7.063  0.0184 -0.2140  0.0484
  952POPC   C4A13242  15.819   4.988   7.514 -0.2230  0.4027  0.0674
  952POPC   C1B13243  15.286   5.345   6.179  0.1360  0.0978  0.5146
  952POPC   C2B13244  15.330   5.331   6.688 -0.3049  0.2275  0.1156
  952POPC   C3B13245  15.464   5.396   7.083  0.2440 -0.1152  0.0183
  952POPC   C4B13246  15.483   5.368   7.513 -0.4590  0.2758  0.0105
  953POPC   NC313247  16.294  12.994   5.486  0.5057  0.0191 -0.0948
  953POPC   PO413248  15.978  12.589   5.451  0.1506  0.2279  0.3173
  953POPC   GL113249  16.021  12.601   5.876 -0.2193  0.3579 -0.2921
  953POPC   GL213250  15.992  12.923   6.015 -0.1166 -0.0036 -0.2310
  953POPC   C1A13251  15.688  12.408   6.158  0.3426  0.1424 -0.2858
  953POPC   D2A13252  15.686  12.223   6.520  0.0698 -0.0728 -0.0134
  953POPC   C3A13253  15.590  12.247   6.844  0.0287 -0.1777  0.0738
  953POPC   C4A13254  15.665  12.178   7.327 -0.0665 -0.2862 -0.1300
  953POPC   C1B13255  15.958  13.127   6.447 -0.0899 -0.2883  0.1189
  953POPC   C2B13256  16.019  13.215   6.911 -0.1300 -0.1284 -0.0450
  953POPC   C3B13257  16.133  13.101   7.336  0.3430 -0.0582  0.1105
  953POPC   C4B13258  16.299  12.899   7.751 -0.0026 -0.0014 -0.2154
  954POPC   NC313259  12.042   5.050   6.119 -0.0814  0.1798  0.1366
  954POPC   PO413260  11.692   5.262   6.115 -0.0944  0.0427  0.3496
  954POPC   GL113261  11.718   5.236   6.504  0.1458 -0.0101 -0.2113
  954POPC   GL213262  11.773   4.906   6.560 -0.1169 -0.4548 -0.0629
  954POPC   C1A13263  11.743   5.326   6.921  0.0410 -0.0657  0.0958
  954POPC   D2A13264  11.776   5.287   7.316  0.1853 -0.2984  0.3373
  954POPC   C3A13265  11.673   5.592   7.512 -0.0248 -0.1516  0.0428
  954POPC   C4A13266  11.576   5.667   7.902  0.2255  0.0091  0.1733
  954POPC   C1B13267  11.692   4.848   6.972 -0.1372 -0.1295  0.0128
  954POPC   C2B13268  11.543   4.835   7.385 -0.0318  0.3224 -0.0786
  954POPC   C3B13269  11.243   4.701   7.575  0.0221 -0.1898 -0.0169
  954POPC   C4B13270  11.001   4.590   7.943  0.0627 -0.1674 -0.4709
  955POPC   NC313271  12.714  15.875   5.578 -0.0519  0.1746  0.1719
  955POPC   PO413272  12.400  15.538   5.599  0.1116 -0.2849 -0.0628
  955POPC   GL113273  12.457  15.586   6.010 -0.0412 -0.0708 -0.1135
  955POPC   GL213274  12.816  15.489   6.157 -0.0937  0.1581 -0.1507
  955POPC   C1A13275  12.585  15.796   6.480  0.1275 -0.0077  0.2752
  955POPC   D2A13276  12.208  15.991   6.597 -0.2416 -0.2277 -0.1435
  955POPC   C3A13277  12.109  16.000   7.000 -0.1040  0.0034 -0.0683
  955POPC   C4A13278  12.071  15.905   7.339 -0.0508 -0.1056  0.0491
  955POPC   C1B13279  13.065  15.778   6.417  0.2986 -0.1681  0.0832
  955POPC   C2B13280  13.006  15.692   6.810 -0.1577 -0.1118 -0.1965
  955POPC   C3B13281  12.991  15.577   7.179  0.2942 -0.2162  0.3282
  955POPC   C4B13282  12.838  15.331   7.566 -0.0074 -0.0825  0.1173
  956POPC   NC313283   4.685  11.301   5.745 -0.0777  0.1571 -0.0554
  956POPC   PO413284   5.083  11.411   5.758  0.1052 -0.0882  0.1356
  956POPC   GL113285   5.323  11.493   6.146  0.1381  0.0970  0.0913
  956POPC   GL213286   5.489  11.749   6.010  0.2184  0.1503  0.3367
  956POPC   C1A13287   5.259  11.728   6.476 -0.0871 -0.0199 -0.0672
  956POPC   D2A13288   4.974  12.104   6.644 -0.1523  0.0651 -0.0397
  956POPC   C3A13289   4.811  12.157   7.048  0.1400 -0.0572  0.1209
  956POPC   C4A13290   4.717  12.561   7.269  0.3223  0.1019  0.1157
  956POPC   C1B13291   5.516  12.117   6.303 -0.1693  0.1262 -0.0737
  956POPC   C2B13292   5.442  12.210   6.774 -0.1227 -0.1609  0.0934
  956POPC   C3B13293   5.415  12.276   7.175 -0.0902 -0.0324 -0.0150
  956POPC   C4B13294   5.140  12.145   7.460  0.0101  0.2180 -0.0054
  957POPC   NC313295   2.460   8.590   5.453  0.1337  0.0380  0.1669
  957POPC   PO413296   2.273   8.971   5.671 -0.2419  0.2123 -0.0614
  957POPC   GL113297   2.026   9.007   6.047  0.3963 -0.1520 -0.0741
  957POPC   GL213298   1.904   9.289   6.033 -0.0476  0.1724  0.1900
  957POPC   C1A13299   1.993   8.942   6.459 -0.0295  0.0206 -0.0470
  957POPC   D2A13300   1.877   8.947   6.869 -0.0286 -0.2833  0.0400
  957POPC   C3A13301   1.642   8.719   7.113 -0.4087 -0.2827  0.0106
  957POPC   C4A13302   1.811   8.351   7.230  0.0485 -0.0561 -0.1428
  957POPC   C1B13303   2.292   9.330   6.240 -0.3349 -0.1700  0.0613
  957POPC   C2B13304   2.700   9.347   6.370  0.0427  0.2102  0.0480
  957POPC   C3B13305   3.075   9.526   6.529 -0.0954 -0.1471  0.3499
  957POPC   C4B13306   3.266   9.726   6.678  0.1277 -0.0826 -0.0356
  958POPC   NC313307   8.036  12.273   5.777  0.2205 -0.0596 -0.1892
  958POPC   PO413308   8.251  12.659   5.956 -0.2125  0.2285 -0.0299
  958POPC   GL113309   8.325  12.928   6.289  0.0606  0.0173 -0.2877
  958POPC   GL213310   8.676  13.037   6.279 -0.0476 -0.2207  0.1685
  958POPC   C1A13311   8.335  13.043   6.714  0.0777  0.1431  0.2891
  958POPC   D2A13312   8.334  13.208   7.089  0.0257 -0.1233  0.1252
  958POPC   C3A13313   8.625  13.335   7.268 -0.0269 -0.2988 -0.0035
  958POPC   C4A13314   9.050  13.235   7.433  0.2092 -0.1551 -0.1964
  958POPC   C1B13315   8.770  13.298   6.742  0.0945  0.0211 -0.0426
  958POPC   C2B13316   9.004  13.477   6.958 -0.0561  0.1270  0.0390
  958POPC   C3B13317   8.850  13.760   7.375  0.1421 -0.1268  0.1175
  958POPC   C4B13318   8.463  13.754   7.604 -0.1861  0.0434  0.1911
  959POPC   NC313319   1.534   5.995   5.816  0.1176  0.0975  0.2570
  959POPC   PO413320   1.345   5.662   5.758 -0.3151 -0.0611  0.0952
  959POPC   GL113321   1.224   5.491   6.100 -0.0702 -0.1704  0.1537
  959POPC   GL213322   1.400   5.736   6.324 -0.1462  0.0451  0.1583
  959POPC   C1A13323   1.016   5.271   6.393  0.0549  0.3259 -0.1580
  959POPC   D2A13324   0.994   5.192   6.878  0.0850 -0.2485  0.0519
  959POPC   C3A13325   0.986   5.494   7.204  0.1933  0.1052 -0.1172
  959POPC   C4A13326   0.763   5.583   7.565 -0.3279  0.0833 -0.1091
  959POPC   C1B13327   1.277   5.636   6.799  0.1958  0.0986 -0.0414
  959POPC   C2B13328   1.437   5.721   7.183  0.0342 -0.1555  0.1145
  959POPC   C3B13329   1.801   5.661   7.444 -0.0855 -0.0247  0.0735
  959POPC   C4B13330   1.981   5.824   7.746  0.0713 -0.0397 -0.1503
  960POPC   NC313331  13.930  17.969   6.209  0.0164  0.1848  0.1707
  960POPC   PO413332  14.332  17.906   6.308  0.1385 -0.0478 -0.1744
  960POPC   GL113333  14.187  18.027   6.701 -0.0193  0.0464  0.1634
  960POPC   GL213334  14.356  18.257   6.739 -0.0900 -0.1265 -0.2349
  960POPC   C1A13335  14.134  18.061   7.257  0.0753  0.1884  0.4315
  960POPC   D2A13336  14.144  18.087   7.738 -0.3172 -0.1291 -0.1955
  960POPC   C3A13337  13.895  18.397   8.039 -0.3612  0.5849 -0.1169
  960POPC   C4A13338  13.589  18.350   8.394  0.1959  0.1344  0.0180
  960POPC   C1B13339  14.440  18.554   6.994 -0.1625  0.1759 -0.0096
  960POPC   C2B13340  14.298  18.846   7.302 -0.0981  0.1303 -0.0770
  960POPC   C3B13341  14.149  18.993   7.635  0.0579  0.0014  0.1413
  960POPC   C4B13342  14.337  19.198   8.067 -0.3106 -0.2085 -0.0276
  961POPC   NC313343   9.853  11.928   5.672  0.1324  0.0718  0.2144
  961POPC   PO413344  10.310  11.991   5.652  0.0385 -0.3493 -0.2219
  961POPC   GL113345  10.189  11.922   6.120  0.1848  0.0715  0.1911
  961POPC   GL213346  10.122  12.150   6.214 -0.0875 -0.0499 -0.1063
  961POPC   C1A13347  10.180  11.528   6.411 -0.2469  0.0083 -0.1289
  961POPC   D2A13348  10.051  11.244   6.629  0.0425  0.0917 -0.2120
  961POPC   C3A13349  10.097  10.841   6.565  0.1430 -0.0402  0.0562
  961POPC   C4A13350   9.964  10.467   6.243 -0.4434  0.2635  0.0533
  961POPC   C1B13351  10.308  12.070   6.599  0.1850  0.1273 -0.0324
  961POPC   C2B13352  10.518  11.919   6.967  0.3598  0.1232 -0.1630
  961POPC   C3B13353  10.835  11.779   7.208  0.2677  0.2386  0.0521
  961POPC   C4B13354  11.241  11.587   7.295  0.0478  0.1920 -0.4344
  962POPC   NC313355   6.118   8.336   5.583  0.1017  0.0123  0.1652
  962POPC   PO413356   6.364   8.797   5.479  0.0577 -0.3400  0.0812
  962POPC   GL113357   6.280   8.822   5.959 -0.0017  0.0905 -0.0815
  962POPC   GL213358   5.937   8.614   6.053  0.0998  0.1795  0.0872
  962POPC   C1A13359   6.440   8.496   6.227  0.0612 -0.2818  0.3276
  962POPC   D2A13360   6.755   8.483   6.614 -0.1105  0.2653 -0.3331
  962POPC   C3A13361   6.692   8.417   7.042 -0.1024 -0.0563 -0.2567
  962POPC   C4A13362   6.682   8.450   7.455  0.0389  0.0162 -0.0020
  962POPC   C1B13363   5.967   8.588   6.461  0.1891  0.0472  0.1017
  962POPC   C2B13364   6.253   8.428   6.777  0.3088  0.0373  0.2345
  962POPC   C3B13365   6.259   8.316   7.209 -0.0226 -0.2392  0.2017
  962POPC   C4B13366   6.384   7.973   7.515 -0.1023 -0.0548  0.2540
  963POPC   NC313367  17.029   9.347   5.453  0.0059 -0.1569 -0.1103
  963POPC   PO413368  17.201   8.946   5.574 -0.3881 -0.0376  0.0264
  963POPC   GL113369  17.043   9.112   5.923 -0.2384 -0.2254 -0.0858
  963POPC   GL213370  16.738   9.330   5.962  0.3083  0.0742 -0.1267
  963POPC   C1A13371  16.948   8.896   6.237 -0.0701 -0.0474 -0.0128
  963POPC   D2A13372  16.647   8.749   6.462  0.3878 -0.0939  0.0816
  963POPC   C3A13373  16.659   8.451   6.850 -0.0528  0.1998  0.1565
  963POPC   C4A13374  16.901   8.458   7.236 -0.0802 -0.1371  0.1374
  963POPC   C1B13375  16.659   9.244   6.425  0.1048 -0.3856  0.0844
  963POPC   C2B13376  16.491   9.346   6.823  0.0397  0.2342  0.5014
  963POPC   C3B13377  16.501   9.323   7.251  0.0536 -0.0006 -0.1530
  963POPC   C4B13378  16.407   9.514   7.677  0.4293  0.0586  0.0493
  964POPC   NC313379  14.636   5.609   5.126 -0.1441 -0.0378 -0.0163
  964POPC   PO413380  14.671   5.576   5.550  0.0420 -0.0074  0.2135
  964POPC   GL113381  14.704   5.560   5.938  0.1324 -0.0084 -0.1510
  964POPC   GL213382  14.839   5.279   5.950 -0.0339  0.0884  0.1175
  964POPC   C1A13383  14.956   5.607   6.365 -0.2840 -0.0997  0.1798
  964POPC   D2A13384  14.934   5.662   6.799  0.1901 -0.1501  0.2364
  964POPC   C3A13385  14.840   5.720   7.208  0.2850 -0.4141  0.1023
  964POPC   C4A13386  14.965   6.075   7.401 -0.1219 -0.1481 -0.2142
  964POPC   C1B13387  14.511   5.263   6.284 -0.0854  0.1738  0.1318
  964POPC   C2B13388  14.517   5.476   6.661 -0.3454  0.0627 -0.0420
  964POPC   C3B13389  14.434   5.433   7.085  0.1510  0.1629  0.1973
  964POPC   C4B13390  14.365   5.553   7.442 -0.4250 -0.2662  0.3406
  965POPC   NC313391   7.671   4.044   5.800 -0.3748  0.3514 -0.0550
  965POPC   PO413392   7.463   4.411   5.933  0.0085 -0.2314 -0.0651
  965POPC   GL113393   7.510   4.599   6.301  0.2350 -0.3301  0.1539
  965POPC   GL213394   7.516   4.998   6.375  0.0041 -0.0710 -0.0764
  965POPC   C1A13395   7.460   4.666   6.734  0.2727 -0.2231 -0.0426
  965POPC   D2A13396   7.382   4.913   7.062 -0.0521 -0.1505 -0.2041
  965POPC   C3A13397   7.486   4.878   7.451  0.4471 -0.1027 -0.0149
  965POPC   C4A13398   7.722   4.929   7.788 -0.1800 -0.0088  0.0054
  965POPC   C1B13399   7.502   5.165   6.657 -0.0455  0.1148 -0.0571
  965POPC   C2B13400   7.371   5.416   6.993  0.0613 -0.2657  0.1543
  965POPC   C3B13401   7.123   5.727   7.233  0.2472 -0.0195  0.0864
  965POPC   C4B13402   7.025   5.637   7.630 -0.1633 -0.2282  0.0394
  966POPC   NC313403   4.410   5.128   5.407 -0.1622  0.1282 -0.1375
  966POPC   PO413404   4.559   5.674   5.319 -0.0578  0.1356  0.3263
  966POPC   GL113405   4.508   5.802   5.718 -0.0603  0.1814  0.1520
  966POPC   GL213406   4.212   5.888   5.836  0.1603  0.2745 -0.2117
  966POPC   C1A13407   4.606   5.885   6.280 -0.2820 -0.1110 -0.2245
  966POPC   D2A13408   4.654   5.689   6.598  0.2192  0.0373  0.0274
  966POPC   C3A13409   4.981   5.398   6.649 -0.4284 -0.2199  0.1082
  966POPC   C4A13410   5.220   5.252   6.980 -0.0359  0.1031 -0.0978
  966POPC   C1B13411   4.084   5.867   6.305 -0.0125 -0.2323  0.1724
  966POPC   C2B13412   4.122   5.644   6.706  0.0302 -0.0822 -0.0718
  966POPC   C3B13413   4.396   5.351   6.854  0.0829 -0.0872 -0.1832
  966POPC   C4B13414   4.546   5.239   7.221  0.0989  0.2097  0.0829
  967POPC   NC313415   6.148  12.473   5.807 -0.1599 -0.0734 -0.0022
  967POPC   PO413416   5.873  12.937   5.815 -0.1645 -0.1194 -0.2159
  967POPC   GL113417   5.784  12.684   6.256  0.0073  0.0952 -0.1563
  967POPC   GL213418   6.076  12.663   6.290 -0.0647  0.2060 -0.2246
  967POPC   C1A13419   5.420  12.626   6.516 -0.2622 -0.1102  0.5716
  967POPC   D2A13420   5.122  12.962   6.605  0.1816  0.0579  0.1718
  967POPC   C3A13421   4.872  13.003   7.042  0.0530  0.0895 -0.0349
  967POPC   C4A13422   4.781  13.029   7.503 -0.0790  0.2152 -0.0549
  967POPC   C1B13423   6.121  12.951   6.580 -0.0265 -0.0593 -0.1993
  967POPC   C2B13424   6.222  13.014   6.982 -0.0826  0.1509 -0.2368
  967POPC   C3B13425   5.980  13.121   7.220 -0.0934  0.1841 -0.2227
  967POPC   C4B13426   6.074  13.109   7.637 -0.1414 -0.1421  0.2978
  968POPC   NC313427   7.607  14.673   5.947  0.1139  0.0410  0.3145
  968POPC   PO413428   7.375  14.345   5.974  0.0353 -0.2078  0.3567
  968POPC   GL113429   7.285  14.042   6.332 -0.0164  0.1228 -0.2627
  968POPC   GL213430   7.027  14.254   6.427  0.0279  0.3062  0.1198
  968POPC   C1A13431   7.149  13.798   6.632  0.0620 -0.0349 -0.0994
  968POPC   D2A13432   7.184  13.793   7.062  0.0206 -0.0058 -0.1991
  968POPC   C3A13433   7.550  14.083   7.236  0.0361 -0.1119 -0.0624
  968POPC   C4A13434   7.837  14.351   7.310 -0.2047 -0.4329  0.3398
  968POPC   C1B13435   7.190  14.338   6.824 -0.1124  0.0405  0.2745
  968POPC   C2B13436   7.098  14.251   7.325 -0.0610  0.0523 -0.0447
  968POPC   C3B13437   7.434  14.293   7.690 -0.0188 -0.2861 -0.1141
  968POPC   C4B13438   7.703  14.385   7.991 -0.0685  0.3522  0.3640
  969POPC   NC313439  17.617   9.151   5.805  0.0776  0.2571 -0.0846
  969POPC   PO413440  18.129   9.188   5.767  0.0951 -0.0180 -0.1715
  969POPC   GL113441  18.062   9.004   6.125  0.0461  0.0665 -0.0351
  969POPC   GL213442  17.853   8.724   6.173 -0.2129  0.0199 -0.1694
  969POPC   C1A13443  18.031   9.076   6.515  0.2500  0.1107 -0.1773
  969POPC   D2A13444  18.003   9.112   6.875 -0.2412  0.1915  0.0474
  969POPC   C3A13445  17.973   8.843   7.246  0.2805 -0.0128  0.0933
  969POPC   C4A13446  17.760   8.593   7.444  0.2267  0.1336 -0.3440
  969POPC   C1B13447  18.160   8.601   6.429 -0.3922  0.0047 -0.0512
  969POPC   C2B13448  18.383   8.667   6.781  0.3084 -0.2756  0.2849
  969POPC   C3B13449  18.465   8.980   6.879  0.3489  0.1836  0.2394
  969POPC   C4B13450  18.489   9.147   7.398 -0.2356 -0.0408 -0.0072
  970POPC   NC313451   2.245  17.066   5.368 -0.1093  0.2675 -0.0812
  970POPC   PO413452   2.465  17.254   5.727 -0.3691  0.0763  0.2972
  970POPC   GL113453   2.378  17.276   6.154  0.1546  0.0811 -0.1450
  970POPC   GL213454   2.698  17.096   6.296 -0.3091 -0.0096 -0.0023
  970POPC   C1A13455   2.345  17.282   6.606 -0.1118 -0.0969  0.1918
  970POPC   D2A13456   2.260  17.196   7.030 -0.1284  0.0997 -0.1050
  970POPC   C3A13457   2.317  17.128   7.412  0.0227 -0.0470  0.1483
  970POPC   C4A13458   2.262  16.838   7.642 -0.1647 -0.0748  0.0479
  970POPC   C1B13459   2.790  17.182   6.734 -0.0012  0.0638  0.0667
  970POPC   C2B13460   2.730  17.070   7.116 -0.0547  0.3617  0.1766
  970POPC   C3B13461   2.763  17.044   7.562 -0.2220  0.0480  0.0236
  970POPC   C4B13462   2.924  17.303   7.874  0.0180  0.0802  0.0135
  971POPC   NC313463   8.774   7.216   5.576 -0.2443 -0.2531  0.0558
  971POPC   PO413464   8.419   7.423   5.603  0.4420 -0.3207  0.2828
  971POPC   GL113465   8.541   7.623   5.877 -0.3053 -0.0761 -0.1550
  971POPC   GL213466   8.639   7.392   6.052  0.0207  0.0205  0.1519
  971POPC   C1A13467   8.643   7.896   6.224 -0.1145  0.1690 -0.0373
  971POPC   D2A13468   8.587   7.957   6.671  0.1530  0.0420  0.2538
  971POPC   C3A13469   8.832   8.077   6.947 -0.2192 -0.1393 -0.0558
  971POPC   C4A13470   9.067   8.100   7.372 -0.0480  0.0567 -0.0532
  971POPC   C1B13471   8.644   7.433   6.444  0.4107 -0.1294  0.0325
  971POPC   C2B13472   8.600   7.459   6.859 -0.0366 -0.1329  0.2302
  971POPC   C3B13473   8.548   7.616   7.172  0.0682 -0.0888  0.0757
  971POPC   C4B13474   8.604   7.963   7.527 -0.0180 -0.1605 -0.0641
  972POPC   NC313475   2.869  17.398   5.951 -0.0093 -0.1291  0.1668
  972POPC   PO413476   3.271  17.392   6.191 -0.1539  0.1654  0.1116
  972POPC   GL113477   3.403  17.291   6.622 -0.0363  0.1274 -0.1573
  972POPC   GL213478   3.722  17.253   6.759 -0.1289  0.0042  0.1095
  972POPC   C1A13479   3.182  17.307   6.987 -0.0557  0.3743  0.0393
  972POPC   D2A13480   3.158  17.372   7.400  0.0114  0.2260  0.1230
  972POPC   C3A13481   3.370  17.490   7.762  0.1169 -0.1115  0.0726
  972POPC   C4A13482   3.638  17.579   7.997  0.1125  0.2684  0.0553
  972POPC   C1B13483   3.685  17.087   7.125 -0.3136 -0.0592 -0.1763
  972POPC   C2B13484   3.567  17.076   7.464 -0.1930  0.3256  0.0961
  972POPC   C3B13485   3.705  17.002   7.790 -0.0895 -0.0404  0.1678
  972POPC   C4B13486   3.780  16.841   8.190  0.0499  0.0782 -0.2598
  973POPC   NC313487   1.773  13.051   6.127  0.0009 -0.2271 -0.1810
  973POPC   PO413488   1.782  13.505   5.928  0.1460  0.1085 -0.3104
  973POPC   GL113489   1.658  13.462   6.383  0.1901 -0.0496  0.0742
  973POPC   GL213490   1.313  13.350   6.533 -0.0802 -0.1113  0.2420
  973POPC   C1A13491   1.805  13.283   6.739 -0.1286 -0.5994 -0.2740
  973POPC   D2A13492   2.034  13.076   7.085  0.3102 -0.0972 -0.0511
  973POPC   C3A13493   1.865  12.773   7.320  0.1284  0.1170 -0.0490
  973POPC   C4A13494   1.547  12.658   7.667 -0.1322 -0.1234  0.0063
  973POPC   C1B13495   1.364  13.535   6.927  0.0903 -0.1335 -0.0137
  973POPC   C2B13496   1.622  13.384   7.201 -0.2643  0.0616  0.0433
  973POPC   C3B13497   1.760  13.280   7.556 -0.1361  0.0911 -0.0178
  973POPC   C4B13498   2.004  12.945   7.863 -0.2552 -0.0052  0.0228
  974POPC   NC313499  17.789  12.549   5.835  0.2295  0.3092 -0.1501
  974POPC   PO413500  17.398  12.400   5.790 -0.0854  0.0790 -0.1435
  974POPC   GL113501  17.426  12.182   6.151  0.1450  0.0137  0.5258
  974POPC   GL213502  17.723  12.319   6.254 -0.0710 -0.0368 -0.0456
  974POPC   C1A13503  17.128  12.149   6.417 -0.0106  0.2486  0.0032
  974POPC   D2A13504  17.060  12.173   6.775  0.2472 -0.0144 -0.1301
  974POPC   C3A13505  16.977  11.834   7.051 -0.1388  0.0007 -0.0393
  974POPC   C4A13506  16.770  11.703   7.294  0.3333 -0.2093 -0.2907
  974POPC   C1B13507  17.549  12.295   6.658  0.1003 -0.2949  0.1430
  974POPC   C2B13508  17.564  12.311   7.047 -0.1307 -0.0213  0.1024
  974POPC   C3B13509  17.351  12.029   7.387 -0.1787 -0.5655 -0.0095
  974POPC   C4B13510  17.095  11.924   7.613  0.2348 -0.1323 -0.3728
  975POPC   NC313511  13.680  12.043   5.884 -0.0372 -0.4434  0.2583
  975POPC   PO413512  13.416  11.768   5.673 -0.4110 -0.0128  0.1225
  975POPC   GL113513  13.542  11.564   6.087  0.0516 -0.1349 -0.5686
  975POPC   GL213514  13.880  11.663   6.141 -0.0709  0.0704 -0.0877
  975POPC   C1A13515  13.615  11.336   6.506 -0.0048 -0.2188 -0.3141
  975POPC   D2A13516  13.553  11.207   6.941 -0.1819 -0.0089 -0.0925
  975POPC   C3A13517  13.332  11.370   7.236 -0.0449 -0.1353 -0.0718
  975POPC   C4A13518  13.053  11.655   7.387 -0.2093 -0.0077 -0.1276
  975POPC   C1B13519  13.968  11.601   6.545 -0.3166  0.0287 -0.2015
  975POPC   C2B13520  13.921  11.516   7.020  0.4715  0.0870  0.1410
  975POPC   C3B13521  13.830  11.245   7.303  0.6238  0.0598  0.1010
  975POPC   C4B13522  13.638  10.846   7.283 -0.0691 -0.1601 -0.0879
  976POPC   NC313523   8.501  16.973   5.781  0.0637  0.1158  0.5070
  976POPC   PO413524   8.885  16.830   5.886 -0.1042 -0.1069  0.2257
  976POPC   GL113525   8.957  16.728   6.350 -0.1044  0.0578 -0.1629
  976POPC   GL213526   8.521  16.765   6.283  0.3449 -0.0883 -0.1841
  976POPC   C1A13527   9.058  16.439   6.719 -0.0978 -0.1527  0.0184
  976POPC   D2A13528   8.932  16.168   7.020 -0.0149  0.1484 -0.0939
  976POPC   C3A13529   8.894  16.079   7.402  0.0466 -0.0571 -0.0493
  976POPC   C4A13530   8.575  15.857   7.679  0.0884 -0.1185 -0.2570
  976POPC   C1B13531   8.582  16.743   6.728  0.2511 -0.0152  0.0393
  976POPC   C2B13532   8.600  16.486   7.182 -0.0514 -0.0132 -0.0877
  976POPC   C3B13533   8.462  16.329   7.571 -0.2027  0.1202 -0.0500
  976POPC   C4B13534   8.367  16.499   8.010 -0.3508  0.1109 -0.0434
  977POPC   NC313535  17.254  17.522   5.559  0.0357 -0.3558  0.2090
  977POPC   PO413536  17.510  17.594   5.948 -0.0675  0.1981  0.0852
  977POPC   GL113537  17.308  17.428   6.237 -0.0863 -0.0735 -0.0531
  977POPC   GL213538  17.178  17.206   6.388 -0.0888  0.1152  0.0364
  977POPC   C1A13539  17.411  17.559   6.635  0.0410 -0.1986 -0.0970
  977POPC   D2A13540  17.698  17.681   6.998  0.1091  0.1130 -0.0595
  977POPC   C3A13541  17.748  17.486   7.438  0.0581  0.0260 -0.1393
  977POPC   C4A13542  17.858  17.273   7.923 -0.0100  0.1501 -0.1232
  977POPC   C1B13543  17.425  16.998   6.674 -0.0650 -0.0506 -0.3557
  977POPC   C2B13544  17.662  16.798   7.044 -0.1649  0.3066 -0.0942
  977POPC   C3B13545  17.614  16.631   7.431 -0.3529  0.0469 -0.0304
  977POPC   C4B13546  17.472  16.388   7.746 -0.2525 -0.0648  0.0405
  978POPC   NC313547   1.081   1.407   5.367  0.0581  0.1382 -0.4263
  978POPC   PO413548   0.931   1.237   5.743  0.1747 -0.1988  0.1421
  978POPC   GL113549   0.846   1.181   6.118 -0.0187  0.0888 -0.0249
  978POPC   GL213550   0.550   1.018   6.206  0.3353 -0.0183  0.0436
  978POPC   C1A13551   0.944   1.190   6.579  0.0565  0.0691 -0.1726
  978POPC   D2A13552   1.035   1.281   6.957 -0.1119 -0.0040  0.2503
  978POPC   C3A13553   1.294   1.467   7.263 -0.1232 -0.0016 -0.0149
  978POPC   C4A13554   1.576   1.375   7.718  0.2597 -0.0487  0.0333
  978POPC   C1B13555   0.484   0.978   6.604 -0.2120 -0.0280  0.0897
  978POPC   C2B13556   0.568   0.984   7.039  0.2440  0.2854 -0.0889
  978POPC   C3B13557   0.255   1.110   7.282 -0.0769  0.0703  0.0183
  978POPC   C4B13558   0.367   1.222   7.632 -0.3062  0.0054  0.2777
  979POPC   NC313559  14.745   8.648   5.359  0.2111  0.1555 -0.1160
  979POPC   PO413560  14.727   8.482   5.701  0.2125  0.0958  0.1772
  979POPC   GL113561  14.872   8.468   6.096  0.1900  0.0550  0.0314
  979POPC   GL213562  15.051   8.275   6.205  0.0941 -0.1263  0.0334
  979POPC   C1A13563  14.787   8.480   6.599 -0.1104 -0.0536 -0.0301
  979POPC   D2A13564  14.910   8.491   7.015 -0.1373 -0.2324 -0.0746
  979POPC   C3A13565  15.030   8.065   7.305  0.2657 -0.0561 -0.1011
  979POPC   C4A13566  14.937   7.859   7.773 -0.1734 -0.1549  0.1780
  979POPC   C1B13567  15.305   8.307   6.671 -0.0104 -0.2782  0.1300
  979POPC   C2B13568  15.443   8.438   6.979  0.1120 -0.0832  0.1794
  979POPC   C3B13569  15.310   8.634   7.414 -0.0758 -0.1008  0.1569
  979POPC   C4B13570  15.094   8.409   7.786  0.0591 -0.0347  0.2161
  980POPC   NC313571  13.969   1.758   5.863 -0.0657 -0.1548 -0.0290
  980POPC   PO413572  14.107   1.341   6.001 -0.0423  0.1614  0.0015
  980POPC   GL113573  14.215   1.519   6.367 -0.0321  0.0534  0.1399
  980POPC   GL213574  14.521   1.399   6.561 -0.0353  0.2300 -0.1780
  980POPC   C1A13575  13.936   1.650   6.606  0.1276 -0.3227 -0.2812
  980POPC   D2A13576  13.911   1.944   7.046 -0.0460  0.2986 -0.1179
  980POPC   C3A13577  14.184   1.890   7.454  0.0622 -0.0381 -0.0482
  980POPC   C4A13578  14.428   2.165   7.743 -0.3620 -0.3865  0.2677
  980POPC   C1B13579  14.372   1.046   6.880 -0.0372 -0.4292 -0.1686
  980POPC   C2B13580  14.252   1.019   7.245 -0.0830 -0.2105 -0.1806
  980POPC   C3B13581  14.474   1.165   7.645  0.1238  0.0573 -0.1103
  980POPC   C4B13582  14.480   1.401   8.086 -0.1380 -0.0881  0.1176
  981POPC   NC313583   4.710  10.475   5.798 -0.1811 -0.0089  0.1716
  981POPC   PO413584   4.498  10.828   5.795  0.0448  0.2828  0.0495
  981POPC   GL113585   4.856  10.830   6.145 -0.1490 -0.2282 -0.0283
  981POPC   GL213586   5.122  10.962   6.050 -0.0621 -0.2043  0.0970
  981POPC   C1A13587   4.698  10.910   6.544  0.0085  0.1365 -0.1671
  981POPC   D2A13588   5.131  10.955   6.834  0.1507  0.3680  0.0446
  981POPC   C3A13589   5.203  10.735   7.270  0.1581  0.2450 -0.1524
  981POPC   C4A13590   5.019  10.698   7.744 -0.2355  0.0764  0.1077
  981POPC   C1B13591   5.114  11.136   6.403 -0.3242  0.1642 -0.0069
  981POPC   C2B13592   4.912  11.401   6.761  0.3032 -0.3619 -0.1045
  981POPC   C3B13593   5.131  11.795   6.976 -0.1329  0.1007 -0.0989
  981POPC   C4B13594   5.337  11.696   7.334  0.1659  0.1265 -0.0892
  982YOPC   NC313595   8.148   8.938   5.115  0.0390  0.1164  0.1567
  982YOPC   PO413596   7.767   9.047   5.195 -0.2274  0.4666 -0.4885
  982YOPC   GL113597   7.924   8.885   5.642 -0.5631  0.2381 -0.2157
  982YOPC   GL213598   8.011   8.612   5.785 -0.0312 -0.1201  0.0240
  982YOPC   C1A13599   8.103   9.144   5.915  0.0695 -0.2365 -0.3732
  982YOPC   D2A13600   8.152   9.488   6.186 -0.2187 -0.0303  0.2090
  982YOPC   C3A13601   8.153   9.454   6.629 -0.2497 -0.0649  0.1621
  982YOPC   C4A13602   7.966   9.215   6.959 -0.2962  0.1652 -0.0633
  982YOPC   C1B13603   7.995   8.628   6.211  0.0149 -0.1015  0.3142
  982YOPC   C2B13604   7.947   8.843   6.613  0.1553 -0.2651 -0.0596
  982YOPC   D3B13605   7.546   8.968   6.731 -0.2965  0.1378  0.0677
  982YOPC   C4B13606   7.158   9.303   6.792 -0.2696 -0.0012 -0.0783
  983YOPC   NC313607   7.185   5.831   4.857 -0.2181 -0.2202 -0.1315
  983YOPC   PO413608   7.031   5.712   5.250 -0.2581  0.2549  0.2984
  983YOPC   GL113609   7.040   5.852   5.587  0.1758  0.1280  0.1751
  983YOPC   GL213610   7.326   5.938   5.815  0.0500  0.1632  0.3643
  983YOPC   C1A13611   7.018   6.311   5.709  0.1174  0.2738  0.1851
  983YOPC   D2A13612   6.933   6.742   5.922 -0.0155  0.3040 -0.1197
  983YOPC   C3A13613   7.170   7.036   6.178  0.1755 -0.2637 -0.0239
  983YOPC   C4A13614   7.247   7.113   6.611  0.1941 -0.2281 -0.2245
  983YOPC   C1B13615   7.284   5.983   6.221  0.2166 -0.1458  0.0733
  983YOPC   C2B13616   7.234   6.175   6.513  0.1493 -0.0745 -0.0373
  983YOPC   D3B13617   7.085   6.183   7.016 -0.0836  0.0319 -0.0297
  983YOPC   C4B13618   6.676   6.434   7.132  0.0469  0.0030 -0.0424
  984YOPC   NC313619  17.300   0.555   6.077 -0.0826  0.2442  0.1826
  984YOPC   PO413620  17.711   0.481   5.867  0.2288 -0.2971  0.0999
  984YOPC   GL113621  17.864   0.386   6.322 -0.1039 -0.0665 -0.1212
  984YOPC   GL213622  18.102   0.046   6.439  0.0352 -0.0480 -0.2405
  984YOPC   C1A13623  18.051   0.417   6.778 -0.0434  0.1977 -0.0029
  984YOPC   D2A13624  17.948   0.633   7.172  0.1429  0.0540 -0.0466
  984YOPC   C3A13625  18.009   0.301   7.419  0.0376 -0.4203 -0.1972
  984YOPC   C4A13626  18.233   0.109   7.672  0.4551  0.1219 -0.1058
  984YOPC   C1B13627  17.900  -0.034   6.688 -0.1579 -0.1648  0.1670
  984YOPC   C2B13628  17.850  -0.055   7.111 -0.1432 -0.0533  0.1295
  984YOPC   D3B13629  17.998  -0.351   7.509 -0.2469 -0.0141  0.1282
  984YOPC   C4B13630  18.055  -0.343   7.947  0.0804  0.0296  0.0350
  985YOPC   NC313631   4.817   7.457   5.593  0.1371 -0.0355  0.1949
  985YOPC   PO413632   4.877   7.011   5.669  0.1656 -0.3717 -0.3169
  985YOPC   GL113633   4.674   7.217   6.002 -0.1440  0.2875  0.1215
  985YOPC   GL213634   4.686   7.612   6.009 -0.3454  0.1774 -0.0489
  985YOPC   C1A13635   4.518   7.006   6.335  0.1067  0.1508  0.2450
  985YOPC   D2A13636   4.583   6.992   6.695 -0.1617 -0.0147  0.0121
  985YOPC   C3A13637   4.279   7.135   6.933 -0.0277  0.0769 -0.0218
  985YOPC   C4A13638   4.157   7.176   7.291 -0.1075  0.0918 -0.0029
  985YOPC   C1B13639   4.635   7.529   6.376 -0.1014  0.2271  0.0026
  985YOPC   C2B13640   4.502   7.518   6.802  0.1375  0.1491 -0.0264
  985YOPC   D3B13641   4.696   7.437   7.094 -0.0743 -0.0348 -0.1101
  985YOPC   C4B13642   4.780   7.613   7.555  0.4587 -0.0817 -0.2057
  986YOPC   NC313643  17.043  12.986   5.267 -0.0203  0.0073 -0.1262
  986YOPC   PO413644  16.775  13.085   5.595 -0.2903  0.0085 -0.0624
  986YOPC   GL113645  16.869  13.116   6.014  0.0435 -0.1685 -0.2570
  986YOPC   GL213646  16.782  13.431   6.011 -0.0245  0.2519  0.2282
  986YOPC   C1A13647  16.997  13.072   6.405 -0.1656 -0.3710  0.2508
  986YOPC   D2A13648  16.881  13.137   6.802  0.0665  0.0262 -0.0465
  986YOPC   C3A13649  16.630  12.886   7.048  0.2759  0.2616  0.2738
  986YOPC   C4A13650  16.409  12.631   7.311  0.0991  0.1693 -0.1141
  986YOPC   C1B13651  16.629  13.438   6.388 -0.0445  0.1285 -0.0418
  986YOPC   C2B13652  16.450  13.355   6.664  0.0281  0.2148  0.1555
  986YOPC   D3B13653  16.486  13.360   7.039 -0.2109 -0.0720 -0.0175
  986YOPC   C4B13654  16.244  13.543   7.404 -0.0795 -0.0922  0.1423
  987YOPC   NC313655  11.342   2.296   5.807 -0.2728  0.0535  0.0243
  987YOPC   PO413656  10.967   2.195   6.012  0.1764  0.0044  0.3213
  987YOPC   GL113657  11.186   2.219   6.308 -0.0710 -0.0894 -0.2028
  987YOPC   GL213658  11.459   2.138   6.234 -0.1612  0.3208  0.2817
  987YOPC   C1A13659  11.136   2.311   6.741  0.2857  0.3914 -0.0805
  987YOPC   D2A13660  11.387   2.254   7.110 -0.1456  0.2222 -0.0197
  987YOPC   C3A13661  11.132   2.328   7.441  0.2092 -0.1603  0.1850
  987YOPC   C4A13662  10.875   2.436   7.784 -0.0511 -0.0160 -0.1988
  987YOPC   C1B13663  11.583   2.502   6.502  0.3219  0.3614  0.0401
  987YOPC   C2B13664  11.610   2.659   6.938 -0.0384  0.0022  0.0389
  987YOPC   D3B13665  11.634   2.615   7.393 -0.0905  0.2301  0.1145
  987YOPC   C4B13666  11.449   2.550   7.790  0.0695  0.1494 -0.0498
  988YOPC   NC313667  17.157  11.984   5.592 -0.2473 -0.0221  0.1373
  988YOPC   PO413668  16.817  12.231   5.571  0.1618  0.1529  0.1535
  988YOPC   GL113669  16.866  12.259   6.017 -0.3507 -0.4248 -0.0320
  988YOPC   GL213670  16.655  12.114   6.159  0.0633 -0.1150 -0.0500
  988YOPC   C1A13671  16.974  12.598   6.326 -0.2091  0.0657 -0.0652
  988YOPC   D2A13672  16.853  12.633   6.658  0.0375  0.0070  0.1073
  988YOPC   C3A13673  17.111  12.654   6.902 -0.2369  0.0448  0.1110
  988YOPC   C4A13674  17.317  13.073   7.073  0.1326 -0.0586  0.0231
  988YOPC   C1B13675  16.656  12.233   6.512 -0.2100 -0.0679 -0.1593
  988YOPC   C2B13676  16.586  12.074   6.913  0.1486  0.0351 -0.1271
  988YOPC   D3B13677  16.847  12.255   7.300 -0.2535 -0.0008  0.0521
  988YOPC   C4B13678  17.211  12.521   7.433 -0.0098 -0.3128  0.2995
  989YOPC   NC313679   2.932   6.011   5.713  0.3190  0.0475  0.3312
  989YOPC   PO413680   3.347   6.104   5.444 -0.0068 -0.1770 -0.1001
  989YOPC   GL113681   3.488   6.145   5.894 -0.2185  0.0998  0.1531
  989YOPC   GL213682   3.229   6.120   6.054 -0.3650  0.0246  0.1555
  989YOPC   C1A13683   3.546   6.106   6.404 -0.2089  0.0563  0.1752
  989YOPC   D2A13684   3.475   6.079   6.723  0.0071  0.1014  0.1673
  989YOPC   C3A13685   3.174   6.292   6.922  0.1768 -0.1783 -0.0771
  989YOPC   C4A13686   2.894   6.263   7.304 -0.2010 -0.0409 -0.2475
  989YOPC   C1B13687   2.968   6.313   6.367 -0.2128  0.1380 -0.0814
  989YOPC   C2B13688   2.668   6.048   6.634  0.3211  0.1481 -0.0670
  989YOPC   D3B13689   2.446   6.078   7.061  0.0090 -0.0639  0.1375
  989YOPC   C4B13690   2.499   6.073   7.486  0.1114  0.0247  0.1273
  990YOPC   NC313691   6.188   5.524   5.495  0.0522 -0.4123  0.1796
  990YOPC   PO413692   6.035   5.935   5.431  0.0617  0.2987 -0.0604
  990YOPC   GL113693   6.113   5.876   5.862  0.2046 -0.5881  0.1646
  990YOPC   GL213694   6.253   5.632   6.023 -0.0924  0.1538  0.0043
  990YOPC   C1A13695   6.265   6.128   6.238 -0.0044 -0.1343  0.4770
  990YOPC   D2A13696   5.897   6.332   6.515  0.0057 -0.0024 -0.0334
  990YOPC   C3A13697   5.845   6.300   6.998  0.2178 -0.1545 -0.1079
  990YOPC   C4A13698   5.702   5.967   7.380 -0.0628  0.0320 -0.2359
  990YOPC   C1B13699   6.183   5.273   6.350  0.0672  0.2023 -0.3787
  990YOPC   C2B13700   6.129   5.311   6.809  0.3092  0.2223  0.1666
  990YOPC   D3B13701   5.965   4.958   6.950  0.0340  0.1770  0.0734
  990YOPC   C4B13702   5.784   4.559   6.735 -0.5154  0.1123  0.1296
  991YOPC   NC313703   6.822  10.232   5.490  0.1293  0.0258 -0.1566
  991YOPC   PO413704   7.016  10.529   5.742 -0.2634 -0.1603  0.0906
  991YOPC   GL113705   7.249  10.541   6.132 -0.0316  0.2154 -0.0178
  991YOPC   GL213706   7.611  10.499   6.180  0.2521  0.0049 -0.1367
  991YOPC   C1A13707   7.149  10.537   6.408  0.2036  0.1102  0.1473
  991YOPC   D2A13708   6.919  10.432   6.723  0.3425  0.0350 -0.0689
  991YOPC   C3A13709   6.974  10.048   7.035  0.1251  0.1540 -0.1149
  991YOPC   C4A13710   7.262   9.754   7.044 -0.2131 -0.0728  0.0715
  991YOPC   C1B13711   7.661  10.642   6.643  0.3075  0.0707  0.0188
  991YOPC   C2B13712   7.879  10.624   7.124 -0.0232  0.1572  0.1275
  991YOPC   D3B13713   7.960  11.018   7.326  0.0642 -0.1379 -0.2619
  991YOPC   C4B13714   8.028  11.180   7.692  0.1198  0.1734 -0.1560
  992YOPC   NC313715   5.395  16.287   5.983  0.0781 -0.1865 -0.1619
  992YOPC   PO413716   5.785  16.448   6.007  0.4855  0.1955  0.0419
  992YOPC   GL113717   5.615  16.519   6.401 -0.0431 -0.0918 -0.0508
  992YOPC   GL213718   5.448  16.708   6.398  0.2892  0.0702  0.2221
  992YOPC   C1A13719   5.538  16.430   6.850  0.0631 -0.1688  0.1358
  992YOPC   D2A13720   5.274  16.291   7.177  0.1648  0.0092  0.1812
  992YOPC   C3A13721   5.382  16.075   7.492  0.2422 -0.0123  0.1886
  992YOPC   C4A13722   5.786  15.966   7.623 -0.0201  0.0845  0.3076
  992YOPC   C1B13723   5.354  16.902   6.730  0.1048  0.0324  0.2450
  992YOPC   C2B13724   5.050  16.783   7.067  0.1377 -0.2393 -0.0489
  992YOPC   D3B13725   5.152  16.814   7.471 -0.2866 -0.0887 -0.0463
  992YOPC   C4B13726   5.302  16.509   7.806  0.0909 -0.0585 -0.0695
  993YOPC   NC313727   2.543   3.271   5.875  0.1476  0.0971 -0.2392
  993YOPC   PO413728   2.168   3.390   5.923 -0.1295  0.1274  0.2675
  993YOPC   GL113729   2.316   3.583   6.302 -0.0375  0.0091 -0.1742
  993YOPC   GL213730   2.042   3.792   6.311 -0.2190  0.0413  0.0380
  993YOPC   C1A13731   2.601   3.792   6.560  0.0981 -0.1278  0.1941
  993YOPC   D2A13732   2.767   3.618   6.940  0.2405  0.0011  0.2145
  993YOPC   C3A13733   2.575   3.816   7.300 -0.0811 -0.0636 -0.0390
  993YOPC   C4A13734   2.530   3.741   7.754 -0.1123 -0.3395 -0.1114
  993YOPC   C1B13735   1.916   3.769   6.739  0.0444 -0.2791  0.3575
  993YOPC   C2B13736   2.224   3.552   6.977 -0.1259  0.1277 -0.0453
  993YOPC   D3B13737   2.230   3.481   7.437  0.2500  0.2863 -0.0586
  993YOPC   C4B13738   1.812   3.447   7.545 -0.0927  0.1859 -0.0515
  994YOPC   NC313739  16.809   5.511   5.193  0.0921 -0.0038  0.1488
  994YOPC   PO413740  16.457   5.344   5.375 -0.1181  0.0868 -0.2008
  994YOPC   GL113741  16.358   5.279   5.798 -0.0980  0.0062 -0.1630
  994YOPC   GL213742  16.143   5.118   5.918  0.0455 -0.1555 -0.2447
  994YOPC   C1A13743  16.454   5.346   6.298  0.1972  0.0718  0.0976
  994YOPC   D2A13744  16.337   5.252   6.685 -0.0879 -0.4443 -0.0026
  994YOPC   C3A13745  16.325   4.829   6.826 -0.0910  0.0343  0.0670
  994YOPC   C4A13746  16.317   4.690   7.314 -0.0713  0.0332 -0.0586
  994YOPC   C1B13747  16.196   4.897   6.332  0.0827 -0.1405  0.0770
  994YOPC   C2B13748  16.329   4.462   6.416 -0.2638  0.3776 -0.1133
  994YOPC   D3B13749  16.285   4.340   6.888  0.1318 -0.1556 -0.3701
  994YOPC   C4B13750  16.186   4.202   7.346 -0.0491 -0.1266  0.0921
  995YOPC   NC313751  17.725   2.808   5.774 -0.2001 -0.2033  0.1256
  995YOPC   PO413752  18.082   2.725   6.007  0.0465 -0.0823  0.1207
  995YOPC   GL113753  18.242   3.138   6.214 -0.3198 -0.1973 -0.2152
  995YOPC   GL213754  18.670   3.122   6.149  0.0736 -0.0833  0.1396
  995YOPC   C1A13755  18.339   3.197   6.659  0.1417 -0.0248  0.0586
  995YOPC   D2A13756  18.437   2.951   7.065 -0.0709  0.1017 -0.0526
  995YOPC   C3A13757  18.516   3.233   7.472  0.0755  0.1413 -0.2035
  995YOPC   C4A13758  18.809   3.127   7.830 -0.1119 -0.2310 -0.0275
  995YOPC   C1B13759  18.853   3.346   6.498  0.2629  0.0794 -0.0127
  995YOPC   C2B13760  18.730   3.399   6.990 -0.1089  0.0358  0.0673
  995YOPC   D3B13761  18.829   3.626   7.477 -0.0790  0.1065  0.1206
  995YOPC   C4B13762  18.773   3.616   7.851 -0.1197 -0.0193 -0.0054
  996YOPC   NC313763   8.475  13.090   5.854  0.0731  0.0923  0.2905
  996YOPC   PO413764   8.854  13.131   5.636 -0.1196  0.0397 -0.0556
  996YOPC   GL113765   9.093  13.219   5.960 -0.0015 -0.1206 -0.2847
  996YOPC   GL213766   9.445  13.298   5.833  0.0998 -0.0502 -0.1361
  996YOPC   C1A13767   9.098  13.436   6.223 -0.0071  0.3123  0.1865
  996YOPC   D2A13768   9.278  13.478   6.543 -0.0425  0.1438  0.2446
  996YOPC   C3A13769   9.371  13.806   6.705  0.0529  0.3083 -0.2445
  996YOPC   C4A13770   9.642  14.155   6.654  0.0533  0.1564  0.1490
  996YOPC   C1B13771   9.660  13.273   6.243 -0.0755  0.1627 -0.2491
  996YOPC   C2B13772   9.749  13.303   6.633 -0.0679  0.1193 -0.1377
  996YOPC   D3B13773   9.530  13.492   7.045  0.0172  0.1450 -0.0757
  996YOPC   C4B13774   9.454  13.579   7.472 -0.1493  0.2182  0.2584
  997YOPC   NC313775  14.715  13.815   5.480 -0.2602 -0.3025  0.0015
  997YOPC   PO413776  14.694  13.389   5.752 -0.1699 -0.0370 -0.0929
  997YOPC   GL113777  14.681  13.185   6.143 -0.0118 -0.3806 -0.1075
  997YOPC   GL213778  14.505  12.981   6.298  0.0701  0.1184  0.0267
  997YOPC   C1A13779  15.010  13.125   6.400 -0.0714 -0.0064  0.0587
  997YOPC   D2A13780  15.135  12.904   6.762 -0.1863 -0.1400  0.1747
  997YOPC   C3A13781  15.098  12.994   7.244  0.0931  0.3946 -0.2310
  997YOPC   C4A13782  15.077  12.935   7.724 -0.4251  0.0949 -0.1280
  997YOPC   C1B13783  14.511  13.223   6.619  0.1827  0.1816  0.3017
  997YOPC   C2B13784  14.714  13.184   7.007 -0.0201  0.0362  0.1833
  997YOPC   D3B13785  14.589  13.149   7.429 -0.0730  0.1023  0.0011
  997YOPC   C4B13786  14.629  13.114   7.865  0.3270  0.3327 -0.0077
  998YOPC   NC313787  15.617   2.415   5.684 -0.0168  0.2140  0.1568
  998YOPC   PO413788  15.918   2.264   5.928  0.1078  0.1833 -0.1495
  998YOPC   GL113789  15.826   2.307   6.389  0.2173  0.0182 -0.1984
  998YOPC   GL213790  15.641   2.519   6.494  0.2008 -0.0174 -0.1852
  998YOPC   C1A13791  15.652   2.056   6.763  0.0372  0.1574 -0.1719
  998YOPC   D2A13792  15.391   1.982   7.112  0.0685 -0.3848  0.0181
  998YOPC   C3A13793  15.657   2.048   7.534  0.1696  0.3840 -0.1641
  998YOPC   C4A13794  15.998   2.015   7.878  0.1329  0.2360 -0.0472
  998YOPC   C1B13795  15.653   2.516   6.905 -0.3092  0.0643  0.3690
  998YOPC   C2B13796  15.495   2.449   7.182  0.0830 -0.1844  0.0787
  998YOPC   D3B13797  15.620   2.789   7.345 -0.0275  0.0050 -0.1583
  998YOPC   C4B13798  15.728   2.753   7.731  0.0989 -0.0644 -0.0738
  999YOPC   NC313799   8.541  11.445   5.733 -0.0567  0.0811  0.0166
  999YOPC   PO413800   8.839  11.782   5.847  0.1768 -0.3315 -0.3193
  999YOPC   GL113801   8.770  11.945   6.310  0.0629  0.1107 -0.0638
  999YOPC   GL213802   8.485  12.007   6.493 -0.0472  0.1498 -0.1665
  999YOPC   C1A13803   8.764  12.055   6.879  0.1528  0.0337 -0.2484
  999YOPC   D2A13804   8.886  12.206   7.262 -0.2858  0.0482 -0.1735
  999YOPC   C3A13805   9.195  12.472   7.457  0.1626 -0.0418 -0.2056
  999YOPC   C4A13806   9.506  12.538   7.771 -0.2414 -0.1779  0.1000
  999YOPC   C1B13807   8.351  11.797   6.846  0.1030  0.0664  0.2098
  999YOPC   C2B13808   8.554  11.722   7.174  0.0318 -0.0378  0.1245
  999YOPC   D3B13809   8.782  11.641   7.597 -0.1247 -0.1381 -0.0784
  999YOPC   C4B13810   9.023  11.449   7.929  0.3868 -0.1067  0.0789
 1000YOPC   NC313811  15.761   7.278   5.552  0.0321  0.0660  0.0811
 1000YOPC   PO413812  15.839   7.673   5.764 -0.0421  0.0942 -0.2658
 1000YOPC   GL113813  15.661   7.728   6.128  0.1486 -0.1044 -0.0973
 1000YOPC   GL213814  15.426   7.923   6.091 -0.0693  0.2764  0.1961
 1000YOPC   C1A13815  15.682   7.547   6.537  0.0886 -0.1056 -0.1087
 1000YOPC   D2A13816  15.903   7.579   6.918  0.1913  0.0028  0.0923
 1000YOPC   C3A13817  15.766   7.368   7.297  0.1186  0.1547 -0.0981
 1000YOPC   C4A13818  15.521   7.497   7.695  0.4838 -0.0892 -0.1502
 1000YOPC   C1B13819  15.284   7.806   6.574  0.0479  0.1366  0.0581
 1000YOPC   C2B13820  15.362   7.850   7.017  0.0284 -0.1839 -0.2285
 1000YOPC   D3B13821  15.166   7.542   7.300  0.3337 -0.1038 -0.0873
 1000YOPC   C4B13822  14.895   7.255   7.394  0.0905  0.1693 -0.0213
 1001YOPC   NC313823  17.349   0.083   5.901 -0.0981 -0.0248  0.0743
 1001YOPC   PO413824  16.892   0.160   6.000  0.1572 -0.0024 -0.1659
 1001YOPC   GL113825  16.981   0.029   6.364  0.0288  0.0137  0.1486
 1001YOPC   GL213826  17.240   0.195   6.456  0.1114  0.1262 -0.1518
 1001YOPC   C1A13827  16.966   0.043   6.786  0.1303  0.1286  0.0453
 1001YOPC   D2A13828  16.960  -0.021   7.186  0.1162 -0.0599  0.1686
 1001YOPC   C3A13829  17.111  -0.077   7.568 -0.2569 -0.0135  0.2452
 1001YOPC   C4A13830  17.284   0.177   7.995  0.0648  0.0887  0.2660
 1001YOPC   C1B13831  17.494   0.289   6.787 -0.0187 -0.2134 -0.2144
 1001YOPC   C2B13832  17.455   0.210   7.208 -0.2148  0.1849 -0.4590
 1001YOPC   D3B13833  17.546   0.474   7.511  0.1130  0.1566  0.0843
 1001YOPC   C4B13834  17.286   0.678   7.822  0.0614 -0.0593 -0.1216
 1002YOPC   NC313835  17.206  16.770   5.572  0.2451 -0.1293  0.1573
 1002YOPC   PO413836  17.050  17.011   5.886 -0.0198  0.3080  0.0522
 1002YOPC   GL113837  17.416  16.681   6.089  0.0248 -0.1137  0.0728
 1002YOPC   GL213838  17.359  16.611   6.361 -0.1745  0.0781  0.3121
 1002YOPC   C1A13839  17.847  16.829   6.234  0.1670 -0.0860 -0.0741
 1002YOPC   D2A13840  17.918  16.742   6.644  0.3365  0.1989  0.0295
 1002YOPC   C3A13841  18.208  16.762   6.941 -0.0847 -0.0194  0.1043
 1002YOPC   C4A13842  18.477  16.610   7.270 -0.0605  0.4606 -0.4646
 1002YOPC   C1B13843  17.506  16.522   6.693  0.1068 -0.0584  0.0096
 1002YOPC   C2B13844  17.284  16.343   7.063 -0.0152 -0.2484 -0.1823
 1002YOPC   D3B13845  17.475  16.098   7.280 -0.2513  0.0363 -0.1436
 1002YOPC   C4B13846  17.772  15.797   7.489 -0.1236 -0.0635 -0.1439
 1003YOPC   NC313847  18.009  14.549   5.517  0.1388 -0.0839 -0.0557
 1003YOPC   PO413848  18.361  14.502   5.773  0.2642 -0.0148 -0.1320
 1003YOPC   GL113849  18.366  14.503   6.168  0.1975  0.2818  0.2591
 1003YOPC   GL213850  18.048  14.487   6.367 -0.1984  0.0382 -0.4285
 1003YOPC   C1A13851  18.557  14.198   6.472 -0.1214 -0.2531 -0.0190
 1003YOPC   D2A13852  18.808  14.274   6.815 -0.1796  0.3498 -0.0158
 1003YOPC   C3A13853  18.960  14.377   7.197  0.0498  0.1318 -0.0809
 1003YOPC   C4A13854  18.959  14.240   7.663 -0.2087 -0.1554  0.2502
 1003YOPC   C1B13855  18.294  14.735   6.612 -0.0627  0.1378  0.1806
 1003YOPC   C2B13856  18.474  14.650   6.971 -0.0735 -0.2523  0.1467
 1003YOPC   D3B13857  18.388  14.332   7.235 -0.0924  0.0213 -0.0243
 1003YOPC   C4B13858  18.470  14.235   7.695 -0.0101  0.1699 -0.0363
 1004YOPC   NC313859   2.250   6.775   5.715  0.2339  0.0120 -0.0286
 1004YOPC   PO413860   1.889   6.812   5.877  0.0627 -0.0388  0.0032
 1004YOPC   GL113861   1.676   6.836   6.306 -0.1446  0.0356 -0.0520
 1004YOPC   GL213862   1.473   6.734   6.419  0.2072  0.2125 -0.0160
 1004YOPC   C1A13863   1.662   7.302   6.523  0.0699  0.0132  0.3039
 1004YOPC   D2A13864   1.486   7.679   6.446  0.0803  0.2106 -0.2724
 1004YOPC   C3A13865   1.448   7.937   6.778  0.2945 -0.1893  0.1850
 1004YOPC   C4A13866   1.308   8.279   7.063  0.1848  0.0714  0.2468
 1004YOPC   C1B13867   1.344   6.524   6.848  0.2318 -0.0619 -0.3009
 1004YOPC   C2B13868   1.500   6.223   7.172  0.0942 -0.1846  0.3184
 1004YOPC   D3B13869   1.571   6.184   7.586 -0.2769 -0.3636  0.1072
 1004YOPC   C4B13870   1.665   6.202   7.946 -0.0430 -0.1726 -0.1090
 1005YOPC   NC313871  13.890   2.687   5.978  0.0330 -0.0376 -0.0148
 1005YOPC   PO413872  13.816   2.226   5.794  0.0280 -0.1420 -0.0471
 1005YOPC   GL113873  13.494   2.088   6.004  0.1553 -0.2236  0.0973
 1005YOPC   GL213874  13.542   2.420   6.210  0.0740 -0.1954 -0.0284
 1005YOPC   C1A13875  13.397   1.926   6.377 -0.2471 -0.0387  0.1895
 1005YOPC   D2A13876  13.387   1.713   6.848  0.0418  0.0195  0.1420
 1005YOPC   C3A13877  13.373   1.812   7.307  0.2418 -0.0040 -0.1133
 1005YOPC   C4A13878  13.456   1.999   7.608 -0.0820 -0.1175  0.0465
 1005YOPC   C1B13879  13.628   2.412   6.669 -0.1190  0.0560 -0.0703
 1005YOPC   C2B13880  13.793   2.491   7.052  0.1224 -0.0139 -0.0027
 1005YOPC   D3B13881  13.899   2.332   7.448 -0.0838 -0.2595 -0.0655
 1005YOPC   C4B13882  13.941   2.252   7.829 -0.0579 -0.0402  0.2886
 1006YOPC   NC313883   5.620  10.704   5.378  0.0735  0.0013 -0.0570
 1006YOPC   PO413884   6.048  10.595   5.535 -0.0047  0.1546 -0.2281
 1006YOPC   GL113885   5.994  10.626   5.889 -0.1297  0.0693 -0.1587
 1006YOPC   GL213886   5.805  10.590   6.180 -0.1957 -0.2226 -0.0025
 1006YOPC   C1A13887   6.199  10.907   6.152 -0.0964  0.0298  0.0812
 1006YOPC   D2A13888   6.116  11.177   6.498 -0.5055 -0.1223  0.0841
 1006YOPC   C3A13889   6.105  11.256   6.897 -0.1341  0.1109  0.1011
 1006YOPC   C4A13890   6.254  11.567   7.194  0.1385 -0.1991  0.0259
 1006YOPC   C1B13891   5.907  10.766   6.525  0.2314 -0.0043 -0.0932
 1006YOPC   C2B13892   6.070  10.769   6.923 -0.0384 -0.0068  0.0262
 1006YOPC   D3B13893   5.940  11.109   7.329 -0.2271  0.0543  0.1360
 1006YOPC   C4B13894   5.911  11.496   7.586 -0.0355  0.2787 -0.1474
 1007YOPC   NC313895   8.060   3.672   5.756  0.1387  0.1356  0.0607
 1007YOPC   PO413896   8.163   4.152   5.762  0.1278  0.2806 -0.0799
 1007YOPC   GL113897   8.133   4.243   6.149  0.2022  0.1893 -0.0925
 1007YOPC   GL213898   7.843   4.284   6.279  0.2993  0.2787 -0.0244
 1007YOPC   C1A13899   8.320   4.323   6.496  0.0127 -0.0135 -0.1353
 1007YOPC   D2A13900   8.235   4.424   6.931 -0.1697  0.0234 -0.0461
 1007YOPC   C3A13901   8.568   4.196   7.168  0.0122  0.1860  0.0677
 1007YOPC   C4A13902   8.866   4.197   7.584  0.2769  0.0049 -0.0912
 1007YOPC   C1B13903   7.812   4.304   6.716  0.0009 -0.2897 -0.0601
 1007YOPC   C2B13904   7.666   4.439   7.056 -0.0614  0.1429 -0.2507
 1007YOPC   D3B13905   7.948   4.541   7.381 -0.0433  0.0754 -0.0847
 1007YOPC   C4B13906   8.060   4.524   7.827  0.3241 -0.1779  0.0142
 1008YOPC   NC313907   7.529  15.446   5.926  0.0976  0.0303  0.1314
 1008YOPC   PO413908   7.311  15.028   5.874 -0.2530  0.0069  0.1102
 1008YOPC   GL113909   7.160  14.867   6.166  0.2462  0.0869  0.0208
 1008YOPC   GL213910   6.801  14.930   6.337  0.0026 -0.0039  0.0556
 1008YOPC   C1A13911   7.185  14.778   6.584 -0.0389 -0.0345  0.0229
 1008YOPC   D2A13912   7.227  14.843   6.988  0.0400  0.1988 -0.4835
 1008YOPC   C3A13913   7.496  14.733   7.374  0.0486  0.0590 -0.2083
 1008YOPC   C4A13914   7.347  14.735   7.772 -0.0982  0.0836 -0.0848
 1008YOPC   C1B13915   6.758  15.111   6.733  0.0078  0.0764  0.2448
 1008YOPC   C2B13916   6.835  15.104   7.167 -0.1384 -0.0686  0.2340
 1008YOPC   D3B13917   6.583  15.084   7.541  0.5342 -0.0071  0.0231
 1008YOPC   C4B13918   6.388  15.038   7.957  0.1614  0.2388  0.1056
 1009YOPC   NC313919  18.254   7.496   5.549  0.0918 -0.0564  0.0576
 1009YOPC   PO413920  18.698   7.650   5.689 -0.4446  0.1695 -0.2952
 1009YOPC   GL113921  18.810   7.734   6.076  0.1550  0.0299 -0.1966
 1009YOPC   GL213922  18.729   7.623   6.398 -0.2051 -0.1470  0.2340
 1009YOPC   C1A13923  18.872   8.080   6.337 -0.0384  0.2537 -0.0419
 1009YOPC   D2A13924  18.909   8.386   6.543 -0.0549 -0.2090 -0.0447
 1009YOPC   C3A13925  18.851   8.610   6.858 -0.1220 -0.2965 -0.2295
 1009YOPC   C4A13926  18.998   8.538   7.327 -0.0480  0.0560  0.1488
 1009YOPC   C1B13927  18.762   7.812   6.778  0.3454 -0.0399 -0.0565
 1009YOPC   C2B13928  18.861   7.793   7.222 -0.2325 -0.0263 -0.3016
 1009YOPC   D3B13929  19.005   7.438   7.498 -0.0409  0.1697 -0.0382
 1009YOPC   C4B13930  18.970   7.149   7.771  0.1064 -0.0791  0.1123
 1010YOPC   NC313931   7.016  15.382   6.019  0.0863 -0.1103 -0.1441
 1010YOPC   PO413932   6.583  15.711   5.811 -0.0493  0.1978 -0.1951
 1010YOPC   GL113933   6.486  15.683   6.134 -0.0280 -0.0555  0.1203
 1010YOPC   GL213934   6.146  15.679   6.181  0.1643  0.0824 -0.0239
 1010YOPC   C1A13935   6.475  15.555   6.500  0.1567  0.3141 -0.0965
 1010YOPC   D2A13936   6.619  15.514   6.992 -0.0552 -0.0885 -0.2786
 1010YOPC   C3A13937   6.355  15.424   7.328  0.0399  0.2586  0.0060
 1010YOPC   C4A13938   6.140  15.376   7.724 -0.0058 -0.0254  0.1605
 1010YOPC   C1B13939   6.031  15.760   6.585  0.0723  0.0060 -0.2165
 1010YOPC   C2B13940   6.203  15.760   6.969 -0.3673  0.0742  0.0525
 1010YOPC   D3B13941   6.093  15.819   7.256 -0.3923  0.2229 -0.2854
 1010YOPC   C4B13942   6.350  15.896   7.620 -0.1796  0.0802  0.1687
 1011YOPC   NC313943  18.187  11.407   5.580  0.2290 -0.0573  0.2354
 1011YOPC   PO413944  18.354  11.714   5.832 -0.0074 -0.1960 -0.1590
 1011YOPC   GL113945  18.067  11.769   6.140 -0.1806  0.0040  0.3821
 1011YOPC   GL213946  18.250  11.640   6.349 -0.1148  0.0229  0.0834
 1011YOPC   C1A13947  17.877  11.920   6.508  0.1408 -0.1659  0.2754
 1011YOPC   D2A13948  17.961  11.912   6.918  0.3286 -0.1008  0.0568
 1011YOPC   C3A13949  17.917  12.003   7.300 -0.2945  0.0746  0.0322
 1011YOPC   C4A13950  17.740  12.352   7.511 -0.0740 -0.2024  0.1365
 1011YOPC   C1B13951  18.341  11.643   6.766 -0.2368 -0.2139  0.1700
 1011YOPC   C2B13952  18.178  11.557   7.211  0.2023 -0.1812 -0.0306
 1011YOPC   D3B13953  18.556  11.522   7.442  0.1710  0.3308  0.1991
 1011YOPC   C4B13954  18.692  11.680   7.913 -0.0738 -0.0675  0.4831
 1012YOPC   NC313955  18.178  14.942   5.726 -0.1727 -0.1383  0.0488
 1012YOPC   PO413956  17.730  14.846   5.868  0.1521 -0.0338 -0.0313
 1012YOPC   GL113957  17.647  14.697   6.181  0.2809  0.1169 -0.0889
 1012YOPC   GL213958  17.770  14.904   6.391  0.1113 -0.1297  0.0219
 1012YOPC   C1A13959  17.426  14.552   6.557  0.1929 -0.0739 -0.0242
 1012YOPC   D2A13960  17.327  14.588   6.971 -0.1251  0.2055  0.0716
 1012YOPC   C3A13961  17.341  14.504   7.386 -0.4111 -0.0921 -0.0677
 1012YOPC   C4A13962  17.618  14.634   7.725  0.0498  0.0421 -0.1463
 1012YOPC   C1B13963  17.700  14.975   6.899  0.0006  0.2402 -0.0638
 1012YOPC   C2B13964  17.795  14.825   7.300 -0.4143 -0.2943  0.0959
 1012YOPC   D3B13965  18.162  14.767   7.334 -0.1746  0.1067  0.1631
 1012YOPC   C4B13966  18.647  14.875   7.361 -0.0897  0.0381  0.1252
 1013YOPC   NC313967  15.107   7.140   5.699  0.0959 -0.1835 -0.0344
 1013YOPC   PO413968  14.869   7.459   5.734 -0.1884 -0.2253 -0.0328
 1013YOPC   GL113969  14.618   7.628   6.057  0.0339  0.0337  0.0625
 1013YOPC   GL213970  14.758   7.833   6.146  0.1286  0.0549  0.0880
 1013YOPC   C1A13971  14.350   7.698   6.431 -0.0533 -0.0899 -0.1253
 1013YOPC   D2A13972  14.471   7.447   6.862 -0.1729 -0.3099  0.2055
 1013YOPC   C3A13973  14.962   7.314   6.870 -0.0386 -0.0570 -0.2437
 1013YOPC   C4A13974  15.331   7.364   6.903  0.1436  0.1484 -0.0672
 1013YOPC   C1B13975  14.831   7.870   6.556 -0.0400 -0.0090 -0.0155
 1013YOPC   C2B13976  14.832   7.749   7.006  0.1740  0.0013 -0.1483
 1013YOPC   D3B13977  14.596   7.712   7.449 -0.0746  0.0341 -0.2358
 1013YOPC   C4B13978  14.340   7.774   7.698 -0.0687  0.0988 -0.1037
 1014YOPC   NC313979   0.810  11.789   5.402  0.4492 -0.2046  0.3434
 1014YOPC   PO413980   0.397  11.628   5.430  0.1193  0.0138 -0.1092
 1014YOPC   GL113981   0.529  11.391   5.799 -0.0964 -0.1863  0.1176
 1014YOPC   GL213982   0.471  11.589   6.147  0.2404 -0.0049  0.0739
 1014YOPC   C1A13983   0.460  10.886   6.021  0.0186 -0.0033  0.2671
 1014YOPC   D2A13984   0.580  10.528   6.100  0.1687 -0.0483  0.0140
 1014YOPC   C3A13985   0.971  10.505   6.090  0.0658 -0.1147 -0.0704
 1014YOPC   C4A13986   1.270  10.185   6.185  0.4103 -0.2503 -0.0974
 1014YOPC   C1B13987   0.483  11.382   6.545 -0.0885 -0.2676  0.0944
 1014YOPC   C2B13988   0.472  11.407   6.964  0.2348 -0.0185 -0.1154
 1014YOPC   D3B13989   0.505  10.992   7.221  0.3660  0.1802  0.1177
 1014YOPC   C4B13990   0.601  10.788   7.658  0.0182  0.0491  0.0835
 1015YOPC   NC313991   2.397  12.204   5.625  0.4166 -0.2010 -0.1392
 1015YOPC   PO413992   2.574  12.088   5.883 -0.1331 -0.2533  0.0198
 1015YOPC   GL113993   2.319  12.136   6.185  0.2557  0.3588  0.1031
 1015YOPC   GL213994   2.196  11.823   6.196  0.0393 -0.1276  0.0733
 1015YOPC   C1A13995   2.094  12.431   6.495  0.0228 -0.0127 -0.4150
 1015YOPC   D2A13996   2.097  12.625   6.879 -0.0929  0.1339  0.1968
 1015YOPC   C3A13997   2.334  12.586   7.201  0.2526  0.1823  0.1099
 1015YOPC   C4A13998   2.634  12.640   7.561  0.3169 -0.0757 -0.0137
 1015YOPC   C1B13999   2.049  11.938   6.618  0.0847  0.1904  0.0344
 1015YOPC   C2B14000   2.209  12.151   6.939  0.0494 -0.0512  0.1512
 1015YOPC   D3B14001   2.438  12.074   7.317  0.0217  0.2299  0.0192
 1015YOPC   C4B14002   2.682  11.898   7.668  0.4838  0.1332  0.1152
 1016YOPC   NC314003   5.355  14.278   5.267  0.1596 -0.0446 -0.0822
 1016YOPC   PO414004   5.497  14.615   5.663 -0.1366  0.3381 -0.0471
 1016YOPC   GL114005   5.426  14.651   6.116 -0.0554  0.1456 -0.1236
 1016YOPC   GL214006   5.204  14.399   6.237 -0.0445  0.0402 -0.1664
 1016YOPC   C1A14007   5.295  14.845   6.501 -0.1190  0.0901 -0.2575
 1016YOPC   D2A14008   5.268  14.916   6.903  0.2595 -0.2225  0.0083
 1016YOPC   C3A14009   5.609  15.185   7.019  0.1872  0.0613  0.0292
 1016YOPC   C4A14010   5.931  15.363   7.064 -0.0516 -0.1080 -0.1876
 1016YOPC   C1B14011   5.021  14.381   6.664 -0.2756 -0.1902  0.2864
 1016YOPC   C2B14012   5.135  14.402   7.119  0.2000 -0.1276  0.2449
 1016YOPC   D3B14013   5.501  14.381   7.226 -0.3029  0.0322  0.1396
 1016YOPC   C4B14014   5.908  14.415   7.478 -0.0639 -0.1853 -0.3846
 1017YOPC   NC314015   2.046   0.980   5.537 -0.1146  0.5453 -0.0387
 1017YOPC   PO414016   2.411   1.046   5.677  0.3632  0.2408 -0.1213
 1017YOPC   GL114017   2.393   0.851   6.060  0.1105  0.4888  0.1261
 1017YOPC   GL214018   2.509   1.067   6.183 -0.1108  0.1948  0.0137
 1017YOPC   C1A14019   2.207   0.517   6.283 -0.2113 -0.0327  0.1413
 1017YOPC   D2A14020   2.294   0.116   6.522 -0.0992  0.1363 -0.3641
 1017YOPC   C3A14021   2.366  -0.113   6.850 -0.1662 -0.2644 -0.3925
 1017YOPC   C4A14022   2.743  -0.134   6.988 -0.0742  0.0168 -0.2039
 1017YOPC   C1B14023   2.653   1.090   6.571 -0.2970 -0.1307 -0.0420
 1017YOPC   C2B14024   2.937   1.320   6.900  0.2547 -0.0505  0.0676
 1017YOPC   D3B14025   3.047   1.190   7.282 -0.1009  0.0502 -0.0869
 1017YOPC   C4B14026   3.430   1.059   7.449 -0.2196  0.1335  0.0025
 1018YOPC   NC314027   7.527  10.290   5.780  0.3685  0.0548 -0.1243
 1018YOPC   PO414028   8.029  10.341   5.787 -0.0983  0.2020 -0.1953
 1018YOPC   GL114029   8.160  10.171   6.128  0.2309 -0.0687 -0.2466
 1018YOPC   GL214030   8.018  10.338   6.478 -0.0222 -0.2521  0.2208
 1018YOPC   C1A14031   8.349   9.940   6.482  0.0564 -0.0498 -0.2568
 1018YOPC   D2A14032   8.408   9.867   6.902 -0.0240 -0.1100  0.1813
 1018YOPC   C3A14033   8.367   9.481   7.088 -0.4547  0.1543  0.1135
 1018YOPC   C4A14034   8.134   9.179   7.399  0.0213 -0.0141 -0.0186
 1018YOPC   C1B14035   8.014  10.200   6.975 -0.1017 -0.3513  0.0920
 1018YOPC   C2B14036   7.687  10.077   7.334  0.2692 -0.2141  0.0130
 1018YOPC   D3B14037   7.273  10.149   7.556 -0.0285 -0.0015  0.0832
 1018YOPC   C4B14038   6.997  10.169   7.931  0.0516 -0.1594  0.0502
 1019YOPC   NC314039  14.666  15.460   5.571  0.2087 -0.1522 -0.1533
 1019YOPC   PO414040  14.396  15.153   5.469  0.0932  0.1699  0.0526
 1019YOPC   GL114041  14.292  15.238   5.958  0.1180 -0.0494  0.1923
 1019YOPC   GL214042  14.067  15.484   6.094 -0.3092 -0.0921 -0.0755
 1019YOPC   C1A14043  14.186  14.805   6.188 -0.2265  0.1386  0.4538
 1019YOPC   D2A14044  14.220  14.347   6.327 -0.1543  0.2234  0.2642
 1019YOPC   C3A14045  13.982  14.419   6.614 -0.1081  0.0519 -0.2426
 1019YOPC   C4A14046  13.591  14.504   6.735  0.0484  0.2911 -0.0653
 1019YOPC   C1B14047  14.142  15.335   6.547 -0.1368 -0.0637  0.0868
 1019YOPC   C2B14048  14.148  15.253   6.906  0.0051  0.0128 -0.2358
 1019YOPC   D3B14049  14.144  14.840   7.007  0.0172  0.2103 -0.2464
 1019YOPC   C4B14050  13.990  14.466   7.091 -0.1077  0.0715 -0.3628
 1020YOPC   NC314051  15.216  12.046   5.440 -0.0852 -0.0721  0.1109
 1020YOPC   PO414052  15.025  12.398   5.647 -0.0739 -0.2238 -0.4551
 1020YOPC   GL114053  15.226  12.401   6.025  0.1776  0.0407 -0.0114
 1020YOPC   GL214054  15.210  12.740   6.139  0.1306  0.1161 -0.0846
 1020YOPC   C1A14055  15.151  12.400   6.504 -0.0942  0.0628 -0.1057
 1020YOPC   D2A14056  15.097  12.296   6.805 -0.1136 -0.0027 -0.1016
 1020YOPC   C3A14057  15.264  12.540   7.099  0.0449 -0.2401 -0.3829
 1020YOPC   C4A14058  15.536  12.729   7.427  0.1062  0.1505 -0.0596
 1020YOPC   C1B14059  15.526  12.896   6.330 -0.4090 -0.1973 -0.3680
 1020YOPC   C2B14060  15.690  12.751   6.643  0.1732  0.0407  0.2470
 1020YOPC   D3B14061  15.570  13.040   6.972  0.0311  0.3306 -0.1547
 1020YOPC   C4B14062  15.470  13.248   7.421  0.0241  0.2487 -0.0116
 1021YOPC   NC314063  15.172   6.362   5.705  0.5586 -0.3732 -0.0890
 1021YOPC   PO414064  14.757   6.641   5.750 -0.1181 -0.1709 -0.1288
 1021YOPC   GL114065  14.719   6.368   6.167 -0.1537 -0.2516  0.0085
 1021YOPC   GL214066  15.009   6.208   6.201  0.0540  0.2824 -0.1842
 1021YOPC   C1A14067  14.692   6.490   6.543 -0.0034  0.0129 -0.3077
 1021YOPC   D2A14068  14.492   6.586   6.904  0.0456  0.2563 -0.0108
 1021YOPC   C3A14069  14.550   7.013   7.039  0.0877  0.1140  0.1392
 1021YOPC   C4A14070  14.316   7.311   7.336  0.2616  0.1508  0.2736
 1021YOPC   C1B14071  15.025   6.113   6.636  0.0204 -0.0994  0.0665
 1021YOPC   C2B14072  15.053   6.429   6.973 -0.0427  0.1818  0.0393
 1021YOPC   D3B14073  14.791   6.591   7.346 -0.0477  0.0632  0.1848
 1021YOPC   C4B14074  14.554   6.910   7.633  0.0266  0.1223  0.3772
 1022YOPC   NC314075  13.066  16.657   5.858 -0.3935  0.2265 -0.0944
 1022YOPC   PO414076  13.158  16.223   5.712 -0.0233 -0.0994  0.0599
 1022YOPC   GL114077  13.260  16.168   6.177 -0.0878 -0.0153  0.0704
 1022YOPC   GL214078  13.549  15.856   6.245 -0.2456 -0.0720 -0.1262
 1022YOPC   C1A14079  13.382  16.125   6.643  0.0016 -0.1626 -0.2069
 1022YOPC   D2A14080  13.275  16.066   7.036  0.1074 -0.2019  0.2555
 1022YOPC   C3A14081  13.475  15.674   7.302  0.0638  0.3419 -0.0065
 1022YOPC   C4A14082  13.253  15.685   7.711 -0.0961 -0.1229 -0.2332
 1022YOPC   C1B14083  13.723  15.513   6.458  0.1085  0.1161 -0.0105
 1022YOPC   C2B14084  13.676  15.387   6.797  0.1056 -0.2861 -0.0225
 1022YOPC   D3B14085  13.750  15.291   7.180 -0.0939  0.0293  0.0345
 1022YOPC   C4B14086  13.960  15.007   7.454  0.2155 -0.0967  0.0871
 1023YOPC   NC314087   7.184   9.546   5.524  0.2151 -0.0934 -0.4152
 1023YOPC   PO414088   6.858   9.754   5.541 -0.0327  0.0214  0.1231
 1023YOPC   GL114089   6.939   9.552   5.984 -0.0634 -0.0480 -0.0661
 1023YOPC   GL214090   7.287   9.514   6.040  0.1787 -0.1398  0.1772
 1023YOPC   C1A14091   6.748   9.539   6.477  0.2097 -0.0179  0.2755
 1023YOPC   D2A14092   6.743   9.506   7.041  0.0070 -0.2431  0.1564
 1023YOPC   C3A14093   6.999   9.253   7.230  0.1524 -0.2111 -0.2141
 1023YOPC   C4A14094   7.275   9.219   7.652  0.0183 -0.2485 -0.1286
 1023YOPC   C1B14095   7.169   9.154   6.319  0.1596  0.0953 -0.0719
 1023YOPC   C2B14096   7.125   8.754   6.553  0.1479  0.2631  0.2153
 1023YOPC   D3B14097   7.107   8.732   6.954  0.3003  0.3633 -0.2148
 1023YOPC   C4B14098   7.146   8.794   7.350 -0.1499 -0.0231  0.2435
 1024YOPC   NC314099   1.377  17.800   5.416 -0.0319 -0.0711  0.1513
 1024YOPC   PO414100   1.546  17.475   5.482  0.1163  0.2629 -0.1516
 1024YOPC   GL114101   1.269  17.274   5.838 -0.0958  0.0229 -0.0717
 1024YOPC   GL214102   1.398  17.347   6.241  0.1943 -0.2461  0.1442
 1024YOPC   C1A14103   1.111  16.950   6.285 -0.2464  0.0392 -0.1713
 1024YOPC   D2A14104   0.712  16.699   6.421 -0.2172 -0.1525 -0.2040
 1024YOPC   C3A14105   0.451  16.595   6.106 -0.1928  0.0341 -0.1600
 1024YOPC   C4A14106   0.379  16.378   5.819 -0.2495 -0.1205  0.1380
 1024YOPC   C1B14107   1.341  17.227   6.714  0.1033  0.1362  0.0168
 1024YOPC   C2B14108   1.261  17.118   7.225 -0.0922  0.2228 -0.1533
 1024YOPC   D3B14109   1.343  16.904   7.550 -0.0839 -0.0859  0.1897
 1024YOPC   C4B14110   1.172  16.824   7.907 -0.0446  0.0530 -0.0644
 1025YOPC   NC314111  11.812  17.682   6.048 -0.1044 -0.1402  0.0183
 1025YOPC   PO414112  12.037  18.011   6.300 -0.0356  0.1179 -0.0458
 1025YOPC   GL114113  11.911  18.054   6.663  0.0637 -0.1645 -0.0787
 1025YOPC   GL214114  12.003  18.354   6.687 -0.2169  0.0706  0.0109
 1025YOPC   C1A14115  12.053  18.147   7.108  0.1131 -0.0438  0.3875
 1025YOPC   D2A14116  12.062  18.248   7.495 -0.3952 -0.0495 -0.1783
 1025YOPC   C3A14117  12.355  18.521   7.726  0.0343 -0.0347  0.0686
 1025YOPC   C4A14118  12.430  18.809   8.085 -0.0573  0.2422  0.2139
 1025YOPC   C1B14119  12.047  18.648   7.124  0.1341 -0.1563 -0.1476
 1025YOPC   C2B14120  11.969  18.722   7.504  0.5284 -0.3527 -0.0179
 1025YOPC   D3B14121  12.153  19.050   7.801 -0.0237 -0.0102 -0.1344
 1025YOPC   C4B14122  11.824  19.445   8.022  0.1702 -0.1630 -0.1741
 1026YOPC   NC314123   1.281  12.271   5.956 -0.0279 -0.2073 -0.1360
 1026YOPC   PO414124   0.914  12.227   5.740 -0.1186  0.3977  0.0804
 1026YOPC   GL114125   0.800  12.162   6.182 -0.0324  0.0652 -0.0136
 1026YOPC   GL214126   0.904  12.433   6.292  0.0264 -0.0877 -0.3223
 1026YOPC   C1A14127   0.549  11.897   6.519  0.1795 -0.1126 -0.0105
 1026YOPC   D2A14128   0.700  11.885   6.935 -0.0131 -0.0327  0.0593
 1026YOPC   C3A14129   0.761  11.643   7.333  0.1832 -0.2578  0.2685
 1026YOPC   C4A14130   0.690  11.314   7.627 -0.0635 -0.0037  0.0769
 1026YOPC   C1B14131   0.751  12.335   6.717  0.0565 -0.3531  0.0527
 1026YOPC   C2B14132   0.721  12.312   7.184 -0.1092 -0.0689 -0.1232
 1026YOPC   D3B14133   0.475  12.619   7.441 -0.1518  0.0612 -0.1070
 1026YOPC   C4B14134   0.608  12.871   7.847  0.0574 -0.0410  0.1578
 1027YOPC   NC314135  14.043  13.432   5.554 -0.0100 -0.0813  0.0202
 1027YOPC   PO414136  14.240  13.811   5.617  0.1448  0.1461 -0.0525
 1027YOPC   GL114137  14.563  13.757   6.023  0.3016 -0.3206  0.0003
 1027YOPC   GL214138  14.760  13.992   6.100 -0.0084 -0.0969 -0.0872
 1027YOPC   C1A14139  14.720  13.592   6.408 -0.1813 -0.1298  0.2757
 1027YOPC   D2A14140  14.665  13.699   6.771 -0.0650  0.1588  0.1627
 1027YOPC   C3A14141  14.401  13.571   6.961  0.3690  0.2670 -0.3777
 1027YOPC   C4A14142  14.100  13.622   7.234 -0.0855 -0.0550  0.0840
 1027YOPC   C1B14143  14.584  14.050   6.434  0.1256  0.0726 -0.0519
 1027YOPC   C2B14144  14.516  14.161   6.851  0.0864 -0.5790  0.0714
 1027YOPC   D3B14145  14.377  14.071   7.231 -0.0716  0.0385  0.0434
 1027YOPC   C4B14146  13.951  14.035   7.493 -0.1763 -0.2078 -0.2152
 1028YOPC   NC314147  12.360   5.599   5.837  0.0247  0.1673  0.0057
 1028YOPC   PO414148  12.488   5.257   6.127 -0.0855 -0.0107 -0.1122
 1028YOPC   GL114149  12.518   5.500   6.486 -0.1476  0.1092 -0.0639
 1028YOPC   GL214150  12.220   5.454   6.619  0.2516  0.0702 -0.1276
 1028YOPC   C1A14151  12.692   5.689   6.911 -0.0912 -0.1372  0.0760
 1028YOPC   D2A14152  12.749   5.787   7.326 -0.1082  0.1011 -0.0199
 1028YOPC   C3A14153  12.864   6.132   7.515  0.0547  0.3175 -0.3185
 1028YOPC   C4A14154  12.811   6.217   7.964 -0.1489  0.0902 -0.1019
 1028YOPC   C1B14155  12.211   5.477   7.144 -0.0509  0.2158  0.0157
 1028YOPC   C2B14156  12.176   5.588   7.490  0.0078  0.1441  0.0394
 1028YOPC   D3B14157  11.934   5.274   7.828 -0.2260  0.3909  0.1242
 1028YOPC   C4B14158  11.769   4.824   7.876 -0.0558  0.0114  0.0485
 1029YOPC   NC314159   3.140   1.614   5.633 -0.1859 -0.0088  0.1702
 1029YOPC   PO414160   3.233   1.919   5.900 -0.1998  0.1525  0.2566
 1029YOPC   GL114161   3.353   1.912   6.328  0.2762 -0.1027 -0.2089
 1029YOPC   GL214162   3.633   1.843   6.314  0.0276 -0.1134 -0.1300
 1029YOPC   C1A14163   3.607   2.128   6.757 -0.2861  0.1905  0.2206
 1029YOPC   D2A14164   3.607   2.111   7.161  0.1434  0.1803  0.3051
 1029YOPC   C3A14165   4.016   1.800   7.137 -0.1332 -0.0100  0.1866
 1029YOPC   C4A14166   4.480   1.739   7.167 -0.2113  0.1729  0.0567
 1029YOPC   C1B14167   3.874   1.707   6.648 -0.0155 -0.1635 -0.1006
 1029YOPC   C2B14168   3.849   1.382   6.867  0.1739  0.1773 -0.1314
 1029YOPC   D3B14169   4.083   1.343   7.237 -0.2483  0.0220 -0.0355
 1029YOPC   C4B14170   4.185   1.593   7.608 -0.0758  0.1269 -0.0828
 1030YOPC   NC314171  14.946  16.179   5.790 -0.1647 -0.2974  0.1433
 1030YOPC   PO414172  15.162  16.387   6.109 -0.3476  0.0523  0.1977
 1030YOPC   GL114173  15.390  16.223   6.366 -0.0910 -0.0479 -0.0660
 1030YOPC   GL214174  15.563  15.922   6.396 -0.0093 -0.0263  0.1597
 1030YOPC   C1A14175  15.319  16.154   6.778  0.0804 -0.0538 -0.1301
 1030YOPC   D2A14176  15.202  16.435   7.088  0.0072 -0.1441  0.2543
 1030YOPC   C3A14177  15.324  16.268   7.513  0.0287 -0.0994  0.2672
 1030YOPC   C4A14178  15.414  16.229   7.860  0.0483  0.0938  0.0081
 1030YOPC   C1B14179  15.538  15.554   6.723 -0.1729 -0.0208 -0.1158
 1030YOPC   C2B14180  15.410  15.321   7.132 -0.0893  0.0388  0.0247
 1030YOPC   D3B14181  15.551  14.862   7.245  0.0025 -0.2581 -0.2375
 1030YOPC   C4B14182  15.530  14.593   7.643  0.2173  0.1562 -0.1471
 1031YOPC   NC314183   3.427  12.694   6.029  0.1994 -0.1301 -0.0744
 1031YOPC   PO414184   2.988  12.663   6.234  0.0645  0.1739  0.1101
 1031YOPC   GL114185   2.919  12.716   6.686 -0.0143 -0.5049 -0.1518
 1031YOPC   GL214186   2.579  12.507   6.650  0.1076  0.2358 -0.0664
 1031YOPC   C1A14187   2.954  12.743   7.144 -0.1634  0.2400 -0.1305
 1031YOPC   D2A14188   3.213  12.683   7.592 -0.2568 -0.0046 -0.1718
 1031YOPC   C3A14189   3.503  12.394   7.728 -0.0849 -0.1043 -0.2013
 1031YOPC   C4A14190   3.748  12.161   7.858 -0.0402  0.0976 -0.1834
 1031YOPC   C1B14191   2.720  12.341   7.003 -0.0093 -0.0190  0.0979
 1031YOPC   C2B14192   3.028  12.305   7.344 -0.0451 -0.3752 -0.0335
 1031YOPC   D3B14193   2.926  12.321   7.847  0.0073 -0.1034 -0.3420
 1031YOPC   C4B14194   3.015  12.691   8.140 -0.0314 -0.0271  0.1422
 1032YOPC   NC314195  14.628  11.223   5.551  0.0846  0.0150 -0.2828
 1032YOPC   PO414196  14.481  11.527   5.360 -0.1162  0.1345  0.0588
 1032YOPC   GL114197  14.610  11.577   5.881 -0.1015  0.2208 -0.3690
 1032YOPC   GL214198  14.452  11.635   6.070 -0.0845 -0.0018 -0.1659
 1032YOPC   C1A14199  14.574  11.130   6.219  0.1447  0.1747  0.0740
 1032YOPC   D2A14200  14.756  11.030   6.629 -0.2382 -0.1797  0.2340
 1032YOPC   C3A14201  14.567  11.145   6.984  0.0634 -0.0115  0.0587
 1032YOPC   C4A14202  14.501  11.199   7.382  0.1154  0.1578  0.2035
 1032YOPC   C1B14203  14.461  11.493   6.528  0.2829 -0.2545  0.0627
 1032YOPC   C2B14204  14.468  11.627   7.026 -0.0488 -0.0246 -0.2434
 1032YOPC   D3B14205  14.182  11.814   7.281 -0.0892  0.1608 -0.1071
 1032YOPC   C4B14206  13.703  11.759   7.390  0.2309  0.0157  0.1823
 1033YOPC   NC314207  10.220   9.956   5.408 -0.1720  0.2218  0.0272
 1033YOPC   PO414208  10.005  10.238   5.642 -0.2271 -0.1424  0.1847
 1033YOPC   GL114209  10.101   9.879   5.898 -0.1218 -0.0662 -0.0079
 1033YOPC   GL214210  10.362   9.755   6.002  0.0579  0.0265  0.0597
 1033YOPC   C1A14211   9.929   9.599   6.204 -0.1088 -0.1828  0.1251
 1033YOPC   D2A14212   9.716   9.430   6.505 -0.2975 -0.0427 -0.3439
 1033YOPC   C3A14213   9.863   9.577   6.954 -0.2557  0.2521 -0.2197
 1033YOPC   C4A14214   9.851   9.691   7.427 -0.0625 -0.0011  0.1069
 1033YOPC   C1B14215  10.366  10.091   6.316 -0.0324 -0.1277  0.0917
 1033YOPC   C2B14216  10.412  10.477   6.511 -0.0452  0.1481 -0.1497
 1033YOPC   D3B14217  10.608  10.425   6.974  0.0749  0.0401 -0.2822
 1033YOPC   C4B14218  10.622  10.369   7.352 -0.1729  0.0734 -0.0506
 1034YOPC   NC314219   8.966   3.338   5.593  0.2518  0.1089 -0.1985
 1034YOPC   PO414220   9.218   3.314   5.965  0.0321 -0.2128  0.0311
 1034YOPC   GL114221   9.437   3.277   6.332 -0.2543 -0.1023  0.0113
 1034YOPC   GL214222   9.279   3.201   6.593  0.5459 -0.0858 -0.0352
 1034YOPC   C1A14223   9.755   3.208   6.711 -0.1706 -0.2424 -0.1276
 1034YOPC   D2A14224  10.169   3.193   6.915  0.0821 -0.0032 -0.0125
 1034YOPC   C3A14225  10.149   3.229   7.418 -0.2380 -0.1972 -0.2647
 1034YOPC   C4A14226  10.262   3.337   7.740  0.0604  0.2503  0.0858
 1034YOPC   C1B14227   9.368   3.348   6.931  0.1810  0.3315 -0.0659
 1034YOPC   C2B14228   9.264   3.576   7.179 -0.2235  0.0135 -0.1363
 1034YOPC   D3B14229   9.399   3.422   7.626 -0.0113  0.1852  0.1705
 1034YOPC   C4B14230   9.719   3.068   7.727  0.2411 -0.1430  0.0870
 1035YOPC   NC314231  17.645   1.793   5.869 -0.3207 -0.0969 -0.4551
 1035YOPC   PO414232  17.834   2.187   5.677  0.0895  0.1746 -0.2204
 1035YOPC   GL114233  17.794   2.299   6.055 -0.1640  0.0317 -0.4190
 1035YOPC   GL214234  18.031   2.107   6.240 -0.1224 -0.1242  0.0697
 1035YOPC   C1A14235  17.663   2.432   6.423  0.0189 -0.2532 -0.1866
 1035YOPC   D2A14236  17.692   2.392   6.851 -0.1069 -0.1057  0.2536
 1035YOPC   C3A14237  17.700   2.382   7.292  0.0112  0.2993 -0.0510
 1035YOPC   C4A14238  17.827   2.563   7.682  0.0704 -0.3072  0.0551
 1035YOPC   C1B14239  18.140   2.311   6.629  0.1603  0.2186 -0.0486
 1035YOPC   C2B14240  18.223   2.461   6.994  0.0682  0.1090 -0.1460
 1035YOPC   D3B14241  18.161   2.313   7.414  0.0498 -0.1502 -0.2008
 1035YOPC   C4B14242  17.987   2.103   7.820  0.2316  0.0912 -0.3153
 1036YOPC   NC314243  11.576  12.830   5.754 -0.0396 -0.0820 -0.1345
 1036YOPC   PO414244  11.354  13.024   6.069  0.0573 -0.0338  0.1448
 1036YOPC   GL114245  11.175  13.205   6.505  0.0328 -0.0999 -0.0781
 1036YOPC   GL214246  10.839  13.111   6.590 -0.2696 -0.0590  0.1643
 1036YOPC   C1A14247  11.244  13.090   6.938 -0.2408 -0.1085  0.2343
 1036YOPC   D2A14248  11.187  12.982   7.365 -0.0621  0.2036  0.0885
 1036YOPC   C3A14249  11.262  13.407   7.600 -0.0725 -0.0164 -0.1618
 1036YOPC   C4A14250  11.276  13.848   7.458 -0.1489  0.1183 -0.2311
 1036YOPC   C1B14251  10.784  12.872   6.977 -0.0680 -0.1355  0.1326
 1036YOPC   C2B14252  10.726  12.962   7.260  0.1019  0.2300  0.1527
 1036YOPC   D3B14253  10.255  12.932   7.358 -0.0507  0.0152 -0.0715
 1036YOPC   C4B14254   9.973  12.930   7.766  0.1057  0.0526 -0.0025
 1037YOPC   NC314255   6.901   4.371   5.177  0.1236  0.0452  0.0029
 1037YOPC   PO414256   6.934   4.287   5.597  0.0479 -0.3072 -0.1324
 1037YOPC   GL114257   6.883   4.283   6.039 -0.0854 -0.2019  0.0848
 1037YOPC   GL214258   7.026   4.361   6.203 -0.0976  0.1056  0.2140
 1037YOPC   C1A14259   6.752   3.920   6.255 -0.0224 -0.1250 -0.1665
 1037YOPC   D2A14260   6.445   3.738   6.479  0.1738  0.1080  0.3654
 1037YOPC   C3A14261   6.288   3.901   6.934  0.1975 -0.0819 -0.1964
 1037YOPC   C4A14262   5.919   3.883   7.239 -0.0537  0.1127 -0.0308
 1037YOPC   C1B14263   7.006   4.569   6.548 -0.1202 -0.1184 -0.0135
 1037YOPC   C2B14264   6.807   4.711   6.936  0.4099 -0.0712  0.1094
 1037YOPC   D3B14265   6.584   4.668   7.370  0.3550 -0.1244 -0.1954
 1037YOPC   C4B14266   6.331   4.487   7.736 -0.1845  0.0817  0.0803
 1038YOPC   NC314267   7.123  12.143   5.935 -0.2716 -0.0734  0.0586
 1038YOPC   PO414268   7.469  12.409   5.879 -0.2054 -0.0142  0.0526
 1038YOPC   GL114269   7.156  12.587   6.264 -0.2764  0.2428 -0.1126
 1038YOPC   GL214270   7.456  12.804   6.292  0.2848  0.0725  0.1376
 1038YOPC   C1A14271   7.004  12.588   6.753  0.1536 -0.0261 -0.0756
 1038YOPC   D2A14272   7.095  12.651   7.126 -0.0269  0.1352 -0.0723
 1038YOPC   C3A14273   6.832  12.524   7.515 -0.0615  0.1524 -0.1563
 1038YOPC   C4A14274   6.493  12.313   7.312  0.0129  0.1251 -0.1157
 1038YOPC   C1B14275   7.497  12.833   6.814 -0.1375 -0.0570 -0.0435
 1038YOPC   C2B14276   7.605  12.834   7.277 -0.1146 -0.0192 -0.0090
 1038YOPC   D3B14277   7.355  12.624   7.603  0.0543  0.0041 -0.2350
 1038YOPC   C4B14278   7.403  12.412   7.928 -0.2471 -0.1170  0.0979
 1039YOPC   NC314279   3.055   3.080   5.654 -0.0357  0.1843 -0.0451
 1039YOPC   PO414280   3.192   2.762   6.024  0.1275  0.1830 -0.0776
 1039YOPC   GL114281   2.918   2.596   6.356  0.0814 -0.3421 -0.0850
 1039YOPC   GL214282   2.690   2.462   6.310 -0.0693  0.0684 -0.0971
 1039YOPC   C1A14283   2.746   2.662   6.784 -0.2346  0.3950 -0.1723
 1039YOPC   D2A14284   2.717   2.417   7.143  0.1577  0.1021  0.0180
 1039YOPC   C3A14285   2.819   2.451   7.596  0.1408 -0.0458 -0.0406
 1039YOPC   C4A14286   2.724   2.175   7.952 -0.0594 -0.0374 -0.1908
 1039YOPC   C1B14287   2.474   2.227   6.670 -0.1248  0.2770  0.2353
 1039YOPC   C2B14288   2.319   1.863   6.905 -0.4603  0.2316 -0.4189
 1039YOPC   D3B14289   2.113   1.717   7.215  0.1882 -0.0233  0.0046
 1039YOPC   C4B14290   1.981   1.439   7.475  0.0602 -0.1267 -0.0345
 1040YOPC   NC314291   3.795   1.522   5.804  0.3334 -0.0954  0.2778
 1040YOPC   PO414292   3.593   1.131   5.774 -0.1855 -0.0114  0.0870
 1040YOPC   GL114293   3.584   1.074   6.183 -0.2632  0.1059 -0.2697
 1040YOPC   GL214294   3.564   1.294   6.462  0.1020 -0.0122  0.0081
 1040YOPC   C1A14295   3.439   0.794   6.485 -0.1471 -0.2694  0.0323
 1040YOPC   D2A14296   3.262   0.422   6.628 -0.0033  0.2718  0.1119
 1040YOPC   C3A14297   3.017   0.339   7.000 -0.2777  0.2277 -0.0336
 1040YOPC   C4A14298   2.759   0.246   7.329  0.4861  0.0481 -0.1600
 1040YOPC   C1B14299   3.458   1.136   6.909  0.2380  0.1574 -0.0017
 1040YOPC   C2B14300   3.394   0.717   7.066  0.0338  0.0277  0.1611
 1040YOPC   D3B14301   3.090   0.665   7.366  0.2120  0.0183  0.2284
 1040YOPC   C4B14302   3.064   0.790   7.783 -0.3357  0.5537 -0.1557
 1041YOPC   NC314303  14.362   8.886   5.605 -0.0759 -0.0586 -0.1571
 1041YOPC   PO414304  14.449   9.283   5.831  0.0185 -0.3370  0.0820
 1041YOPC   GL114305  14.555   9.227   6.171 -0.0036 -0.0216  0.3479
 1041YOPC   GL214306  14.225   9.238   6.409  0.1496 -0.0312  0.0346
 1041YOPC   C1A14307  14.750   9.292   6.532 -0.0909 -0.1582 -0.0447
 1041YOPC   D2A14308  14.664   9.247   6.893 -0.1075  0.1339  0.2531
 1041YOPC   C3A14309  14.587   9.266   7.369  0.2052  0.2273 -0.2405
 1041YOPC   C4A14310  14.559   9.100   7.823  0.2946  0.0658 -0.1574
 1041YOPC   C1B14311  14.026   9.620   6.596  0.0658 -0.0008 -0.0369
 1041YOPC   C2B14312  13.919   9.697   7.102 -0.3896 -0.1076  0.1711
 1041YOPC   D3B14313  13.803   9.390   7.354 -0.0212  0.2832 -0.2085
 1041YOPC   C4B14314  14.002   9.129   7.680  0.1359  0.0699  0.1197
 1042YOPC   NC314315   5.638   3.550   5.868 -0.3359 -0.2083 -0.1452
 1042YOPC   PO414316   5.242   3.303   5.824  0.0308 -0.3165  0.3754
 1042YOPC   GL114317   5.054   3.388   6.109  0.0479 -0.0834 -0.2547
 1042YOPC   GL214318   4.805   3.689   6.126  0.0322 -0.0662  0.0426
 1042YOPC   C1A14319   5.022   3.407   6.563 -0.1447 -0.0057 -0.0420
 1042YOPC   D2A14320   4.923   3.517   7.027  0.1629  0.1136 -0.0156
 1042YOPC   C3A14321   5.031   3.215   7.290 -0.0177 -0.2805  0.0777
 1042YOPC   C4A14322   5.144   2.856   7.405 -0.0621 -0.0041  0.1302
 1042YOPC   C1B14323   4.680   3.761   6.506  0.0180  0.1679 -0.0011
 1042YOPC   C2B14324   4.578   3.956   6.864 -0.4236 -0.0538 -0.1997
 1042YOPC   D3B14325   4.507   3.810   7.178  0.1622  0.0249 -0.1158
 1042YOPC   C4B14326   4.447   3.842   7.561  0.1130 -0.1750  0.2925
 1043YOPC   NC314327   6.894  11.066   5.908 -0.0100  0.1445  0.0325
 1043YOPC   PO414328   7.304  11.074   6.053 -0.3147 -0.0819 -0.0756
 1043YOPC   GL114329   7.204  10.998   6.428 -0.2355 -0.0937 -0.3138
 1043YOPC   GL214330   7.011  11.230   6.566  0.0572 -0.1447 -0.0427
 1043YOPC   C1A14331   7.170  10.896   6.904 -0.1388  0.0752  0.3803
 1043YOPC   D2A14332   7.367  10.905   7.250  0.2368 -0.1374 -0.1076
 1043YOPC   C3A14333   7.579  10.789   7.575  0.3679  0.4311 -0.1015
 1043YOPC   C4A14334   7.906  10.700   7.821  0.0587 -0.0008 -0.3206
 1043YOPC   C1B14335   6.977  11.327   6.947 -0.0988  0.0938 -0.1070
 1043YOPC   C2B14336   6.940  11.156   7.386  0.2662  0.0027 -0.0908
 1043YOPC   D3B14337   7.080  10.989   7.772  0.0598 -0.0631 -0.1579
 1043YOPC   C4B14338   7.272  10.609   7.965  0.0278 -0.2409  0.0154
 1044YOPC   NC314339  10.907   2.730   5.951 -0.0484 -0.0328 -0.0580
 1044YOPC   PO414340  10.442   2.796   5.874 -0.0246  0.0643 -0.0008
 1044YOPC   GL114341  10.528   2.678   6.288 -0.0331  0.2587 -0.1736
 1044YOPC   GL214342  10.738   2.385   6.416 -0.3004 -0.2837  0.2798
 1044YOPC   C1A14343  10.259   2.770   6.700 -0.5791 -0.3146  0.0271
 1044YOPC   D2A14344   9.850   2.712   6.968 -0.1697  0.0341  0.1394
 1044YOPC   C3A14345   9.790   3.064   7.200  0.0687 -0.0588  0.1766
 1044YOPC   C4A14346   9.741   3.486   7.247  0.0421  0.2878  0.3973
 1044YOPC   C1B14347  10.736   2.601   6.812 -0.3999 -0.1610 -0.0086
 1044YOPC   C2B14348  10.742   2.611   7.302  0.0870  0.0427 -0.1965
 1044YOPC   D3B14349  10.429   2.394   7.559  0.1564 -0.1497 -0.0866
 1044YOPC   C4B14350  10.217   2.239   7.964 -0.2035 -0.0792 -0.0980
 1045YOPC   NC314351  13.750  16.899   5.457 -0.1659  0.0923  0.1345
 1045YOPC   PO414352  13.522  16.866   5.846  0.0918 -0.1390  0.1939
 1045YOPC   GL114353  13.459  16.754   6.241  0.3017  0.1010 -0.1541
 1045YOPC   GL214354  13.646  16.501   6.432  0.0380 -0.0918  0.0393
 1045YOPC   C1A14355  13.128  16.611   6.592 -0.1851  0.1117 -0.0079
 1045YOPC   D2A14356  13.024  16.585   6.977 -0.0597 -0.2097  0.1794
 1045YOPC   C3A14357  13.235  16.511   7.402 -0.1146  0.0224 -0.0647
 1045YOPC   C4A14358  13.295  16.318   7.765 -0.0166  0.0556  0.2450
 1045YOPC   C1B14359  13.549  16.630   6.837 -0.1090 -0.0833  0.3150
 1045YOPC   C2B14360  13.630  16.756   7.224 -0.2083  0.0305 -0.0694
 1045YOPC   D3B14361  13.663  16.642   7.709  0.1678 -0.1686  0.0177
 1045YOPC   C4B14362  13.461  16.615   8.128  0.0684  0.0090 -0.2395
 1046YOPC   NC314363   4.334  17.649   5.864 -0.0410 -0.2591 -0.3945
 1046YOPC   PO414364   4.632  17.793   6.019  0.0553 -0.0727  0.0424
 1046YOPC   GL114365   4.544  17.799   6.384 -0.1713 -0.3578 -0.1277
 1046YOPC   GL214366   4.566  18.100   6.441 -0.2666 -0.1635  0.1490
 1046YOPC   C1A14367   4.542  17.792   6.845  0.0364 -0.3184 -0.1627
 1046YOPC   D2A14368   4.508  17.959   7.280 -0.0459  0.1560 -0.0961
 1046YOPC   C3A14369   4.515  18.333   7.535  0.1639 -0.2372  0.2550
 1046YOPC   C4A14370   4.701  18.542   7.793 -0.1806  0.1647  0.1226
 1046YOPC   C1B14371   4.512  18.278   6.894  0.1736  0.4132  0.1901
 1046YOPC   C2B14372   4.206  18.633   7.006 -0.0817 -0.0282 -0.0151
 1046YOPC   D3B14373   3.818  18.673   7.169  0.0344 -0.0365 -0.2699
 1046YOPC   C4B14374   3.561  18.826   7.488  0.2499  0.1788  0.0496
 1047YOPC   NC314375   2.678  15.581   5.820  0.1631  0.4996 -0.1606
 1047YOPC   PO414376   2.976  15.881   5.824 -0.5634  0.0758 -0.1046
 1047YOPC   GL114377   2.818  15.968   6.275  0.1662 -0.1588 -0.1983
 1047YOPC   GL214378   2.529  16.092   6.575 -0.0240 -0.0703 -0.0668
 1047YOPC   C1A14379   2.885  15.760   6.662  0.2225  0.2090  0.0991
 1047YOPC   D2A14380   2.924  15.741   7.145 -0.0571  0.1828 -0.2271
 1047YOPC   C3A14381   2.567  15.833   7.437  0.0112 -0.0401  0.1254
 1047YOPC   C4A14382   2.616  16.016   7.831 -0.0247  0.1919 -0.2766
 1047YOPC   C1B14383   2.101  16.211   6.392 -0.1754  0.1114  0.0066
 1047YOPC   C2B14384   1.693  16.337   6.500 -0.2504 -0.1004 -0.1753
 1047YOPC   D3B14385   1.644  16.273   6.900  0.1321 -0.0411 -0.1238
 1047YOPC   C4B14386   1.601  15.827   7.091 -0.0381  0.2735 -0.0482
 1048YOPC   NC314387   4.861   0.516   5.835 -0.2687 -0.0137  0.0570
 1048YOPC   PO414388   4.686   0.240   6.012  0.3641  0.0633  0.0645
 1048YOPC   GL114389   4.717   0.294   6.365 -0.2368 -0.2598  0.0643
 1048YOPC   GL214390   4.980   0.440   6.401 -0.0589  0.0704  0.3286
 1048YOPC   C1A14391   4.671   0.444   6.790 -0.0930  0.2525 -0.2464
 1048YOPC   D2A14392   4.747   0.378   7.217 -0.0719  0.1241 -0.1902
 1048YOPC   C3A14393   4.815   0.802   7.490  0.4090 -0.1470  0.0109
 1048YOPC   C4A14394   5.107   1.168   7.509  0.4144 -0.2389 -0.0700
 1048YOPC   C1B14395   5.187   0.540   6.901 -0.3727 -0.2503  0.1395
 1048YOPC   C2B14396   5.187   0.540   7.338 -0.2553 -0.0822 -0.1979
 1048YOPC   D3B14397   5.137   0.181   7.567 -0.1229  0.0393 -0.1236
 1048YOPC   C4B14398   4.899  -0.172   7.767 -0.2369  0.1339 -0.4812
 1049YOPC   NC314399   4.008   2.382   5.877  0.2341 -0.0424 -0.0497
 1049YOPC   PO414400   3.924   2.002   5.882 -0.1249 -0.2043 -0.0973
 1049YOPC   GL114401   4.162   1.734   6.145 -0.3046 -0.1215  0.3460
 1049YOPC   GL214402   4.287   1.747   6.409 -0.0534 -0.0056 -0.0410
 1049YOPC   C1A14403   4.078   1.310   6.367 -0.0694 -0.3287  0.0957
 1049YOPC   D2A14404   4.004   0.962   6.429 -0.2386  0.0206  0.1435
 1049YOPC   C3A14405   4.273   0.622   6.550 -0.1906 -0.2396  0.0638
 1049YOPC   C4A14406   4.246   0.160   6.508  0.0269  0.0062 -0.3525
 1049YOPC   C1B14407   4.306   1.520   6.764  0.1435 -0.2651 -0.2471
 1049YOPC   C2B14408   4.366   1.080   6.773  0.1874 -0.3452  0.0112
 1049YOPC   D3B14409   4.439   0.818   7.066 -0.2256  0.2037 -0.0452
 1049YOPC   C4B14410   4.311   0.561   7.421  0.2298  0.2926 -0.0064
 1050YOPC   NC314411   6.843  14.392   6.005  0.3705 -0.2191 -0.2969
 1050YOPC   PO414412   6.901  13.940   6.035 -0.0607 -0.0400 -0.1223
 1050YOPC   GL114413   7.080  13.575   6.210  0.0122  0.0947 -0.0595
 1050YOPC   GL214414   6.815  13.454   6.380 -0.2097  0.0297  0.0588
 1050YOPC   C1A14415   7.242  13.254   6.521 -0.2334  0.0021  0.4102
 1050YOPC   D2A14416   7.356  13.323   6.905  0.0598  0.0939  0.0701
 1050YOPC   C3A14417   7.214  13.196   7.321  0.1977  0.1853  0.2005
 1050YOPC   C4A14418   7.448  13.149   7.706  0.2870  0.0031 -0.0746
 1050YOPC   C1B14419   6.669  13.777   6.690  0.1379  0.1309  0.0356
 1050YOPC   C2B14420   6.750  14.072   6.980 -0.3553  0.1910 -0.0591
 1050YOPC   D3B14421   6.400  14.162   7.342  0.1232 -0.2023 -0.0759
 1050YOPC   C4B14422   6.395  14.267   7.868 -0.1073  0.2312  0.0314
 1051YOPC   NC314423  15.965  12.062   5.473  0.1399  0.0222  0.0170
 1051YOPC   PO414424  15.641  11.856   5.584  0.0937 -0.2825  0.2049
 1051YOPC   GL114425  15.365  11.920   5.941  0.1328  0.1065 -0.0420
 1051YOPC   GL214426  15.022  11.830   5.932 -0.1411  0.1430 -0.0342
 1051YOPC   C1A14427  15.222  11.897   6.411 -0.2248 -0.0768 -0.0086
 1051YOPC   D2A14428  15.387  11.780   6.736 -0.1527 -0.0427  0.0835
 1051YOPC   C3A14429  15.246  11.887   7.101  0.0430  0.1862 -0.1568
 1051YOPC   C4A14430  15.450  11.701   7.408 -0.0058  0.0949  0.3188
 1051YOPC   C1B14431  14.898  11.502   6.272 -0.0780  0.2305 -0.3791
 1051YOPC   C2B14432  15.075  11.386   6.628 -0.0070  0.1379  0.0494
 1051YOPC   D3B14433  14.939  11.453   7.032  0.0832  0.1283  0.2960
 1051YOPC   C4B14434  14.765  11.625   7.441  0.2968 -0.1297 -0.2371
 1052YOPC   NC314435  13.704   9.366   5.888  0.3091 -0.3182 -0.1354
 1052YOPC   PO414436  13.231   9.381   6.001  0.0031  0.3731 -0.0916
 1052YOPC   GL114437  13.170   9.277   6.286 -0.0222 -0.2451 -0.2270
 1052YOPC   GL214438  13.049   9.036   6.268 -0.0402  0.2392 -0.0339
 1052YOPC   C1A14439  13.123   9.290   6.742 -0.2187 -0.1541  0.0643
 1052YOPC   D2A14440  12.809   9.455   7.083  0.0494 -0.1212 -0.0318
 1052YOPC   C3A14441  12.460   9.153   7.320 -0.1869  0.1620  0.1129
 1052YOPC   C4A14442  12.314   8.728   7.105  0.1657 -0.0508  0.0724
 1052YOPC   C1B14443  13.186   8.806   6.698  0.2661  0.0460 -0.1150
 1052YOPC   C2B14444  13.225   8.533   7.098  0.2295  0.1828 -0.2843
 1052YOPC   D3B14445  13.176   8.596   7.515  0.1038  0.1599  0.1994
 1052YOPC   C4B14446  13.288   8.696   7.877  0.0757 -0.1062  0.0343
 1053YOPC   NC314447  13.069  17.692   6.101 -0.0399 -0.0064 -0.2269
 1053YOPC   PO414448  12.800  17.420   6.011  0.0882  0.0815  0.3074
 1053YOPC   GL114449  12.774  17.411   6.438  0.1665  0.0530 -0.0547
 1053YOPC   GL214450  12.817  17.766   6.557 -0.0835  0.2530  0.0275
 1053YOPC   C1A14451  12.649  17.253   6.771  0.3156 -0.0001  0.0482
 1053YOPC   D2A14452  12.252  17.130   6.765 -0.1848 -0.1117  0.2732
 1053YOPC   C3A14453  12.150  17.156   7.122 -0.0582  0.0851 -0.3013
 1053YOPC   C4A14454  12.136  17.123   7.591  0.0274 -0.3515 -0.3078
 1053YOPC   C1B14455  12.769  17.669   6.944 -0.2106 -0.1300  0.2766
 1053YOPC   C2B14456  12.761  17.605   7.264  0.2050 -0.3192 -0.1416
 1053YOPC   D3B14457  12.568  17.272   7.381  0.0565 -0.0421 -0.1370
 1053YOPC   C4B14458  12.587  17.126   7.747  0.0620  0.1108  0.0966
 1054YOPC   NC314459  16.400  15.309   5.785 -0.0800 -0.2373 -0.3090
 1054YOPC   PO414460  16.482  15.764   6.018  0.0802  0.2938  0.1096
 1054YOPC   GL114461  16.633  15.761   6.442 -0.2717  0.2460 -0.3431
 1054YOPC   GL214462  16.788  15.610   6.560 -0.2671 -0.0461  0.1644
 1054YOPC   C1A14463  16.355  15.555   6.737  0.1262 -0.1742 -0.1116
 1054YOPC   D2A14464  16.281  15.553   7.160  0.0857  0.0209  0.0450
 1054YOPC   C3A14465  16.451  15.295   7.514  0.0007 -0.0309 -0.0332
 1054YOPC   C4A14466  16.540  15.072   7.794  0.0144  0.1443  0.1192
 1054YOPC   C1B14467  17.125  15.568   6.626  0.2423  0.1247 -0.2602
 1054YOPC   C2B14468  17.516  15.313   6.622  0.1215  0.2629  0.2496
 1054YOPC   D3B14469  17.709  15.424   7.085  0.2191 -0.0721 -0.0039
 1054YOPC   C4B14470  17.934  15.347   7.428  0.0567  0.1788 -0.1572
 1055YOPC   NC314471   8.934   1.633   5.829 -0.3372  0.1662 -0.3101
 1055YOPC   PO414472   8.821   1.663   6.299 -0.0112 -0.0626  0.2907
 1055YOPC   GL114473   8.947   1.462   6.494 -0.0348  0.0432 -0.2477
 1055YOPC   GL214474   8.870   1.119   6.538  0.2618 -0.3075  0.0325
 1055YOPC   C1A14475   9.100   1.533   6.897  0.1983 -0.2201 -0.0226
 1055YOPC   D2A14476   9.087   1.568   7.338  0.0014  0.0643  0.1023
 1055YOPC   C3A14477   9.404   1.662   7.616 -0.0063  0.2775  0.0999
 1055YOPC   C4A14478   9.651   1.666   7.962 -0.1943 -0.0961  0.2726
 1055YOPC   C1B14479   8.900   1.083   6.990 -0.0352  0.2873 -0.2270
 1055YOPC   C2B14480   8.819   1.037   7.441  0.0192 -0.0657 -0.1624
 1055YOPC   D3B14481   8.927   1.345   7.732  0.1868  0.2304 -0.3747
 1055YOPC   C4B14482   9.127   1.560   7.996  0.1227  0.0587 -0.0075
 1056YOPC   NC314483   4.830  12.290   5.792  0.1939  0.4779 -0.0322
 1056YOPC   PO414484   4.392  12.274   5.797 -0.2605 -0.1332 -0.1699
 1056YOPC   GL114485   4.417  11.963   6.120 -0.0645  0.0830 -0.0170
 1056YOPC   GL214486   4.237  12.089   6.273  0.3699  0.0706 -0.2849
 1056YOPC   C1A14487   4.652  11.799   6.519  0.0931 -0.0879 -0.0914
 1056YOPC   D2A14488   4.536  11.761   6.956 -0.0495 -0.0979  0.2154
 1056YOPC   C3A14489   4.777  11.704   7.291  0.0462  0.1042 -0.1265
 1056YOPC   C4A14490   4.996  11.489   7.661 -0.3398 -0.0994  0.2695
 1056YOPC   C1B14491   4.431  12.196   6.671 -0.0938 -0.0000  0.0832
 1056YOPC   C2B14492   4.329  12.227   7.051 -0.0119 -0.0923 -0.0583
 1056YOPC   D3B14493   4.223  12.429   7.392  0.0385 -0.0631  0.0278
 1056YOPC   C4B14494   3.881  12.717   7.556  0.1447  0.1292  0.1866
 1057YOPC   NC314495   7.898  17.667   6.168 -0.3535 -0.0739 -0.3683
 1057YOPC   PO414496   8.419  17.862   6.127 -0.3036 -0.0059 -0.2061
 1057YOPC   GL114497   8.413  17.636   6.482 -0.1918  0.3647 -0.2685
 1057YOPC   GL214498   8.131  17.601   6.669  0.3727 -0.0632 -0.3063
 1057YOPC   C1A14499   8.606  17.618   6.908 -0.0734 -0.0409  0.2308
 1057YOPC   D2A14500   8.423  17.578   7.354 -0.0195 -0.0003  0.3162
 1057YOPC   C3A14501   8.530  17.860   7.744  0.2141  0.1289  0.0581
 1057YOPC   C4A14502   8.720  18.064   8.197 -0.1164 -0.3154  0.1823
 1057YOPC   C1B14503   7.986  17.785   6.957 -0.1375 -0.1407 -0.2602
 1057YOPC   C2B14504   7.980  18.201   7.044 -0.0120 -0.0986 -0.4767
 1057YOPC   D3B14505   7.649  18.541   6.971 -0.0164 -0.0151 -0.0192
 1057YOPC   C4B14506   7.432  18.624   7.255  0.0496  0.3808 -0.0796
 1058YOPC   NC314507  16.636   7.648   5.495  0.0403  0.0971 -0.1372
 1058YOPC   PO414508  17.098   7.910   5.434  0.1084  0.0610  0.0607
 1058YOPC   GL114509  16.855   8.070   5.830 -0.2725 -0.0061 -0.0672
 1058YOPC   GL214510  16.719   7.877   6.095  0.1715  0.1419  0.2335
 1058YOPC   C1A14511  16.996   8.413   6.054  0.0254 -0.0791 -0.1651
 1058YOPC   D2A14512  17.298   8.450   6.344 -0.1149 -0.0410  0.0782
 1058YOPC   C3A14513  17.101   8.621   6.693  0.3671 -0.0078  0.2456
 1058YOPC   C4A14514  16.843   8.952   6.861  0.1447 -0.0452  0.3024
 1058YOPC   C1B14515  16.613   7.742   6.481  0.0721  0.3670  0.0652
 1058YOPC   C2B14516  16.745   7.433   6.960 -0.1813  0.1241  0.4376
 1058YOPC   D3B14517  17.070   7.478   7.171  0.1690  0.2793 -0.3610
 1058YOPC   C4B14518  17.078   7.346   7.525  0.1566 -0.1389 -0.4390
 1059YOPC   NC314519  15.626   1.367   5.636  0.1107  0.0757 -0.0639
 1059YOPC   PO414520  16.086   1.464   5.803 -0.0721  0.0622 -0.2257
 1059YOPC   GL114521  16.137   1.403   6.225 -0.1262 -0.0707  0.3026
 1059YOPC   GL214522  16.098   1.190   6.454 -0.2247  0.1108  0.0539
 1059YOPC   C1A14523  16.402   1.598   6.498  0.1270  0.0246  0.1038
 1059YOPC   D2A14524  16.763   1.403   6.760 -0.1776  0.2874 -0.0617
 1059YOPC   C3A14525  16.671   1.256   7.135 -0.3936  0.1969 -0.0722
 1059YOPC   C4A14526  16.595   1.356   7.504  0.0099 -0.1812 -0.2352
 1059YOPC   C1B14527  16.470   1.016   6.733  0.1252  0.2497  0.1123
 1059YOPC   C2B14528  16.696   0.769   6.909  0.0367 -0.0035 -0.1827
 1059YOPC   D3B14529  16.692   0.701   7.373  0.4303 -0.0192 -0.1264
 1059YOPC   C4B14530  16.398   0.830   7.596 -0.1060 -0.0729 -0.3077
 1060YOPC   NC314531   4.356   8.776   5.173 -0.0391  0.2525 -0.0727
 1060YOPC   PO414532   4.443   8.394   5.510 -0.0246  0.0588  0.1902
 1060YOPC   GL114533   4.444   8.592   5.906  0.0147  0.3977 -0.0842
 1060YOPC   GL214534   4.324   8.435   6.128 -0.0553  0.1687 -0.2041
 1060YOPC   C1A14535   4.518   8.825   6.344 -0.2015 -0.0948  0.1583
 1060YOPC   D2A14536   4.402   8.727   6.728 -0.1121  0.0485  0.2892
 1060YOPC   C3A14537   4.379   8.679   7.192  0.2202  0.1719 -0.1476
 1060YOPC   C4A14538   4.423   8.597   7.614 -0.1433 -0.0615  0.0693
 1060YOPC   C1B14539   4.504   8.264   6.474  0.0881  0.0242 -0.2229
 1060YOPC   C2B14540   4.515   8.242   6.933 -0.2516  0.0294  0.0833
 1060YOPC   D3B14541   4.471   7.937   7.151  0.0473  0.1553  0.4898
 1060YOPC   C4B14542   4.301   7.748   7.508 -0.2113  0.0106  0.1790
 1061YOPC   NC314543   7.957   6.858   5.515  0.2075  0.0768 -0.1754
 1061YOPC   PO414544   7.508   6.948   5.570 -0.1132 -0.1957 -0.1995
 1061YOPC   GL114545   7.622   7.022   5.927  0.0870 -0.1695 -0.0926
 1061YOPC   GL214546   7.882   6.790   5.999 -0.1257  0.1074  0.2096
 1061YOPC   C1A14547   7.623   6.900   6.396  0.3293 -0.1545 -0.1028
 1061YOPC   D2A14548   7.613   6.839   6.789 -0.3522  0.1189 -0.1697
 1061YOPC   C3A14549   7.683   6.898   7.182  0.1178  0.1025  0.3011
 1061YOPC   C4A14550   7.411   6.962   7.533 -0.2029 -0.4190 -0.0803
 1061YOPC   C1B14551   8.074   6.688   6.379 -0.2681  0.0805  0.0885
 1061YOPC   C2B14552   8.405   6.833   6.545  0.4044 -0.1152  0.1772
 1061YOPC   D3B14553   8.713   6.973   6.263 -0.0105 -0.0612  0.1697
 1061YOPC   C4B14554   9.056   7.103   6.243  0.1072  0.2021 -0.2255
 1062YOPC   NC314555   2.511  10.229   5.825  0.1835  0.0877  0.2997
 1062YOPC   PO414556   2.937  10.405   5.875  0.3366  0.2302  0.0984
 1062YOPC   GL114557   3.170  10.239   6.256  0.5717 -0.0569 -0.0505
 1062YOPC   GL214558   2.933   9.976   6.494  0.0766 -0.1363  0.0469
 1062YOPC   C1A14559   3.409  10.194   6.624 -0.0758  0.2055 -0.3470
 1062YOPC   D2A14560   3.759  10.137   6.824  0.0634  0.0625  0.3437
 1062YOPC   C3A14561   3.874   9.842   7.194 -0.4114  0.1067  0.0996
 1062YOPC   C4A14562   4.053   9.580   7.479  0.2126  0.3992 -0.0167
 1062YOPC   C1B14563   2.927  10.064   6.887 -0.1422  0.2145  0.1393
 1062YOPC   C2B14564   2.893   9.830   7.271 -0.1345 -0.2043  0.2932
 1062YOPC   D3B14565   3.055   9.615   7.677  0.0242 -0.0566  0.1852
 1062YOPC   C4B14566   3.316   9.293   7.883  0.1311 -0.2084 -0.1045
 1063YOPC   NC314567   2.853   7.866   5.612 -0.2302 -0.3289  0.4066
 1063YOPC   PO414568   2.505   7.792   5.650 -0.1330 -0.0379 -0.1091
 1063YOPC   GL114569   2.275   7.765   6.087  0.2261  0.1371  0.1551
 1063YOPC   GL214570   1.876   7.759   6.211 -0.0617  0.1504 -0.3417
 1063YOPC   C1A14571   2.209   7.528   6.473  0.1825 -0.0972 -0.0108
 1063YOPC   D2A14572   2.116   7.499   6.828 -0.2196  0.0976 -0.1576
 1063YOPC   C3A14573   2.377   7.633   7.040  0.3058 -0.1104 -0.5393
 1063YOPC   C4A14574   2.303   7.750   7.529 -0.4466  0.2748  0.0437
 1063YOPC   C1B14575   1.970   7.995   6.649  0.0302 -0.0077  0.0073
 1063YOPC   C2B14576   2.127   8.027   7.036  0.1062  0.1377 -0.1526
 1063YOPC   D3B14577   2.410   8.262   7.352 -0.0682  0.3585  0.0719
 1063YOPC   C4B14578   2.272   8.518   7.666 -0.0649  0.2109  0.2297
 1064YOPC   NC314579  15.995   8.262   5.329  0.0413 -0.0569  0.2585
 1064YOPC   PO414580  16.182   8.524   5.748 -0.0513  0.2438  0.1925
 1064YOPC   GL114581  16.261   8.490   6.160 -0.2931  0.0391  0.0776
 1064YOPC   GL214582  16.442   8.289   6.125  0.0143  0.2574  0.1029
 1064YOPC   C1A14583  16.198   8.425   6.549  0.1812 -0.1362  0.0233
 1064YOPC   D2A14584  16.178   8.271   6.843  0.2458  0.1173  0.0097
 1064YOPC   C3A14585  16.469   8.177   7.262  0.0549  0.3092  0.1349
 1064YOPC   C4A14586  16.565   7.983   7.680 -0.0763 -0.1503 -0.0375
 1064YOPC   C1B14587  16.774   8.230   6.434 -0.0221  0.0976  0.0938
 1064YOPC   C2B14588  16.929   8.038   6.808 -0.0223  0.2162  0.1051
 1064YOPC   D3B14589  17.248   8.126   6.785 -0.1502  0.2743  0.1986
 1064YOPC   C4B14590  17.483   8.369   7.061  0.1592  0.1429 -0.1007
 1065YOPC   NC314591  13.289   9.948   5.934 -0.0101 -0.1013 -0.0233
 1065YOPC   PO414592  12.853   9.871   6.078  0.0923 -0.1704 -0.2089
 1065YOPC   GL114593  12.969   9.707   6.443 -0.2748 -0.2126 -0.1159
 1065YOPC   GL214594  12.701   9.505   6.516  0.1516 -0.0060  0.1891
 1065YOPC   C1A14595  12.982   9.842   6.820 -0.0842  0.1693  0.1340
 1065YOPC   D2A14596  12.886   9.942   7.254 -0.0916 -0.0045  0.1212
 1065YOPC   C3A14597  13.250   9.935   7.587 -0.0621  0.2267  0.1611
 1065YOPC   C4A14598  13.422   9.673   7.928  0.1667  0.0166  0.2075
 1065YOPC   C1B14599  12.442   9.214   6.835  0.2757 -0.1760 -0.0896
 1065YOPC   C2B14600  12.007   9.232   7.067 -0.1282 -0.0539 -0.1199
 1065YOPC   D3B14601  11.869   9.055   7.415 -0.0575  0.0596  0.1160
 1065YOPC   C4B14602  12.015   9.113   7.732 -0.0386 -0.1274 -0.1941
 1066YOPC   NC314603  16.787   4.035   5.366  0.0239  0.0237 -0.1674
 1066YOPC   PO414604  17.248   4.135   5.333  0.3140  0.2797  0.0692
 1066YOPC   GL114605  17.488   4.068   5.737  0.3525 -0.2149 -0.2049
 1066YOPC   GL214606  17.810   4.361   5.819  0.0367  0.0472 -0.2116
 1066YOPC   C1A14607  17.268   4.050   6.173  0.0321 -0.0274 -0.1830
 1066YOPC   D2A14608  17.018   3.890   6.532  0.0852 -0.1001  0.1790
 1066YOPC   C3A14609  16.724   4.163   6.799  0.0673  0.1128 -0.0431
 1066YOPC   C4A14610  16.735   4.516   7.134 -0.2167  0.1830  0.1321
 1066YOPC   C1B14611  17.801   3.940   6.086 -0.0251  0.3399  0.2246
 1066YOPC   C2B14612  17.564   3.731   6.486  0.1248  0.1124 -0.3652
 1066YOPC   D3B14613  17.396   3.957   6.872 -0.0595 -0.1068 -0.2164
 1066YOPC   C4B14614  17.078   4.056   7.152 -0.0406  0.0018  0.1240
 1067YOPC   NC314615  14.928  10.156   5.509 -0.0733  0.1377 -0.1859
 1067YOPC   PO414616  15.418  10.114   5.510  0.1894  0.0003 -0.1444
 1067YOPC   GL114617  15.526  10.099   5.963  0.0831 -0.2609 -0.1424
 1067YOPC   GL214618  15.670  10.405   6.199 -0.0902 -0.2873 -0.0880
 1067YOPC   C1A14619  15.335  10.089   6.427 -0.1020 -0.3218  0.1230
 1067YOPC   D2A14620  15.285  10.115   6.858 -0.0601  0.1517 -0.1433
 1067YOPC   C3A14621  15.357  10.069   7.197 -0.0591 -0.1994 -0.1184
 1067YOPC   C4A14622  15.172  10.090   7.549  0.0203  0.1212 -0.1259
 1067YOPC   C1B14623  15.620  10.459   6.564  0.0440  0.1070 -0.0489
 1067YOPC   C2B14624  15.526  10.558   6.990  0.3758 -0.0285  0.0635
 1067YOPC   D3B14625  15.288  10.527   7.233  0.0590  0.0917  0.0089
 1067YOPC   C4B14626  15.001  10.587   7.512  0.0721  0.0120  0.1778
 1068YOPC   NC314627  11.410  14.970   5.657 -0.0563  0.0707  0.0528
 1068YOPC   PO414628  11.839  14.959   5.943 -0.1534 -0.1815 -0.4494
 1068YOPC   GL114629  11.825  14.960   6.355  0.0027 -0.1795  0.0591
 1068YOPC   GL214630  12.044  14.792   6.522  0.0025 -0.2049 -0.1986
 1068YOPC   C1A14631  11.622  15.056   6.687 -0.1745 -0.2097  0.1938
 1068YOPC   D2A14632  11.813  14.967   7.040 -0.0458  0.1874  0.0846
 1068YOPC   C3A14633  12.175  15.144   7.234  0.1885 -0.0075 -0.1717
 1068YOPC   C4A14634  12.350  15.397   7.668  0.0576 -0.2567 -0.1869
 1068YOPC   C1B14635  12.287  14.898   6.842  0.1037  0.1838  0.1366
 1068YOPC   C2B14636  12.610  14.901   7.215 -0.0297 -0.0106 -0.0825
 1068YOPC   D3B14637  12.608  14.881   7.638  0.0305 -0.0997 -0.0630
 1068YOPC   C4B14638  12.536  14.637   8.049  0.1853 -0.0588  0.0977
 1069YOPC   NC314639  11.286  12.544   6.169  0.0743  0.0292  0.1830
 1069YOPC   PO414640  11.008  12.264   5.824 -0.4231 -0.1041 -0.0331
 1069YOPC   GL114641  10.911  12.221   6.338  0.0147 -0.2704  0.0261
 1069YOPC   GL214642  10.572  12.385   6.376  0.0745  0.1639 -0.1351
 1069YOPC   C1A14643  10.950  11.957   6.603 -0.1042  0.2239 -0.0649
 1069YOPC   D2A14644  10.704  11.574   6.543 -0.2996 -0.1750 -0.1373
 1069YOPC   C3A14645  10.460  11.428   6.835  0.2458 -0.2426  0.0580
 1069YOPC   C4A14646  10.339  11.428   7.198 -0.1234 -0.1505  0.0540
 1069YOPC   C1B14647  10.798  12.408   6.805  0.1466  0.1678  0.2345
 1069YOPC   C2B14648  10.812  12.359   7.267  0.1253 -0.3432 -0.4268
 1069YOPC   D3B14649  10.888  12.671   7.655 -0.0741  0.2192 -0.1054
 1069YOPC   C4B14650  10.837  12.389   8.023  0.1547  0.1663  0.3016
 1070YOPC   NC314651  13.273   3.303   5.986 -0.0489  0.1488  0.1777
 1070YOPC   PO414652  13.260   3.689   6.173 -0.0865  0.0343  0.1669
 1070YOPC   GL114653  13.401   3.482   6.487  0.1787 -0.2841 -0.1928
 1070YOPC   GL214654  13.437   3.098   6.395  0.0221  0.1975 -0.0149
 1070YOPC   C1A14655  13.552   3.451   6.888 -0.1176 -0.0586 -0.2044
 1070YOPC   D2A14656  13.789   3.694   7.169 -0.2212  0.0285  0.0059
 1070YOPC   C3A14657  13.691   3.578   7.558  0.0643  0.1610  0.1985
 1070YOPC   C4A14658  13.711   3.547   8.014 -0.2847 -0.1420 -0.1907
 1070YOPC   C1B14659  13.599   2.950   6.774  0.0269 -0.2631 -0.0926
 1070YOPC   C2B14660  13.577   3.058   7.286  0.0938  0.0194 -0.0961
 1070YOPC   D3B14661  13.245   2.904   7.566  0.0572  0.0843  0.0445
 1070YOPC   C4B14662  13.247   2.925   8.043  0.2734 -0.1905  0.2490
 1071YOPC   NC314663   9.803   5.344   5.811  0.3856 -0.3078 -0.1092
 1071YOPC   PO414664   9.666   5.737   5.727  0.1659  0.2353  0.1608
 1071YOPC   GL114665   9.495   5.687   6.190  0.0561  0.1464 -0.0017
 1071YOPC   GL214666   9.013   5.685   6.140 -0.2589  0.0514  0.2247
 1071YOPC   C1A14667   9.484   5.740   6.612  0.1475 -0.4355  0.0919
 1071YOPC   D2A14668   9.383   5.427   6.869 -0.0141  0.1075  0.0801
 1071YOPC   C3A14669   9.567   5.266   7.201  0.0657 -0.1427 -0.0974
 1071YOPC   C4A14670   9.704   5.140   7.547  0.2005  0.0630 -0.1576
 1071YOPC   C1B14671   9.117   5.999   6.449 -0.2536  0.1705 -0.1429
 1071YOPC   C2B14672   9.311   6.205   6.870  0.2421  0.2221  0.3680
 1071YOPC   D3B14673   8.999   6.243   7.184  0.2021 -0.3466 -0.2381
 1071YOPC   C4B14674   8.710   6.246   7.429  0.4582  0.0030  0.0046
 1072YOPC   NC314675   3.953  12.058   5.801  0.0651 -0.0482 -0.0816
 1072YOPC   PO414676   3.877  12.549   5.928 -0.0297 -0.2052  0.2348
 1072YOPC   GL114677   4.200  12.574   6.253 -0.2458 -0.1352 -0.0489
 1072YOPC   GL214678   4.578  12.471   6.269  0.0778 -0.1646  0.0707
 1072YOPC   C1A14679   4.217  12.697   6.637  0.2454 -0.0896  0.2401
 1072YOPC   D2A14680   4.444  12.827   6.934  0.0002  0.0476 -0.0189
 1072YOPC   C3A14681   4.315  12.954   7.340  0.1409 -0.0417  0.0637
 1072YOPC   C4A14682   4.372  12.805   7.764  0.0171  0.4778 -0.2742
 1072YOPC   C1B14683   4.778  12.559   6.674  0.1812 -0.3380  0.1575
 1072YOPC   C2B14684   5.098  12.543   6.922 -0.1436  0.0959  0.1895
 1072YOPC   D3B14685   5.207  12.665   7.355  0.0666 -0.0196 -0.1629
 1072YOPC   C4B14686   5.324  12.550   7.828  0.0289  0.2308  0.2493
 1073YOPC   NC314687   6.872  11.769   5.605  0.1376 -0.0681 -0.0273
 1073YOPC   PO414688   6.443  12.070   5.722 -0.1325 -0.0906  0.0233
 1073YOPC   GL114689   6.277  12.163   6.160  0.1212  0.0644  0.1242
 1073YOPC   GL214690   6.049  12.153   6.269  0.1395  0.3006  0.0622
 1073YOPC   C1A14691   6.568  12.218   6.459 -0.0735  0.1156 -0.0117
 1073YOPC   D2A14692   6.822  12.071   6.686  0.2749 -0.0377 -0.1028
 1073YOPC   C3A14693   6.928  12.205   7.082  0.2060 -0.0572 -0.1290
 1073YOPC   C4A14694   7.206  12.179   7.445  0.1779 -0.0365  0.2330
 1073YOPC   C1B14695   5.977  12.316   6.665 -0.1344 -0.2255  0.0905
 1073YOPC   C2B14696   5.876  12.542   6.970 -0.1017 -0.0208  0.2777
 1073YOPC   D3B14697   6.130  12.650   7.337 -0.2910  0.1281  0.1072
 1073YOPC   C4B14698   6.331  12.698   7.771 -0.0639 -0.2976 -0.1324
 1074YOPC   NC314699   2.375  17.730   5.841 -0.0451  0.1601  0.0572
 1074YOPC   PO414700   2.735  17.971   5.761  0.2038 -0.0976  0.0086
 1074YOPC   GL114701   2.608  18.033   6.252 -0.0661  0.2100 -0.0931
 1074YOPC   GL214702   2.776  18.131   6.431  0.0612 -0.1374  0.1065
 1074YOPC   C1A14703   2.305  17.804   6.475  0.1994  0.1237 -0.3674
 1074YOPC   D2A14704   2.042  17.674   6.760 -0.0750 -0.0018 -0.2097
 1074YOPC   C3A14705   2.069  17.901   7.194  0.1124 -0.0258  0.0404
 1074YOPC   C4A14706   2.402  18.123   7.426  0.0579 -0.0442 -0.2105
 1074YOPC   C1B14707   3.092  18.236   6.686 -0.1484 -0.2674 -0.0599
 1074YOPC   C2B14708   3.213  17.920   7.105  0.3129 -0.1121  0.0926
 1074YOPC   D3B14709   3.008  18.065   7.438 -0.0454 -0.2548  0.2226
 1074YOPC   C4B14710   3.123  17.913   7.852  0.0598  0.1594 -0.0172
 1075YOPC   NC314711   9.602  10.543   5.387  0.0199 -0.1652  0.1812
 1075YOPC   PO414712   9.318  10.951   5.465 -0.0268  0.2219 -0.0261
 1075YOPC   GL114713   9.218  10.952   5.936 -0.1076 -0.2500  0.2322
 1075YOPC   GL214714   9.372  11.269   6.048 -0.1609  0.1739  0.2213
 1075YOPC   C1A14715   9.065  10.713   6.290  0.1269 -0.0139 -0.2441
 1075YOPC   D2A14716   9.010  10.477   6.692  0.1548  0.0037  0.0071
 1075YOPC   C3A14717   8.846  10.302   6.962  0.2287  0.1139 -0.0143
 1075YOPC   C4A14718   8.827  10.163   7.356  0.4311  0.0047  0.1616
 1075YOPC   C1B14719   9.533  10.964   6.356 -0.2246 -0.1501 -0.2071
 1075YOPC   C2B14720   9.550  10.518   6.495  0.2005  0.0602  0.0596
 1075YOPC   D3B14721   9.466  10.417   6.809 -0.1381  0.0119 -0.0003
 1075YOPC   C4B14722   9.691  10.442   7.193  0.2872  0.1696 -0.0761
 1076YOPC   NC314723  10.872  13.264   6.124 -0.0522  0.1080 -0.0161
 1076YOPC   PO414724  10.844  12.776   6.209 -0.0867  0.0659 -0.2602
 1076YOPC   GL114725  11.146  12.717   6.598  0.1474  0.0557 -0.0024
 1076YOPC   GL214726  11.426  12.804   6.600  0.2376  0.2682  0.1778
 1076YOPC   C1A14727  11.285  12.561   6.993 -0.3445  0.2136  0.0531
 1076YOPC   D2A14728  11.506  12.595   7.445 -0.4511  0.2740 -0.0741
 1076YOPC   C3A14729  11.824  12.579   7.351  0.1035  0.1004  0.1425
 1076YOPC   C4A14730  12.139  12.614   7.127 -0.1996  0.1743  0.2520
 1076YOPC   C1B14731  11.788  12.836   6.736  0.1518 -0.1286 -0.3244
 1076YOPC   C2B14732  12.106  13.068   6.929 -0.3635  0.3105  0.0999
 1076YOPC   D3B14733  12.129  13.165   7.398  0.0236 -0.0057  0.2955
 1076YOPC   C4B14734  12.050  13.203   7.765  0.2523  0.0925 -0.1439
 1077YOPC   NC314735   4.630   2.232   5.474 -0.0107 -0.0910 -0.1669
 1077YOPC   PO414736   4.614   2.600   5.730 -0.2667  0.2552 -0.3309
 1077YOPC   GL114737   4.413   2.665   6.108 -0.0553 -0.1524  0.0052
 1077YOPC   GL214738   4.719   2.528   6.238  0.1201 -0.0511  0.2765
 1077YOPC   C1A14739   4.284   2.769   6.529 -0.1397  0.1533 -0.0116
 1077YOPC   D2A14740   4.062   2.961   6.941 -0.2887 -0.1221  0.2046
 1077YOPC   C3A14741   4.188   2.833   7.294  0.3526  0.0355 -0.1153
 1077YOPC   C4A14742   4.260   2.567   7.659  0.0297 -0.1533  0.1088
 1077YOPC   C1B14743   4.458   2.291   6.466 -0.0910 -0.1425  0.0425
 1077YOPC   C2B14744   4.182   2.091   6.773 -0.1452  0.1853  0.1810
 1077YOPC   D3B14745   4.320   2.210   7.279 -0.1747  0.0889  0.1349
 1077YOPC   C4B14746   4.437   2.116   7.671 -0.0495  0.1662 -0.0233
 1078YOPC   NC314747   4.016   9.585   5.635  0.2904  0.3369  0.0519
 1078YOPC   PO414748   4.417   9.754   5.642  0.1615  0.1408  0.1646
 1078YOPC   GL114749   4.676   9.671   5.956  0.1419  0.1710 -0.0268
 1078YOPC   GL214750   4.710  10.006   6.124  0.3000 -0.4536  0.0150
 1078YOPC   C1A14751   4.792   9.531   6.322 -0.2697  0.0201  0.4615
 1078YOPC   D2A14752   4.848   9.143   6.549 -0.0928  0.1551 -0.1360
 1078YOPC   C3A14753   4.775   9.110   6.975  0.4381  0.0523 -0.0547
 1078YOPC   C4A14754   5.043   9.405   7.246 -0.0150 -0.1669  0.0367
 1078YOPC   C1B14755   4.850   9.968   6.550 -0.5335  0.2179  0.1331
 1078YOPC   C2B14756   4.908   9.660   6.818  0.1136 -0.2337  0.3202
 1078YOPC   D3B14757   5.384   9.753   7.054 -0.2058  0.0485 -0.1770
 1078YOPC   C4B14758   5.427   9.734   7.468 -0.1585 -0.2417 -0.0940
 1079YOPC   NC314759   6.644   7.967   5.408  0.1661 -0.0281 -0.1632
 1079YOPC   PO414760   6.308   7.700   5.588 -0.1380  0.2754  0.0921
 1079YOPC   GL114761   6.204   7.660   5.950 -0.0843  0.2303 -0.0445
 1079YOPC   GL214762   5.878   7.611   6.111 -0.0457 -0.1923 -0.1894
 1079YOPC   C1A14763   6.333   7.474   6.401 -0.0594  0.1636  0.0905
 1079YOPC   D2A14764   6.327   7.418   6.736  0.3029  0.0676  0.0106
 1079YOPC   C3A14765   6.254   7.266   7.055  0.1373 -0.0271 -0.1816
 1079YOPC   C4A14766   6.402   7.259   7.486 -0.1608 -0.2141 -0.1328
 1079YOPC   C1B14767   5.700   7.458   6.513 -0.4087  0.0916 -0.2640
 1079YOPC   C2B14768   5.726   7.449   6.887 -0.2527  0.1052 -0.2336
 1079YOPC   D3B14769   5.716   7.210   7.193  0.0007 -0.3294 -0.0074
 1079YOPC   C4B14770   5.925   7.068   7.515  0.0436 -0.0472  0.0155
 1080YOPC   NC314771   0.068  17.146   5.592 -0.1735 -0.4144 -0.0939
 1080YOPC   PO414772   0.159  17.576   5.797  0.3154  0.0396 -0.0175
 1080YOPC   GL114773   0.483  17.352   5.967 -0.1723  0.0172  0.4529
 1080YOPC   GL214774   0.752  17.300   5.861 -0.2889  0.2000  0.1430
 1080YOPC   C1A14775   0.642  17.276   6.362  0.2753  0.0151 -0.1436
 1080YOPC   D2A14776   0.840  17.215   6.769 -0.3491  0.0843 -0.2120
 1080YOPC   C3A14777   0.757  17.066   7.135  0.1011 -0.1459 -0.1995
 1080YOPC   C4A14778   0.835  16.969   7.561 -0.0932 -0.2151 -0.1423
 1080YOPC   C1B14779   0.817  16.909   5.866 -0.1127  0.1639  0.0059
 1080YOPC   C2B14780   0.932  16.483   5.879 -0.0262 -0.0906  0.1732
 1080YOPC   D3B14781   0.871  16.244   6.281  0.2425 -0.1292  0.2715
 1080YOPC   C4B14782   0.486  16.097   6.379  0.1897  0.0407  0.1535
 1081YOPC   NC314783   5.737   5.108   5.581  0.1042  0.1249  0.1871
 1081YOPC   PO414784   5.773   5.473   5.851 -0.0574 -0.1746  0.4423
 1081YOPC   GL114785   5.646   5.209   6.173  0.0448  0.1418 -0.2766
 1081YOPC   GL214786   5.421   5.322   6.352  0.1936  0.1062  0.0078
 1081YOPC   C1A14787   5.869   4.946   6.430  0.0325  0.1732 -0.5169
 1081YOPC   D2A14788   6.202   4.750   6.441  0.1103  0.0393 -0.0468
 1081YOPC   C3A14789   6.280   4.574   6.888 -0.1655 -0.2469  0.4186
 1081YOPC   C4A14790   6.097   4.332   7.200  0.1589 -0.1705  0.1425
 1081YOPC   C1B14791   5.623   5.392   6.767 -0.0763  0.1396 -0.1174
 1081YOPC   C2B14792   5.773   5.510   7.195  0.0120 -0.0282  0.2718
 1081YOPC   D3B14793   5.723   5.135   7.608  0.1563  0.0188 -0.0485
 1081YOPC   C4B14794   5.484   4.811   8.011 -0.2481  0.2642  0.2167
 1082YOPC   NC314795  12.100  12.374   5.992 -0.2121  0.1424 -0.2941
 1082YOPC   PO414796  11.692  12.391   5.918  0.1231 -0.1817  0.1275
 1082YOPC   GL114797  11.770  12.305   6.378 -0.4576 -0.4065  0.0914
 1082YOPC   GL214798  11.439  12.122   6.585  0.0748 -0.1195  0.5370
 1082YOPC   C1A14799  11.871  12.349   6.868 -0.0058  0.0786 -0.0731
 1082YOPC   D2A14800  12.160  12.179   7.221 -0.1665  0.1533 -0.0698
 1082YOPC   C3A14801  11.920  12.124   7.638  0.1944  0.1486  0.1883
 1082YOPC   C4A14802  11.892  12.175   8.059  0.0438 -0.1836 -0.3005
 1082YOPC   C1B14803  11.211  12.047   7.012  0.1186 -0.1186 -0.0663
 1082YOPC   C2B14804  11.191  12.009   7.530 -0.0844  0.1504  0.2847
 1082YOPC   D3B14805  11.432  12.209   7.862  0.0205  0.0745 -0.0620
 1082YOPC   C4B14806  11.278  12.558   8.158  0.1807  0.1772  0.0484
 1083YOPC   NC314807   2.231  14.149   5.458 -0.0375 -0.1369 -0.1000
 1083YOPC   PO414808   2.429  14.268   5.812 -0.1342  0.2685 -0.2153
 1083YOPC   GL114809   2.473  14.058   6.168  0.0084 -0.1856 -0.0876
 1083YOPC   GL214810   2.570  13.721   6.223  0.1712  0.0138 -0.0135
 1083YOPC   C1A14811   2.419  13.992   6.652  0.0851 -0.2939  0.3109
 1083YOPC   D2A14812   2.462  14.078   7.140 -0.0926  0.1295  0.3425
 1083YOPC   C3A14813   2.849  14.056   7.331 -0.0282  0.0425 -0.2585
 1083YOPC   C4A14814   3.189  14.120   7.607 -0.1506 -0.2406 -0.0685
 1083YOPC   C1B14815   2.733  13.519   6.562  0.0032  0.0631 -0.2267
 1083YOPC   C2B14816   2.738  13.593   7.052 -0.2604 -0.0819 -0.0247
 1083YOPC   D3B14817   2.981  13.567   7.489 -0.0988  0.0907 -0.1038
 1083YOPC   C4B14818   2.914  13.700   7.949 -0.0412 -0.0464  0.1866
 1084YOPC   NC314819  12.091   6.244   5.731 -0.0973 -0.1151  0.0118
 1084YOPC   PO414820  12.321   6.097   6.038  0.2779 -0.4102 -0.1727
 1084YOPC   GL114821  12.301   5.952   6.521  0.0992 -0.0690  0.1500
 1084YOPC   GL214822  12.611   6.050   6.588 -0.1722 -0.1497 -0.0807
 1084YOPC   C1A14823  12.185   5.913   6.949  0.1743  0.7013 -0.0843
 1084YOPC   D2A14824  11.881   6.002   7.291 -0.1441 -0.1391  0.1771
 1084YOPC   C3A14825  11.983   5.990   7.761 -0.0985 -0.2779  0.1884
 1084YOPC   C4A14826  12.152   5.693   8.016  0.2459 -0.0106  0.1972
 1084YOPC   C1B14827  12.620   6.156   7.018 -0.0954 -0.2930  0.0245
 1084YOPC   C2B14828  12.332   6.228   7.313  0.2274  0.0514  0.1825
 1084YOPC   D3B14829  12.360   6.321   7.759 -0.0780 -0.1400  0.1892
 1084YOPC   C4B14830  12.327   6.137   8.148  0.2631 -0.0817  0.2124
 1085YOPC   NC314831   3.009   4.418   5.321 -0.1109  0.1465  0.1780
 1085YOPC   PO414832   2.853   4.815   5.483 -0.0841  0.0800  0.1612
 1085YOPC   GL114833   2.849   4.867   5.893  0.1254 -0.1115  0.1864
 1085YOPC   GL214834   2.595   5.068   6.104  0.0130 -0.0178  0.0091
 1085YOPC   C1A14835   3.036   4.673   6.229  0.0165 -0.1877  0.0033
 1085YOPC   D2A14836   3.291   4.579   6.278 -0.1028  0.2153 -0.0518
 1085YOPC   C3A14837   3.410   4.448   6.700  0.0605  0.0441  0.0749
 1085YOPC   C4A14838   3.343   4.540   7.152 -0.1970  0.0450  0.1210
 1085YOPC   C1B14839   2.703   4.959   6.557 -0.1272  0.1642 -0.1869
 1085YOPC   C2B14840   3.005   4.813   6.871  0.0167 -0.1553  0.0453
 1085YOPC   D3B14841   2.901   4.684   7.320 -0.0844 -0.2600 -0.1243
 1085YOPC   C4B14842   2.880   4.508   7.821  0.1487  0.1184  0.1184
 1086YOPC   NC314843   0.603  15.153   5.403  0.1757  0.0390  0.0480
 1086YOPC   PO414844   0.355  15.592   5.383  0.1928 -0.3080  0.1910
 1086YOPC   GL114845   0.415  15.886   5.698  0.1645 -0.1155 -0.0969
 1086YOPC   GL214846   0.350  15.810   6.000 -0.0228 -0.0682 -0.0897
 1086YOPC   C1A14847   0.804  16.013   5.843  0.3047  0.0950 -0.1793
 1086YOPC   D2A14848   1.165  16.042   5.755  0.0332  0.0718 -0.0549
 1086YOPC   C3A14849   1.420  16.469   5.699 -0.1775  0.0582  0.0827
 1086YOPC   C4A14850   1.424  16.847   5.971 -0.1674  0.2493  0.2142
 1086YOPC   C1B14851   0.737  15.675   6.245  0.1008  0.0895  0.0366
 1086YOPC   C2B14852   0.768  15.472   6.693  0.3553  0.0499  0.1766
 1086YOPC   D3B14853   0.913  15.593   7.115 -0.1685  0.0689 -0.1594
 1086YOPC   C4B14854   1.245  15.714   7.418  0.0728  0.0260 -0.2044
 1087YOPC   NC314855  17.917  16.473   5.220 -0.2425  0.2481 -0.2816
 1087YOPC   PO414856  17.908  16.140   5.403  0.0952 -0.0797 -0.1859
 1087YOPC   GL114857  18.117  16.162   5.775 -0.1757 -0.0634 -0.1803
 1087YOPC   GL214858  18.129  15.780   6.020 -0.1443  0.3227 -0.0793
 1087YOPC   C1A14859  18.240  16.543   6.011 -0.0636  0.1129 -0.0205
 1087YOPC   D2A14860  18.372  16.969   6.098 -0.0545 -0.0366 -0.2105
 1087YOPC   C3A14861  18.511  16.923   6.491  0.1230 -0.3250 -0.1925
 1087YOPC   C4A14862  18.711  16.769   6.844  0.0984 -0.0521  0.1795
 1087YOPC   C1B14863  18.270  16.119   6.253 -0.1524 -0.0202  0.1057
 1087YOPC   C2B14864  18.350  16.431   6.499 -0.0627  0.1087 -0.1017
 1087YOPC   D3B14865  18.553  16.281   6.865 -0.2718  0.1153 -0.0358
 1087YOPC   C4B14866  18.789  16.150   7.211  0.1544  0.0817 -0.0732
 1088YOPC   NC314867  10.936  11.177   5.752 -0.0026 -0.2245  0.1855
 1088YOPC   PO414868  11.189  10.877   5.865 -0.1454  0.0172 -0.0085
 1088YOPC   GL114869  11.260  10.853   6.260  0.0895 -0.0280 -0.0282
 1088YOPC   GL214870  11.067  11.143   6.547  0.0212  0.1445 -0.0880
 1088YOPC   C1A14871  11.296  10.479   6.562  0.0862 -0.0646  0.2631
 1088YOPC   D2A14872  11.403  10.087   6.794  0.0047  0.1308  0.0155
 1088YOPC   C3A14873  11.401   9.987   7.281  0.1911  0.0197  0.0059
 1088YOPC   C4A14874  11.590  10.169   7.683  0.1206 -0.1386  0.1406
 1088YOPC   C1B14875  11.005  11.382   6.869 -0.0997 -0.0307 -0.3527
 1088YOPC   C2B14876  10.771  11.271   7.288  0.1884  0.1533 -0.1494
 1088YOPC   D3B14877  10.961  11.151   7.662  0.2820 -0.3095  0.0041
 1088YOPC   C4B14878  11.218  10.993   8.010  0.1121  0.0272  0.1736
 1089YOPC   NC314879   4.665  16.702   5.826 -0.2212 -0.0392  0.1454
 1089YOPC   PO414880   4.468  16.956   6.024  0.0843 -0.0439  0.1003
 1089YOPC   GL114881   4.443  16.868   6.480 -0.2282  0.0499 -0.0197
 1089YOPC   GL214882   4.217  16.978   6.656  0.0313  0.0276  0.3405
 1089YOPC   C1A14883   4.604  16.763   6.908 -0.0004  0.0668 -0.1877
 1089YOPC   D2A14884   4.623  16.877   7.381  0.0332  0.0763  0.2257
 1089YOPC   C3A14885   4.814  16.689   7.758  0.3010 -0.2703 -0.1851
 1089YOPC   C4A14886   4.662  16.515   8.089  0.3209 -0.0681  0.1644
 1089YOPC   C1B14887   4.096  16.798   6.950  0.1735 -0.0657 -0.1835
 1089YOPC   C2B14888   4.329  16.443   7.157  0.1118 -0.0091  0.0917
 1089YOPC   D3B14889   4.383  16.354   7.631 -0.0285 -0.2301  0.0240
 1089YOPC   C4B14890   4.416  16.088   7.885 -0.0032  0.2538 -0.0975
 1090YOPC   NC314891  10.388   8.057   5.487 -0.0411 -0.0171 -0.1650
 1090YOPC   PO414892  10.353   7.492   5.515 -0.2140 -0.1997  0.1202
 1090YOPC   GL114893  10.303   7.538   5.983 -0.0220  0.1193 -0.0983
 1090YOPC   GL214894  10.066   7.382   6.099 -0.4385  0.0164  0.1303
 1090YOPC   C1A14895  10.668   7.486   6.298 -0.0600  0.0559 -0.0562
 1090YOPC   D2A14896  10.652   7.399   6.699 -0.3500  0.0661  0.1553
 1090YOPC   C3A14897  10.598   7.733   6.999 -0.0104 -0.1192  0.0439
 1090YOPC   C4A14898  10.453   7.999   7.349  0.0039 -0.1067  0.0093
 1090YOPC   C1B14899  10.150   7.419   6.520  0.3331  0.0864  0.0124
 1090YOPC   C2B14900  10.032   7.422   6.936  0.0167  0.1459 -0.0166
 1090YOPC   D3B14901  10.326   7.455   7.317 -0.0538 -0.1565 -0.3043
 1090YOPC   C4B14902  10.790   7.293   7.214  0.0969  0.0331 -0.2571
 1091YOPC   NC314903   5.641  17.626   5.884 -0.0474  0.1081 -0.0682
 1091YOPC   PO414904   5.932  17.447   6.118  0.0423 -0.1995 -0.2499
 1091YOPC   GL114905   5.821  17.806   6.452  0.5823  0.0885  0.0001
 1091YOPC   GL214906   5.938  18.097   6.519  0.0349 -0.1925 -0.1611
 1091YOPC   C1A14907   5.524  17.900   6.796 -0.0551  0.4096 -0.0994
 1091YOPC   D2A14908   5.155  17.790   7.016  0.2288  0.4057 -0.0046
 1091YOPC   C3A14909   5.211  17.799   7.501  0.3113 -0.1180  0.2574
 1091YOPC   C4A14910   5.256  17.740   7.874 -0.3250 -0.0243 -0.2456
 1091YOPC   C1B14911   5.914  18.160   6.942 -0.0198  0.0704 -0.1366
 1091YOPC   C2B14912   5.994  18.230   7.359  0.1219  0.1538 -0.2767
 1091YOPC   D3B14913   6.120  18.665   7.584 -0.1362  0.0597  0.0188
 1091YOPC   C4B14914   5.992  18.722   7.977 -0.1197  0.1068  0.0862
 1092YOPC   NC314915   1.825   4.624   5.721  0.1380 -0.2072 -0.4630
 1092YOPC   PO414916   1.936   5.004   5.597 -0.0691 -0.1413 -0.2445
 1092YOPC   GL114917   1.884   5.001   6.102 -0.2927 -0.2957  0.1849
 1092YOPC   GL214918   1.702   5.341   6.185 -0.0253 -0.1909  0.1318
 1092YOPC   C1A14919   1.771   4.973   6.470 -0.1277 -0.1152  0.0915
 1092YOPC   D2A14920   1.456   5.131   6.732 -0.2933 -0.1154 -0.1607
 1092YOPC   C3A14921   1.426   5.104   7.159 -0.0286 -0.0843  0.3565
 1092YOPC   C4A14922   1.405   5.335   7.510 -0.1612 -0.2479  0.2846
 1092YOPC   C1B14923   1.781   5.562   6.665  0.0572  0.0538 -0.0394
 1092YOPC   C2B14924   1.785   5.409   7.041  0.3826 -0.0288 -0.0401
 1092YOPC   D3B14925   1.827   4.893   6.972  0.0779 -0.0479 -0.0503
 1092YOPC   C4B14926   1.847   4.569   6.772  0.1305 -0.0736  0.0212
 1093YOPC   NC314927   4.128  18.059   5.507 -0.0910 -0.1279 -0.1940
 1093YOPC   PO414928   3.841  17.667   5.727 -0.3167  0.1256 -0.0158
 1093YOPC   GL114929   3.958  17.756   6.205  0.0215 -0.0987  0.0535
 1093YOPC   GL214930   3.728  17.663   6.309 -0.1784 -0.0120  0.0301
 1093YOPC   C1A14931   4.080  17.600   6.696 -0.0618 -0.0556 -0.0681
 1093YOPC   D2A14932   4.179  17.508   7.150 -0.0948  0.2362  0.0725
 1093YOPC   C3A14933   4.156  17.123   7.289 -0.0110 -0.1726  0.2805
 1093YOPC   C4A14934   4.094  16.781   7.479 -0.0639  0.2155 -0.0954
 1093YOPC   C1B14935   3.468  17.826   6.647 -0.0436 -0.0165  0.1183
 1093YOPC   C2B14936   3.683  17.742   6.987 -0.1135  0.0193  0.2658
 1093YOPC   D3B14937   3.701  17.591   7.369 -0.1530  0.1558 -0.0385
 1093YOPC   C4B14938   4.077  17.577   7.618  0.0031  0.2460 -0.2188
 1094YOPC   NC314939  13.996  10.583   5.346  0.2266  0.1219 -0.0185
 1094YOPC   PO414940  13.841  11.032   5.354 -0.0703  0.1629  0.2074
 1094YOPC   GL114941  13.869  10.841   5.845 -0.0741 -0.0917  0.2881
 1094YOPC   GL214942  13.554  10.918   6.067 -0.1130  0.0119  0.1476
 1094YOPC   C1A14943  13.859  10.556   6.201  0.1006 -0.1375 -0.1994
 1094YOPC   D2A14944  13.985  10.196   6.245 -0.0662 -0.1177 -0.2024
 1094YOPC   C3A14945  14.375  10.140   6.209  0.1382 -0.3584  0.3189
 1094YOPC   C4A14946  14.840  10.175   6.245  0.3169  0.0375  0.1394
 1094YOPC   C1B14947  13.469  10.690   6.412 -0.0612 -0.1307  0.2279
 1094YOPC   C2B14948  13.618  10.627   6.851  0.2833  0.0347  0.2179
 1094YOPC   D3B14949  13.957  10.464   6.782  0.2414 -0.1659 -0.2567
 1094YOPC   C4B14950  14.304  10.087   6.699  0.0585  0.2599  0.0181
 1095YOPC   NC314951   9.479  15.286   5.507 -0.2637 -0.1066 -0.1448
 1095YOPC   PO414952   9.549  15.694   5.565 -0.0098  0.1237  0.0468
 1095YOPC   GL114953   9.747  15.686   5.895 -0.2021 -0.0377 -0.0557
 1095YOPC   GL214954  10.111  15.509   5.861  0.0520 -0.1176 -0.0107
 1095YOPC   C1A14955   9.570  15.942   6.228  0.1684  0.0072  0.1267
 1095YOPC   D2A14956   9.284  16.028   6.604  0.1424 -0.1607 -0.0730
 1095YOPC   C3A14957   9.341  15.876   6.984 -0.0772  0.2044 -0.1042
 1095YOPC   C4A14958   9.409  16.131   7.309  0.0485  0.1608 -0.3203
 1095YOPC   C1B14959   9.889  15.293   6.195  0.0977 -0.1069 -0.1411
 1095YOPC   C2B14960   9.792  15.074   6.605  0.1592 -0.2355 -0.0936
 1095YOPC   D3B14961   9.971  15.091   7.110 -0.1315  0.0887 -0.2196
 1095YOPC   C4B14962  10.000  15.032   7.512  0.2679 -0.1420  0.1378
 1096YOPC   NC314963   9.715  14.394   5.202  0.0477 -0.0067 -0.0705
 1096YOPC   PO414964   9.847  14.069   5.520  0.2388  0.1445  0.1137
 1096YOPC   GL114965   9.797  14.171   5.898  0.1861 -0.2079 -0.1036
 1096YOPC   GL214966  10.086  14.168   6.155  0.3675  0.0890  0.0628
 1096YOPC   C1A14967   9.477  14.321   6.198  0.2160  0.2086 -0.1599
 1096YOPC   D2A14968   9.096  14.550   6.193  0.1011 -0.0350  0.1050
 1096YOPC   C3A14969   8.929  14.957   6.401  0.0283 -0.0399 -0.2638
 1096YOPC   C4A14970   8.611  15.180   6.462  0.2030  0.0029 -0.0390
 1096YOPC   C1B14971  10.113  14.174   6.663  0.1668 -0.0945 -0.1864
 1096YOPC   C2B14972   9.868  14.241   7.088 -0.1527 -0.1254  0.2048
 1096YOPC   D3B14973   9.817  14.577   7.396 -0.0940 -0.2091  0.0505
 1096YOPC   C4B14974   9.792  14.657   7.806 -0.2450  0.2547  0.5141
 1097YOPC   NC314975   0.951  14.550   5.774  0.1433 -0.1799 -0.0999
 1097YOPC   PO414976   0.961  14.815   5.542  0.1239 -0.3424 -0.2916
 1097YOPC   GL114977   0.944  15.083   5.945 -0.0079 -0.0950 -0.0718
 1097YOPC   GL214978   0.939  14.777   6.193 -0.2308  0.1450  0.0321
 1097YOPC   C1A14979   0.637  15.191   6.272  0.0628 -0.1797  0.3309
 1097YOPC   D2A14980   0.309  15.123   6.654  0.0194  0.0284 -0.2134
 1097YOPC   C3A14981   0.394  15.323   6.978 -0.1333 -0.0255  0.2120
 1097YOPC   C4A14982   0.455  15.660   7.172 -0.0273 -0.2246 -0.0425
 1097YOPC   C1B14983   1.178  14.622   6.521  0.2579 -0.3356  0.2571
 1097YOPC   C2B14984   1.073  14.454   6.879  0.0029 -0.2382  0.0475
 1097YOPC   D3B14985   1.142  14.562   7.348 -0.1353 -0.0746 -0.0981
 1097YOPC   C4B14986   0.910  14.698   7.670  0.3169 -0.3426 -0.0633
 1098YOPC   NC314987  12.091   7.159   5.964  0.0518 -0.1162  0.0539
 1098YOPC   PO414988  12.564   7.028   5.949  0.2172  0.4372 -0.4147
 1098YOPC   GL114989  12.432   7.030   6.383  0.3402 -0.0193  0.0136
 1098YOPC   GL214990  12.145   6.878   6.496  0.1024 -0.0311 -0.0579
 1098YOPC   C1A14991  12.430   7.292   6.781  0.0259 -0.2842  0.0932
 1098YOPC   D2A14992  12.464   7.201   7.144 -0.0116 -0.2398 -0.3432
 1098YOPC   C3A14993  12.635   7.265   7.561 -0.0565  0.3249  0.1700
 1098YOPC   C4A14994  12.727   7.213   7.984 -0.0879 -0.2372 -0.2749
 1098YOPC   C1B14995  12.028   6.929   6.962 -0.1151 -0.1708  0.0018
 1098YOPC   C2B14996  11.817   6.983   7.348  0.3491 -0.1236 -0.1873
 1098YOPC   D3B14997  11.428   6.754   7.530  0.0433  0.3658  0.1306
 1098YOPC   C4B14998  11.092   6.833   7.876 -0.2768 -0.1665 -0.0695
 1099YOPC   NC314999  11.262   6.498   5.489  0.0389 -0.2699 -0.1182
 1099YOPC   PO415000  11.012   6.832   5.684 -0.0831  0.0063  0.2151
 1099YOPC   GL115001  10.974   7.039   6.026 -0.3020 -0.0684  0.0462
 1099YOPC   GL215002  10.788   6.736   6.129 -0.3219  0.0049  0.0294
 1099YOPC   C1A15003  11.002   7.080   6.470  0.0930  0.2271  0.1102
 1099YOPC   D2A15004  11.039   6.974   6.924 -0.1178  0.1688 -0.3372
 1099YOPC   C3A15005  11.267   7.076   7.159 -0.0760  0.4036  0.0137
 1099YOPC   C4A15006  11.581   7.298   6.990 -0.2052 -0.1452  0.1336
 1099YOPC   C1B15007  10.454   6.938   6.454 -0.4685 -0.2511 -0.0534
 1099YOPC   C2B15008  10.389   7.079   6.949 -0.2705 -0.2046 -0.3974
 1099YOPC   D3B15009  10.536   6.835   7.210 -0.2738  0.1667 -0.2504
 1099YOPC   C4B15010  10.974   6.669   7.383  0.0691  0.0658 -0.0157
 1100YOPC   NC315011  12.941   7.767   5.744  0.1107  0.0553 -0.0180
 1100YOPC   PO415012  12.911   7.311   5.781 -0.4356  0.2190 -0.1079
 1100YOPC   GL115013  12.799   7.581   6.151  0.2022 -0.1158  0.2805
 1100YOPC   GL215014  13.048   7.615   6.303 -0.0079 -0.2459 -0.0612
 1100YOPC   C1A15015  12.508   7.636   6.332  0.2441 -0.1895  0.0463
 1100YOPC   D2A15016  12.302   7.766   6.661  0.2144 -0.0840  0.0277
 1100YOPC   C3A15017  12.528   7.842   6.988 -0.0494 -0.2739  0.1910
 1100YOPC   C4A15018  12.590   7.793   7.422  0.0756 -0.2025  0.1057
 1100YOPC   C1B15019  12.851   7.597   6.659  0.0116  0.0940 -0.0766
 1100YOPC   C2B15020  12.884   7.516   7.086  0.2964 -0.2414 -0.0530
 1100YOPC   D3B15021  13.011   7.595   7.594  0.1382  0.0848  0.0820
 1100YOPC   C4B15022  13.254   7.830   7.966  0.1751 -0.1295  0.0735
 1101YOPC   NC315023  18.191   3.082   5.661  0.3742 -0.0713  0.2339
 1101YOPC   PO415024  18.544   2.717   5.726 -0.2002 -0.1332 -0.2985
 1101YOPC   GL115025  18.652   2.629   6.183  0.2350  0.1125  0.2176
 1101YOPC   GL215026  18.625   2.315   6.343 -0.2517  0.2983  0.1671
 1101YOPC   C1A15027  18.427   2.725   6.540 -0.0427 -0.3444  0.2138
 1101YOPC   D2A15028  18.001   2.824   6.678  0.1013 -0.1716  0.2385
 1101YOPC   C3A15029  17.944   2.822   7.109  0.0475 -0.0316 -0.4724
 1101YOPC   C4A15030  17.826   3.002   7.350 -0.0067 -0.2070 -0.3429
 1101YOPC   C1B15031  18.801   2.424   6.779 -0.0403 -0.2936 -0.1926
 1101YOPC   C2B15032  18.887   2.346   7.266  0.0033 -0.0901  0.0287
 1101YOPC   D3B15033  18.637   2.484   7.501  0.2426  0.1539  0.2703
 1101YOPC   C4B15034  18.244   2.807   7.525 -0.0063  0.0893  0.1976
 1102YOPC   NC315035  16.032  17.422   6.001 -0.0448 -0.1075  0.1154
 1102YOPC   PO415036  16.401  17.550   5.876 -0.1718 -0.3162  0.0875
 1102YOPC   GL115037  16.478  17.468   6.341  0.2142 -0.1588  0.0342
 1102YOPC   GL215038  16.244  17.141   6.440  0.0754 -0.0316 -0.0820
 1102YOPC   C1A15039  16.681  17.341   6.594  0.0354 -0.0473  0.3068
 1102YOPC   D2A15040  16.959  17.244   6.823 -0.1983 -0.2352 -0.0386
 1102YOPC   C3A15041  17.368  17.310   7.085  0.2885 -0.0125  0.2118
 1102YOPC   C4A15042  17.468  17.090   7.545 -0.2003  0.1770  0.0891
 1102YOPC   C1B15043  16.343  17.012   6.734 -0.1352 -0.2423 -0.2933
 1102YOPC   C2B15044  16.433  16.917   7.134  0.0449 -0.1806  0.2986
 1102YOPC   D3B15045  16.809  17.098   7.242  0.0766 -0.0137  0.1450
 1102YOPC   C4B15046  16.968  17.092   7.559  0.0134 -0.0038  0.1010
 1103YOPC   NC315047   2.230   3.835   5.741 -0.1892  0.0713  0.1432
 1103YOPC   PO415048   2.177   4.218   5.684  0.0648 -0.0330 -0.1395
 1103YOPC   GL115049   2.314   4.179   6.159 -0.0516  0.1814  0.1720
 1103YOPC   GL215050   2.533   4.485   6.283  0.2692  0.0941 -0.0034
 1103YOPC   C1A15051   2.202   4.139   6.596  0.0760 -0.1372  0.0235
 1103YOPC   D2A15052   2.280   4.086   7.023  0.1367  0.0542 -0.4173
 1103YOPC   C3A15053   2.056   3.966   7.364  0.1674  0.0004 -0.4160
 1103YOPC   C4A15054   2.057   3.790   7.793 -0.4089  0.0584  0.0080
 1103YOPC   C1B15055   2.479   4.563   6.726  0.1448  0.2353 -0.2400
 1103YOPC   C2B15056   2.483   4.792   7.100  0.3180  0.0959 -0.0726
 1103YOPC   D3B15057   2.221   4.622   7.407 -0.1325 -0.1014  0.0907
 1103YOPC   C4B15058   1.972   4.326   7.749 -0.2455 -0.1336 -0.1396
 1104YOPC   NC315059  11.046  16.719   5.529  0.0229  0.1555 -0.2565
 1104YOPC   PO415060  11.185  16.324   5.704 -0.0854 -0.1670  0.2034
 1104YOPC   GL115061  11.344  16.110   5.890  0.1131  0.0942  0.1684
 1104YOPC   GL215062  11.335  16.248   6.177  0.2599 -0.0506 -0.1622
 1104YOPC   C1A15063  11.172  15.701   6.161  0.2284  0.1194 -0.3320
 1104YOPC   D2A15064  10.865  15.597   6.570 -0.0251  0.3491  0.0008
 1104YOPC   C3A15065  10.706  15.670   7.051 -0.2260  0.0346  0.0017
 1104YOPC   C4A15066  10.499  16.027   7.225 -0.5063  0.0307 -0.0407
 1104YOPC   C1B15067  11.212  16.046   6.564  0.1705 -0.0927 -0.3105
 1104YOPC   C2B15068  10.895  16.119   6.872 -0.1420 -0.0508 -0.1436
 1104YOPC   D3B15069  11.016  16.123   7.356  0.0619  0.0885  0.1526
 1104YOPC   C4B15070  11.023  15.949   7.846  0.0357  0.1031  0.1552
 1105YOPC   NC315071  18.036  13.605   5.371 -0.1917  0.2142 -0.4257
 1105YOPC   PO415072  18.195  13.701   5.845  0.1376 -0.0363 -0.1539
 1105YOPC   GL115073  18.320  13.693   6.215 -0.0886 -0.1159 -0.1162
 1105YOPC   GL215074  18.158  14.018   6.342 -0.0452 -0.0144 -0.1161
 1105YOPC   C1A15075  18.482  13.683   6.605  0.1095 -0.0606 -0.1668
 1105YOPC   D2A15076  18.586  13.900   7.050 -0.2109 -0.5160 -0.3611
 1105YOPC   C3A15077  18.823  13.937   7.266  0.1612  0.0929  0.1738
 1105YOPC   C4A15078  18.894  13.687   7.505 -0.3377  0.0822 -0.1599
 1105YOPC   C1B15079  18.148  14.283   6.780 -0.0062  0.0460 -0.0288
 1105YOPC   C2B15080  17.889  14.353   7.129 -0.1317 -0.1090 -0.3091
 1105YOPC   D3B15081  18.007  14.251   7.517 -0.0835  0.0317  0.0834
 1105YOPC   C4B15082  18.105  14.640   7.800  0.1016  0.0388  0.0678
 1106YOPC   NC315083   3.601  13.463   5.880  0.0431  0.0835 -0.4787
 1106YOPC   PO415084   3.306  13.176   5.981 -0.0490  0.0521 -0.0544
 1106YOPC   GL115085   3.308  13.176   6.358 -0.0080  0.0290 -0.0975
 1106YOPC   GL215086   3.390  13.559   6.504 -0.0540  0.0481 -0.0038
 1106YOPC   C1A15087   3.352  12.996   6.791 -0.0204 -0.0533 -0.0241
 1106YOPC   D2A15088   3.455  12.769   7.135  0.1243 -0.1888 -0.0262
 1106YOPC   C3A15089   3.556  12.397   7.215 -0.0980  0.2486 -0.0950
 1106YOPC   C4A15090   3.828  12.145   7.374  0.0901 -0.0442  0.0091
 1106YOPC   C1B15091   3.220  13.495   6.913  0.1646  0.0179  0.0955
 1106YOPC   C2B15092   3.314  13.256   7.301 -0.0306  0.1570  0.2467
 1106YOPC   D3B15093   2.971  13.097   7.585  0.1151 -0.1821 -0.4500
 1106YOPC   C4B15094   2.626  13.006   7.870 -0.3150 -0.3688  0.0059
 1107YOPC   NC315095  17.543   9.890   5.023  0.2248  0.1520  0.0661
 1107YOPC   PO415096  17.611   9.991   5.486  0.2233  0.0437  0.1866
 1107YOPC   GL115097  17.584   9.955   5.927  0.1564  0.1041 -0.1496
 1107YOPC   GL215098  17.443   9.835   6.187 -0.3560 -0.1150  0.1376
 1107YOPC   C1A15099  17.876  10.019   6.256  0.0236  0.1562 -0.2591
 1107YOPC   D2A15100  18.053  10.369   6.376  0.1340 -0.3219  0.0335
 1107YOPC   C3A15101  18.343  10.589   6.307  0.0098  0.1453 -0.0934
 1107YOPC   C4A15102  18.576  10.692   6.657  0.0488  0.1380 -0.2341
 1107YOPC   C1B15103  17.499   9.910   6.645  0.1023 -0.0253 -0.1064
 1107YOPC   C2B15104  17.422  10.079   7.081 -0.1461  0.2709  0.0256
 1107YOPC   D3B15105  17.655  10.197   7.423 -0.2106  0.1230 -0.2503
 1107YOPC   C4B15106  17.711  10.288   7.796  0.2316  0.0827 -0.0889
 1108YOPC   NC315107  12.587   6.481   6.213  0.2109  0.2346 -0.2340
 1108YOPC   PO415108  12.980   6.439   6.314  0.1446  0.1402 -0.0274
 1108YOPC   GL115109  13.194   6.440   6.719  0.0501 -0.0700  0.1970
 1108YOPC   GL215110  13.451   6.376   6.799 -0.3073  0.0941 -0.1313
 1108YOPC   C1A15111  13.096   6.396   7.129  0.0349  0.4087 -0.0989
 1108YOPC   D2A15112  13.129   6.533   7.515 -0.3613 -0.1971 -0.0623
 1108YOPC   C3A15113  13.305   6.323   7.730  0.1525  0.3801 -0.0679
 1108YOPC   C4A15114  13.527   6.076   7.938 -0.4124  0.0737  0.1173
 1108YOPC   C1B15115  13.529   6.161   7.015 -0.0641  0.1994 -0.1626
 1108YOPC   C2B15116  13.702   6.146   7.470  0.1966 -0.1135  0.0613
 1108YOPC   D3B15117  13.781   6.463   7.739 -0.0081  0.0998 -0.2482
 1108YOPC   C4B15118  13.994   6.899   7.753 -0.2661 -0.0378  0.2878
 1109YOPC   NC315119  13.558   5.190   5.521 -0.2374  0.4760  0.2152
 1109YOPC   PO415120  13.773   5.482   5.791 -0.0588  0.2661  0.0859
 1109YOPC   GL115121  13.594   5.497   6.245 -0.1234  0.0226  0.0509
 1109YOPC   GL215122  13.433   5.299   6.440 -0.2660  0.0221  0.0262
 1109YOPC   C1A15123  13.543   5.713   6.652  0.3100  0.0961  0.0306
 1109YOPC   D2A15124  13.532   5.656   7.098 -0.0472 -0.3659 -0.1242
 1109YOPC   C3A15125  13.917   5.407   7.411  0.0953 -0.0643  0.1033
 1109YOPC   C4A15126  14.151   5.279   7.840 -0.0962 -0.3169 -0.0614
 1109YOPC   C1B15127  13.449   5.122   6.911 -0.0735 -0.0238  0.0287
 1109YOPC   C2B15128  13.611   4.953   7.349  0.2835  0.1731 -0.1019
 1109YOPC   D3B15129  13.638   4.999   7.770  0.3033 -0.1455  0.0714
 1109YOPC   C4B15130  13.902   4.810   8.061 -0.2961  0.0943 -0.1857
 1110YOPC   NC315131   0.047   6.519   5.649 -0.1493  0.0616  0.0691
 1110YOPC   PO415132   0.482   6.369   5.764  0.1808 -0.4924  0.1733
 1110YOPC   GL115133   0.403   6.217   6.149 -0.0534  0.0968  0.0288
 1110YOPC   GL215134   0.620   6.322   6.303 -0.1090  0.1828 -0.3453
 1110YOPC   C1A15135   0.170   6.195   6.576  0.0032  0.2370 -0.0172
 1110YOPC   D2A15136   0.299   6.081   7.037 -0.0630  0.1310  0.1518
 1110YOPC   C3A15137   0.452   6.387   7.302  0.2099  0.1749 -0.2402
 1110YOPC   C4A15138   0.614   6.738   7.477  0.1826  0.0924 -0.0574
 1110YOPC   C1B15139   0.690   6.298   6.724  0.0475  0.2484  0.2052
 1110YOPC   C2B15140   0.797   6.621   7.019  0.0099  0.2081  0.0455
 1110YOPC   D3B15141   0.992   6.378   7.371 -0.1965 -0.0137 -0.0022
 1110YOPC   C4B15142   1.318   6.603   7.393 -0.3172  0.0787  0.2821
 1111YOPC   NC315143   9.049   5.007   5.373 -0.0676  0.2626 -0.1005
 1111YOPC   PO415144   8.718   5.089   5.497  0.3283 -0.0889 -0.1006
 1111YOPC   GL115145   8.481   5.058   5.952 -0.0887 -0.3176 -0.0807
 1111YOPC   GL215146   8.448   5.390   6.121 -0.2426  0.2408  0.1868
 1111YOPC   C1A15147   8.367   4.857   6.324  0.1270  0.2510  0.0528
 1111YOPC   D2A15148   8.317   4.977   6.754 -0.0254 -0.1610  0.0933
 1111YOPC   C3A15149   8.393   4.878   7.149 -0.1804  0.0000  0.2183
 1111YOPC   C4A15150   8.602   5.105   7.400  0.1313 -0.3528  0.3086
 1111YOPC   C1B15151   8.544   5.355   6.518 -0.0240  0.2266  0.1077
 1111YOPC   C2B15152   8.553   5.383   6.964 -0.2162  0.3385 -0.0605
 1111YOPC   D3B15153   8.953   5.319   7.132 -0.1202 -0.0967  0.0210
 1111YOPC   C4B15154   9.095   5.357   7.601 -0.0962 -0.0186 -0.1131
 1112YOPC   NC315155   4.698   9.373   5.522  0.0560  0.2765 -0.2278
 1112YOPC   PO415156   5.195   9.543   5.607  0.3353  0.3963 -0.2454
 1112YOPC   GL115157   5.163   9.465   5.945 -0.0714 -0.2622 -0.0879
 1112YOPC   GL215158   5.292   9.700   6.188  0.0061  0.0884  0.0837
 1112YOPC   C1A15159   5.343   9.242   6.381  0.2326 -0.0345  0.4137
 1112YOPC   D2A15160   5.302   9.316   6.844  0.1084  0.0594  0.1776
 1112YOPC   C3A15161   5.566   9.311   7.131 -0.2334 -0.2521  0.1940
 1112YOPC   C4A15162   5.961   9.199   7.349  0.1323  0.4073 -0.2239
 1112YOPC   C1B15163   5.362   9.791   6.506 -0.2530 -0.0697 -0.1595
 1112YOPC   C2B15164   5.286  10.166   6.744 -0.2197 -0.1357  0.2429
 1112YOPC   D3B15165   5.364  10.234   7.145 -0.0836 -0.0401 -0.2122
 1112YOPC   C4B15166   5.155  10.320   7.514  0.0805  0.0783  0.0359
 1113YOPC   NC315167   1.216   9.318   5.207  0.0610  0.0324 -0.0022
 1113YOPC   PO415168   1.314   9.027   5.598 -0.1344 -0.2333  0.0096
 1113YOPC   GL115169   1.345   9.059   6.014  0.3485 -0.2267  0.4558
 1113YOPC   GL215170   1.408   9.380   6.081  0.2652 -0.0470 -0.1952
 1113YOPC   C1A15171   1.164   9.266   6.487 -0.0777 -0.0674 -0.1293
 1113YOPC   D2A15172   0.968   9.389   6.933  0.1186  0.1591 -0.3298
 1113YOPC   C3A15173   0.650   9.009   7.172 -0.0109  0.0005  0.2085
 1113YOPC   C4A15174   0.265   8.647   7.249 -0.3951  0.2193 -0.0031
 1113YOPC   C1B15175   1.722   9.409   6.445  0.0658 -0.2821  0.0629
 1113YOPC   C2B15176   2.045   9.565   6.597  0.0818  0.6941 -0.1484
 1113YOPC   D3B15177   1.872   9.438   6.929 -0.1511 -0.1106  0.0723
 1113YOPC   C4B15178   1.703   9.649   7.247  0.0192 -0.1389  0.0076
 1114YOPC   NC315179  13.982  14.162   5.965 -0.2768  0.0966  0.0493
 1114YOPC   PO415180  13.750  13.898   5.771  0.0956  0.1765 -0.2086
 1114YOPC   GL115181  13.781  13.559   6.085  0.0708 -0.3508  0.0626
 1114YOPC   GL215182  13.435  13.607   6.116  0.2874  0.1215  0.2238
 1114YOPC   C1A15183  13.628  13.364   6.530 -0.4620  0.0025 -0.4050
 1114YOPC   D2A15184  13.550  13.307   6.950 -0.1043 -0.2149  0.1320
 1114YOPC   C3A15185  13.282  13.298   7.263 -0.0026 -0.5168 -0.2093
 1114YOPC   C4A15186  13.109  13.166   7.600  0.1182  0.0366 -0.0723
 1114YOPC   C1B15187  13.093  13.797   6.362 -0.1745  0.0297 -0.3890
 1114YOPC   C2B15188  12.712  13.962   6.621  0.0181  0.0614  0.1343
 1114YOPC   D3B15189  12.504  14.018   7.051 -0.0351  0.0934  0.1561
 1114YOPC   C4B15190  12.590  13.928   7.446  0.1005 -0.1702  0.1719
 1115YOPC   NC315191  14.510   3.436   5.763 -0.0352 -0.1524  0.1514
 1115YOPC   PO415192  14.768   3.123   5.876  0.0655  0.0561 -0.2939
 1115YOPC   GL115193  14.467   3.174   6.207  0.0380  0.0166 -0.1771
 1115YOPC   GL215194  14.153   3.044   6.296 -0.1504  0.2784  0.1692
 1115YOPC   C1A15195  14.457   3.159   6.628 -0.1010  0.0673 -0.2473
 1115YOPC   D2A15196  14.503   3.184   7.047 -0.0183 -0.2827  0.2281
 1115YOPC   C3A15197  14.574   3.265   7.452 -0.1115 -0.0383 -0.0601
 1115YOPC   C4A15198  14.528   3.078   7.818  0.1077  0.1943  0.3003
 1115YOPC   C1B15199  14.498   2.707   6.324 -0.2147  0.0942  0.0463
 1115YOPC   C2B15200  14.674   2.307   6.461  0.1059 -0.1759 -0.0368
 1115YOPC   D3B15201  14.513   2.119   6.811  0.1547  0.0373  0.1163
 1115YOPC   C4B15202  14.361   2.287   7.170  0.2149 -0.3114  0.2712
 1116YOPC   NC315203   7.111   5.220   5.462  0.0894 -0.0075  0.2803
 1116YOPC   PO415204   7.142   5.407   5.852 -0.2594  0.1465  0.4272
 1116YOPC   GL115205   6.914   5.576   6.072  0.3126 -0.0039 -0.1901
 1116YOPC   GL215206   6.868   5.836   6.072 -0.2599  0.1168 -0.2821
 1116YOPC   C1A15207   6.638   5.528   6.429 -0.1064  0.1620  0.2504
 1116YOPC   D2A15208   6.548   5.529   6.843  0.2166  0.4843  0.0704
 1116YOPC   C3A15209   6.664   5.865   7.175 -0.2111  0.0480  0.1451
 1116YOPC   C4A15210   6.879   6.151   7.485  0.1989  0.0675 -0.1806
 1116YOPC   C1B15211   6.891   6.305   6.181  0.0603 -0.0213 -0.0136
 1116YOPC   C2B15212   6.551   6.509   6.121 -0.3523  0.0500  0.0134
 1116YOPC   D3B15213   6.358   6.606   6.461  0.0603  0.1783  0.1167
 1116YOPC   C4B15214   6.309   6.512   6.849 -0.0574  0.3163  0.0435
 1117YOPC   NC315215  10.480   5.731   5.348 -0.0333 -0.1102  0.0536
 1117YOPC   PO415216  10.259   5.501   5.702  0.0862 -0.0359 -0.1760
 1117YOPC   GL115217  10.188   5.455   6.186  0.1063 -0.1091 -0.1305
 1117YOPC   GL215218  10.080   5.076   6.187 -0.0167  0.1072 -0.2858
 1117YOPC   C1A15219   9.955   5.531   6.424 -0.2062  0.1228 -0.3168
 1117YOPC   D2A15220   9.919   5.446   6.892  0.0825  0.0273  0.0977
 1117YOPC   C3A15221   9.732   5.735   7.086 -0.0498  0.0109  0.1242
 1117YOPC   C4A15222   9.560   6.109   7.289 -0.1750 -0.0333  0.1623
 1117YOPC   C1B15223  10.355   5.207   6.581 -0.1922  0.1989  0.2980
 1117YOPC   C2B15224  10.768   5.356   6.820 -0.0864  0.1095 -0.1234
 1117YOPC   D3B15225  10.586   5.273   7.228 -0.1946  0.0057 -0.2127
 1117YOPC   C4B15226  10.360   5.219   7.604  0.0391  0.3220  0.4120
 1118YOPC   NC315227   1.890  10.980   5.770 -0.0087  0.1007  0.1468
 1118YOPC   PO415228   2.052  11.456   5.842  0.0976  0.2492  0.0279
 1118YOPC   GL115229   1.803  11.468   6.131 -0.0396 -0.1325 -0.0597
 1118YOPC   GL215230   1.872  11.182   6.250  0.1531 -0.0234 -0.0207
 1118YOPC   C1A15231   1.611  11.697   6.519  0.1657  0.2342  0.0574
 1118YOPC   D2A15232   1.711  11.811   6.931 -0.2751  0.3020 -0.0554
 1118YOPC   C3A15233   2.002  11.718   7.194 -0.0629  0.0141 -0.0715
 1118YOPC   C4A15234   2.189  11.711   7.590 -0.2061 -0.0186  0.0745
 1118YOPC   C1B15235   1.734  10.982   6.658  0.1801  0.1457  0.1715
 1118YOPC   C2B15236   1.229  10.923   6.792 -0.1386 -0.1102 -0.0037
 1118YOPC   D3B15237   1.073  10.519   6.642  0.1662 -0.0582  0.1253
 1118YOPC   C4B15238   1.276  10.157   6.729  0.2486 -0.1610  0.0568
 1119YOPC   NC315239  17.601  12.716   5.161  0.2988  0.0219  0.1282
 1119YOPC   PO415240  17.467  12.897   5.519 -0.0469  0.0110 -0.0953
 1119YOPC   GL115241  17.333  12.886   6.012 -0.1827 -0.0520 -0.0015
 1119YOPC   GL215242  17.656  12.938   6.110 -0.0825 -0.1646 -0.1324
 1119YOPC   C1A15243  17.431  12.790   6.511  0.0586  0.0504  0.5047
 1119YOPC   D2A15244  17.641  12.794   6.846 -0.3630  0.0774  0.0752
 1119YOPC   C3A15245  17.613  12.751   7.226 -0.0190 -0.0308  0.1572
 1119YOPC   C4A15246  17.877  12.864   7.426 -0.1709 -0.4339  0.1763
 1119YOPC   C1B15247  17.801  13.130   6.473 -0.0651  0.3118  0.2053
 1119YOPC   C2B15248  17.771  13.227   6.992  0.0027 -0.1014  0.0220
 1119YOPC   D3B15249  18.043  13.385   7.324  0.1180  0.3537 -0.0524
 1119YOPC   C4B15250  17.830  13.689   7.565 -0.3776 -0.2778  0.3303
 1120YOPC   NC315251   3.518   2.293   5.963  0.0967 -0.1807  0.1222
 1120YOPC   PO415252   3.639   2.697   5.934 -0.1911 -0.0373  0.0028
 1120YOPC   GL115253   3.824   2.700   6.320 -0.1266  0.2923  0.0447
 1120YOPC   GL215254   3.613   2.996   6.443  0.0912 -0.1953  0.0094
 1120YOPC   C1A15255   3.897   2.552   6.733  0.1940  0.2763 -0.2760
 1120YOPC   D2A15256   3.929   2.471   7.027  0.0512  0.1141 -0.1379
 1120YOPC   C3A15257   3.850   2.485   7.464 -0.0283 -0.0724 -0.0298
 1120YOPC   C4A15258   3.895   2.606   8.031 -0.0940  0.1104  0.0785
 1120YOPC   C1B15259   3.580   3.037   6.867 -0.0513  0.0607 -0.0937
 1120YOPC   C2B15260   3.703   3.018   7.353  0.1093 -0.0770 -0.2713
 1120YOPC   D3B15261   3.889   3.047   7.679  0.0470  0.0108 -0.5063
 1120YOPC   C4B15262   4.239   2.952   7.977 -0.4346 -0.1311 -0.1366
 1121YOPC   NC315263   1.072   0.798   5.851  0.4747 -0.1794 -0.2342
 1121YOPC   PO415264   1.305   0.542   5.509  0.0392 -0.1224 -0.3405
 1121YOPC   GL115265   1.521   0.657   5.964  0.0039  0.0340 -0.0521
 1121YOPC   GL215266   1.850   0.811   5.945  0.0212  0.2931  0.2253
 1121YOPC   C1A15267   1.658   0.488   6.395 -0.1021  0.0768 -0.0345
 1121YOPC   D2A15268   1.936   0.529   6.750 -0.0761 -0.1754  0.1839
 1121YOPC   C3A15269   1.802   0.551   7.148 -0.0868 -0.0606 -0.1262
 1121YOPC   C4A15270   1.441   0.526   7.307 -0.3148  0.0294 -0.0558
 1121YOPC   C1B15271   1.844   1.010   6.259 -0.0946 -0.3788  0.1117
 1121YOPC   C2B15272   2.121   1.073   6.528  0.0632  0.3341  0.0317
 1121YOPC   D3B15273   2.217   0.923   6.936  0.1687  0.2476 -0.2326
 1121YOPC   C4B15274   2.169   0.963   7.327  0.0354  0.1136 -0.0643
 1122YOPC   NC315275   2.516  11.591   5.746  0.2664 -0.0199  0.1003
 1122YOPC   PO415276   2.901  11.267   5.907  0.0765 -0.1367  0.1165
 1122YOPC   GL115277   2.952  11.245   6.288  0.3135  0.1106 -0.0796
 1122YOPC   GL215278   3.213  11.176   6.427 -0.0059  0.1140 -0.0949
 1122YOPC   C1A15279   2.807  11.092   6.716  0.2499 -0.1129 -0.0219
 1122YOPC   D2A15280   2.867  11.209   7.061 -0.1040  0.0832 -0.3776
 1122YOPC   C3A15281   2.961  11.009   7.498 -0.0395 -0.2816 -0.2449
 1122YOPC   C4A15282   2.697  10.943   7.851  0.1459  0.1382  0.2862
 1122YOPC   C1B15283   3.293  11.033   6.866 -0.0059 -0.0746 -0.0845
 1122YOPC   C2B15284   3.415  10.917   7.289  0.0889  0.0705  0.1104
 1122YOPC   D3B15285   3.583  10.436   7.374  0.0608 -0.1999  0.0140
 1122YOPC   C4B15286   3.813  10.101   7.647 -0.1853 -0.2816  0.1689
 1123YOPC   NC315287  14.094   0.702   5.984 -0.2107  0.2921 -0.0152
 1123YOPC   PO415288  13.863   0.510   6.161 -0.0486 -0.1380  0.4060
 1123YOPC   GL115289  13.855   0.285   6.535 -0.0074 -0.2947  0.0928
 1123YOPC   GL215290  13.697   0.039   6.494  0.0658  0.0371  0.1967
 1123YOPC   C1A15291  13.963   0.245   6.999  0.1121  0.1703 -0.1258
 1123YOPC   D2A15292  13.939   0.240   7.424  0.1207  0.1283  0.0450
 1123YOPC   C3A15293  13.728   0.493   7.690 -0.2119 -0.0640  0.5978
 1123YOPC   C4A15294  13.538   0.509   8.130  0.1683  0.2110  0.2236
 1123YOPC   C1B15295  13.658  -0.156   6.913 -0.0011  0.2690 -0.2104
 1123YOPC   C2B15296  13.670  -0.401   7.343  0.0893  0.1149  0.2273
 1123YOPC   D3B15297  13.679  -0.272   7.740 -0.0103 -0.0048  0.1887
 1123YOPC   C4B15298  13.685  -0.375   8.182  0.0486  0.2140  0.2929
 1124YOPC   NC315299  12.410   9.961   5.719 -0.2167  0.1397 -0.1994
 1124YOPC   PO415300  12.306   9.620   5.858  0.2477  0.2207 -0.0808
 1124YOPC   GL115301  12.208   9.344   6.276  0.1021 -0.0024 -0.0490
 1124YOPC   GL215302  12.369   9.048   6.302 -0.3154 -0.1326  0.4019
 1124YOPC   C1A15303  11.961   9.191   6.506 -0.0586 -0.0133 -0.0330
 1124YOPC   D2A15304  11.586   9.183   6.845 -0.1592 -0.1493 -0.1251
 1124YOPC   C3A15305  11.499   8.854   7.019 -0.1120  0.0084 -0.0951
 1124YOPC   C4A15306  11.270   8.487   7.221  0.4317  0.0818 -0.1515
 1124YOPC   C1B15307  12.165   8.758   6.555 -0.0343 -0.1995  0.0109
 1124YOPC   C2B15308  12.290   8.434   6.678 -0.2046  0.1133 -0.0262
 1124YOPC   D3B15309  12.097   8.193   7.000  0.0563 -0.0115  0.0376
 1124YOPC   C4B15310  12.115   7.930   7.267 -0.1282 -0.3358 -0.1871
 1125YOPC   NC315311   8.978  14.464   5.332  0.1342  0.2189 -0.2235
 1125YOPC   PO415312   9.265  14.767   5.307  0.0164 -0.0567 -0.1840
 1125YOPC   GL115313   9.150  14.895   5.724 -0.0808 -0.1204  0.0031
 1125YOPC   GL215314   9.507  14.967   5.930 -0.0429  0.2339 -0.1555
 1125YOPC   C1A15315   8.760  14.755   5.908  0.1166 -0.0926  0.1606
 1125YOPC   D2A15316   8.586  14.385   6.062 -0.1263 -0.0572  0.0261
 1125YOPC   C3A15317   8.681  14.293   6.439 -0.1787 -0.0153  0.1338
 1125YOPC   C4A15318   8.642  14.650   6.729 -0.1546  0.0804  0.0783
 1125YOPC   C1B15319   9.489  14.827   6.346  0.1882 -0.1545  0.4001
 1125YOPC   C2B15320   9.277  14.771   6.666  0.0410 -0.2359 -0.1019
 1125YOPC   D3B15321   9.218  14.274   6.823  0.3148  0.2445  0.0626
 1125YOPC   C4B15322   9.253  13.966   7.149 -0.1944 -0.0448 -0.4054
 1126YOPC   NC315323   4.662  14.586   5.469 -0.0862 -0.1094 -0.1711
 1126YOPC   PO415324   4.611  14.517   5.960 -0.2571  0.3453  0.1136
 1126YOPC   GL115325   4.693  14.673   6.353  0.0865  0.1986  0.0674
 1126YOPC   GL215326   4.781  14.969   6.181 -0.1701 -0.0700  0.2686
 1126YOPC   C1A15327   4.635  14.561   6.870  0.1510  0.0453  0.0463
 1126YOPC   D2A15328   4.677  14.521   7.369 -0.1857  0.3245  0.0571
 1126YOPC   C3A15329   5.088  14.457   7.620 -0.0744 -0.0989  0.0352
 1126YOPC   C4A15330   5.455  14.555   7.875  0.2433 -0.0481 -0.3038
 1126YOPC   C1B15331   4.878  15.029   6.644 -0.2369  0.1178  0.0094
 1126YOPC   C2B15332   4.789  15.003   7.084 -0.1026 -0.3396  0.0105
 1126YOPC   D3B15333   4.986  14.876   7.310  0.1247 -0.2634  0.1783
 1126YOPC   C4B15334   5.451  14.858   7.441  0.2511 -0.0225 -0.1397
 1127YOPC   NC315335  17.529   4.602   5.447  0.1216 -0.2173  0.2532
 1127YOPC   PO415336  17.318   5.009   5.589  0.4090 -0.2737  0.2444
 1127YOPC   GL115337  17.539   4.944   5.913  0.1540 -0.0565 -0.0179
 1127YOPC   GL215338  17.846   4.929   5.901  0.0160  0.0332  0.2077
 1127YOPC   C1A15339  17.542   4.686   6.293  0.1306  0.0525 -0.2769
 1127YOPC   D2A15340  17.629   4.337   6.306 -0.1958 -0.2850 -0.0014
 1127YOPC   C3A15341  17.882   4.073   6.591  0.1275  0.1790 -0.1339
 1127YOPC   C4A15342  18.305   4.222   6.728 -0.1297  0.0118 -0.0570
 1127YOPC   C1B15343  18.058   4.648   6.164 -0.1919 -0.2779  0.0748
 1127YOPC   C2B15344  18.345   4.359   6.054 -0.2684  0.1547 -0.1583
 1127YOPC   D3B15345  18.359   4.018   6.280  0.2591 -0.0382  0.1986
 1127YOPC   C4B15346  18.086   3.661   6.432  0.2733  0.0039  0.0466
 1128YOPC   NC315347   3.172   6.731   5.380  0.0190  0.0829 -0.1270
 1128YOPC   PO415348   3.509   6.977   5.365 -0.0303 -0.2980  0.2556
 1128YOPC   GL115349   3.677   7.262   5.649  0.0915 -0.0497 -0.3542
 1128YOPC   GL215350   3.866   7.119   5.849  0.0456  0.1836 -0.0067
 1128YOPC   C1A15351   3.333   7.439   5.964  0.2021  0.0147 -0.1555
 1128YOPC   D2A15352   3.187   7.603   6.297 -0.0665 -0.2704  0.2843
 1128YOPC   C3A15353   3.286   8.058   6.323  0.1252 -0.0139  0.3003
 1128YOPC   C4A15354   3.098   8.158   6.688  0.0292  0.1154 -0.0381
 1128YOPC   C1B15355   3.750   7.121   6.248 -0.2534  0.0886  0.2200
 1128YOPC   C2B15356   3.381   7.117   6.349 -0.2111  0.0539 -0.0607
 1128YOPC   D3B15357   3.285   7.171   6.635  0.2007  0.0411 -0.0606
 1128YOPC   C4B15358   3.222   7.278   7.046 -0.0400 -0.0201  0.0876
 1129YOPC   NC315359   0.905   4.216   5.849  0.0199  0.2018  0.0624
 1129YOPC   PO415360   1.261   3.868   5.977  0.0943 -0.0474 -0.1401
 1129YOPC   GL115361   1.439   3.917   6.319 -0.0823 -0.1749 -0.3313
 1129YOPC   GL215362   1.649   4.152   6.571 -0.0703  0.1307  0.0410
 1129YOPC   C1A15363   1.427   3.686   6.680 -0.1656  0.1634  0.1130
 1129YOPC   D2A15364   1.574   3.586   7.068 -0.0819 -0.1668  0.0385
 1129YOPC   C3A15365   1.450   3.804   7.434  0.0736 -0.1513 -0.0845
 1129YOPC   C4A15366   1.548   3.863   7.796  0.0333 -0.1238 -0.1623
 1129YOPC   C1B15367   1.644   4.082   7.064 -0.0862  0.0760  0.1531
 1129YOPC   C2B15368   1.666   4.266   7.381 -0.2027 -0.1068  0.3274
 1129YOPC   D3B15369   1.717   4.684   7.400 -0.0206  0.0635 -0.1589
 1129YOPC   C4B15370   1.429   4.852   7.668  0.0496  0.0626  0.0189
 1130YOPC   NC315371   5.098  15.430   5.667 -0.1798 -0.0262 -0.2517
 1130YOPC   PO415372   4.836  15.332   5.856 -0.2140  0.2267  0.1445
 1130YOPC   GL115373   4.777  15.450   6.345  0.0600 -0.1399  0.0841
 1130YOPC   GL215374   4.914  15.779   6.416 -0.0023 -0.1146 -0.0387
 1130YOPC   C1A15375   4.684  15.435   6.866  0.1806 -0.0635 -0.3239
 1130YOPC   D2A15376   4.616  15.487   7.311 -0.0502 -0.1655 -0.2172
 1130YOPC   C3A15377   4.592  15.059   7.540  0.1372  0.0741  0.1533
 1130YOPC   C4A15378   4.487  14.787   7.907  0.1258  0.3952 -0.1146
 1130YOPC   C1B15379   4.931  15.858   6.881  0.0469  0.0855  0.3192
 1130YOPC   C2B15380   4.937  15.914   7.231 -0.0945 -0.2299 -0.0008
 1130YOPC   D3B15381   4.981  15.677   7.553 -0.2651 -0.0275 -0.1645
 1130YOPC   C4B15382   4.892  15.509   7.957 -0.0941 -0.2573 -0.1926
 1131YOPC   NC315383  12.375   8.479   5.687  0.1993  0.0034  0.0386
 1131YOPC   PO415384  11.991   8.634   5.871 -0.2720 -0.2264  0.0215
 1131YOPC   GL115385  11.761   8.935   6.103  0.1424  0.1798  0.3366
 1131YOPC   GL215386  11.513   8.723   6.135  0.0835  0.1172 -0.0330
 1131YOPC   C1A15387  11.493   9.259   6.313 -0.0773  0.3437 -0.4627
 1131YOPC   D2A15388  11.175   9.011   6.577  0.0772 -0.1098 -0.0477
 1131YOPC   C3A15389  11.022   9.032   7.019  0.1420 -0.0244 -0.0881
 1131YOPC   C4A15390  11.002   8.855   7.476  0.0305 -0.1253  0.0485
 1131YOPC   C1B15391  11.619   8.791   6.525  0.0620  0.1369 -0.2245
 1131YOPC   C2B15392  11.625   8.404   6.840  0.0548  0.3902  0.2038
 1131YOPC   D3B15393  11.786   8.476   7.247 -0.0784  0.2830 -0.2691
 1131YOPC   C4B15394  12.077   8.411   7.563  0.1753 -0.1372  0.2053
 1132YOPC   NC315395  16.283   9.572   5.663  0.0368  0.1925  0.1046
 1132YOPC   PO415396  16.697   9.708   5.619 -0.2789 -0.1990 -0.0191
 1132YOPC   GL115397  16.598   9.790   6.109  0.0095  0.2141 -0.0574
 1132YOPC   GL215398  16.598  10.098   6.251 -0.0581 -0.1293  0.0753
 1132YOPC   C1A15399  16.515   9.739   6.549 -0.2354 -0.0429  0.1129
 1132YOPC   D2A15400  16.512   9.801   6.905 -0.0249  0.2383  0.1158
 1132YOPC   C3A15401  16.299   9.826   7.334  0.0596 -0.1625  0.0615
 1132YOPC   C4A15402  16.196   9.972   7.731  0.2578 -0.3905 -0.1192
 1132YOPC   C1B15403  16.578  10.247   6.662  0.2065 -0.1578  0.4622
 1132YOPC   C2B15404  16.648  10.247   7.233  0.1009 -0.0277 -0.2262
 1132YOPC   D3B15405  16.668  10.678   7.428 -0.1114 -0.0958  0.1500
 1132YOPC   C4B15406  16.580  10.917   7.839 -0.2796  0.1972 -0.0420
 1133YOPC   NC315407  11.715   0.532   5.811  0.0129 -0.3876  0.0161
 1133YOPC   PO415408  12.015   0.645   6.137  0.2135  0.0670 -0.0923
 1133YOPC   GL115409  11.936   0.663   6.598  0.1400 -0.1757  0.3768
 1133YOPC   GL215410  11.654   0.583   6.733 -0.4347  0.1915 -0.0556
 1133YOPC   C1A15411  12.168   0.853   6.947  0.0560  0.2217 -0.1489
 1133YOPC   D2A15412  12.245   0.940   7.350 -0.1668  0.0899 -0.1410
 1133YOPC   C3A15413  12.442   1.156   7.736  0.0046  0.2210  0.1460
 1133YOPC   C4A15414  12.738   1.403   7.948 -0.0503 -0.2639 -0.1751
 1133YOPC   C1B15415  11.737   0.772   7.109 -0.1125 -0.2566  0.1029
 1133YOPC   C2B15416  11.770   0.937   7.532 -0.0086  0.2053 -0.2262
 1133YOPC   D3B15417  11.549   0.750   7.906  0.0304  0.0141 -0.1516
 1133YOPC   C4B15418  11.431   0.534   8.300  0.0864 -0.1591 -0.1845
 1134YOPC   NC315419   5.062   6.636   5.466 -0.0093  0.0458 -0.1223
 1134YOPC   PO415420   5.275   6.290   5.545 -0.2186  0.3192 -0.1281
 1134YOPC   GL115421   5.323   6.473   5.900  0.2216 -0.0616  0.1544
 1134YOPC   GL215422   5.168   6.789   6.008  0.1037 -0.0379  0.0237
 1134YOPC   C1A15423   5.481   6.487   6.351 -0.2234 -0.1714  0.0616
 1134YOPC   D2A15424   5.452   6.426   6.780  0.1104  0.0634 -0.0620
 1134YOPC   C3A15425   5.281   6.374   7.156 -0.3314 -0.0633 -0.3847
 1134YOPC   C4A15426   5.048   6.575   7.497 -0.1571 -0.1775 -0.1319
 1134YOPC   C1B15427   4.947   6.773   6.398  0.0871 -0.0585  0.3020
 1134YOPC   C2B15428   4.904   6.630   6.796 -0.2108  0.1040  0.0714
 1134YOPC   D3B15429   4.675   6.825   7.127  0.1144 -0.1943 -0.2722
 1134YOPC   C4B15430   4.713   7.065   7.487 -0.0449 -0.0858 -0.0691
 1135YOPC   NC315431  13.475   6.257   6.296  0.0642  0.1859 -0.1240
 1135YOPC   PO415432  13.798   5.990   6.029  0.1860  0.1307 -0.0070
 1135YOPC   GL115433  13.912   5.949   6.504 -0.2862  0.0383  0.0951
 1135YOPC   GL215434  13.902   6.152   6.579  0.1957 -0.0637 -0.7910
 1135YOPC   C1A15435  14.061   5.757   6.883 -0.1172 -0.0639  0.4088
 1135YOPC   D2A15436  14.018   5.825   7.236 -0.2094 -0.1532  0.1547
 1135YOPC   C3A15437  13.987   5.814   7.725 -0.1431  0.2001 -0.0464
 1135YOPC   C4A15438  14.082   6.028   8.060  0.3078  0.1377  0.1177
 1135YOPC   C1B15439  13.990   6.408   7.021  0.0957  0.0296 -0.1772
 1135YOPC   C2B15440  13.638   6.632   7.206  0.0773 -0.2389  0.1893
 1135YOPC   D3B15441  13.543   6.842   7.539 -0.1720 -0.1658  0.5781
 1135YOPC   C4B15442  13.474   6.841   7.977  0.1456  0.1114 -0.3636
 1136YOPC   NC315443  16.971   3.173   5.597 -0.1635  0.1816 -0.2440
 1136YOPC   PO415444  17.326   3.213   5.547 -0.1863  0.0426 -0.1299
 1136YOPC   GL115445  17.239   2.992   5.995  0.2039  0.2964 -0.0616
 1136YOPC   GL215446  17.325   2.656   6.074  0.1240 -0.1652 -0.0380
 1136YOPC   C1A15447  17.202   3.174   6.423 -0.0875  0.0612 -0.1172
 1136YOPC   D2A15448  17.214   3.440   6.732 -0.0269 -0.0743 -0.0463
 1136YOPC   C3A15449  17.558   3.531   7.077  0.0563 -0.0321  0.3736
 1136YOPC   C4A15450  17.579   3.539   7.487 -0.1061 -0.0214  0.0803
 1136YOPC   C1B15451  17.287   2.678   6.514  0.1845 -0.0315  0.2073
 1136YOPC   C2B15452  17.239   2.583   6.967 -0.0745  0.1165 -0.1125
 1136YOPC   D3B15453  17.287   2.681   7.346 -0.2387  0.2122  0.1704
 1136YOPC   C4B15454  17.297   2.668   7.801  0.0160  0.1200  0.1744
 1137YOPC   NC315455   7.434   2.372   5.468  0.3654  0.0930  0.0395
 1137YOPC   PO415456   7.826   2.624   5.634 -0.0875 -0.1048  0.2858
 1137YOPC   GL115457   7.840   2.508   5.994  0.2299  0.0898 -0.0121
 1137YOPC   GL215458   8.118   2.505   6.174  0.3829 -0.0028 -0.0597
 1137YOPC   C1A15459   7.648   2.469   6.477  0.1309 -0.0375  0.1151
 1137YOPC   D2A15460   7.592   2.400   6.934  0.0526 -0.1508  0.1909
 1137YOPC   C3A15461   7.951   2.243   7.131  0.1851 -0.1845  0.0950
 1137YOPC   C4A15462   8.039   2.372   7.561 -0.1797  0.0877  0.0235
 1137YOPC   C1B15463   7.825   2.058   6.141 -0.0910 -0.0066  0.0714
 1137YOPC   C2B15464   7.491   1.915   6.289 -0.0082 -0.3507  0.1210
 1137YOPC   D3B15465   7.261   2.064   6.600 -0.2399  0.1828  0.4941
 1137YOPC   C4B15466   6.886   2.139   6.727  0.1364 -0.2573  0.0014
 1138YOPC   NC315467   7.790  11.378   5.873  0.0417 -0.3281  0.3686
 1138YOPC   PO415468   8.154  11.359   5.981 -0.2394 -0.1610  0.3720
 1138YOPC   GL115469   8.192  11.225   6.345 -0.1283 -0.2506  0.5030
 1138YOPC   GL215470   8.178  11.550   6.437 -0.0488 -0.1995 -0.0648
 1138YOPC   C1A15471   8.107  10.963   6.760 -0.0721  0.1300 -0.1184
 1138YOPC   D2A15472   8.384  10.863   7.138  0.0166  0.2571  0.1130
 1138YOPC   C3A15473   8.778  10.732   7.212 -0.1525 -0.0237 -0.1983
 1138YOPC   C4A15474   9.226  10.640   7.193  0.1613  0.0495 -0.0950
 1138YOPC   C1B15475   8.158  11.381   6.952 -0.3384 -0.1982 -0.0807
 1138YOPC   C2B15476   8.399  11.276   7.403 -0.0400 -0.0481  0.2039
 1138YOPC   D3B15477   8.465  10.974   7.598  0.0639 -0.1928  0.0686
 1138YOPC   C4B15478   8.536  10.560   7.643  0.0643 -0.0745 -0.1024
 1139YOPC   NC315479   2.103   9.359   5.439 -0.0765  0.0464  0.0259
 1139YOPC   PO415480   2.025   9.825   5.463  0.2388 -0.0654 -0.1232
 1139YOPC   GL115481   2.170   9.762   5.917  0.2222  0.0314  0.1767
 1139YOPC   GL215482   1.836   9.836   6.058 -0.3768 -0.0195 -0.2492
 1139YOPC   C1A15483   2.434   9.851   6.329  0.1439  0.0011 -0.1896
 1139YOPC   D2A15484   2.491   9.712   6.709 -0.0272  0.0801 -0.0119
 1139YOPC   C3A15485   2.292   9.711   7.049  0.2460 -0.0444  0.0933
 1139YOPC   C4A15486   2.176   9.470   7.413 -0.2850 -0.4000  0.0516
 1139YOPC   C1B15487   1.583   9.862   6.359 -0.0420  0.0551 -0.0965
 1139YOPC   C2B15488   1.409   9.639   6.789 -0.0228 -0.2191 -0.3079
 1139YOPC   D3B15489   1.230   9.821   7.123 -0.0535 -0.2767  0.0874
 1139YOPC   C4B15490   1.082  10.227   7.168 -0.3295  0.0798  0.1524
 1140YOPC   NC315491   0.198   5.083   5.364  0.0533 -0.1939  0.0279
 1140YOPC   PO415492  -0.178   5.224   5.448  0.0171 -0.1746  0.0065
 1140YOPC   GL115493  -0.128   5.419   5.857 -0.1421  0.1037  0.1255
 1140YOPC   GL215494  -0.315   5.538   6.024  0.2293 -0.1541  0.1712
 1140YOPC   C1A15495   0.138   5.705   6.212  0.2570  0.1580 -0.4114
 1140YOPC   D2A15496   0.141   5.717   6.729 -0.2976  0.0041 -0.2583
 1140YOPC   C3A15497   0.004   5.648   7.112 -0.0934  0.0024  0.2796
 1140YOPC   C4A15498  -0.142   5.731   7.514 -0.0576  0.1783 -0.2639
 1140YOPC   C1B15499  -0.496   5.192   6.333  0.2244  0.0690 -0.2341
 1140YOPC   C2B15500  -0.300   4.916   6.613  0.0701 -0.0879 -0.2301
 1140YOPC   D3B15501  -0.420   4.586   6.684 -0.0573  0.0562  0.0143
 1140YOPC   C4B15502  -0.402   4.326   7.008 -0.0119 -0.0264 -0.1676
 1141YOPC   NC315503  18.008  12.437   5.344  0.2508 -0.2456  0.0635
 1141YOPC   PO415504  18.409  12.466   5.660 -0.1661  0.2475 -0.0978
 1141YOPC   GL115505  18.573  12.413   6.046  0.3154 -0.0411 -0.2187
 1141YOPC   GL215506  18.570  12.108   6.173 -0.0134 -0.0077  0.0515
 1141YOPC   C1A15507  18.554  12.554   6.522  0.0090 -0.4000  0.1510
 1141YOPC   D2A15508  18.647  12.656   6.927 -0.1726  0.2464 -0.1956
 1141YOPC   C3A15509  19.101  12.832   6.993  0.0151 -0.0991  0.1723
 1141YOPC   C4A15510  19.327  13.104   6.891 -0.2131 -0.0001 -0.0258
 1141YOPC   C1B15511  18.380  12.120   6.515  0.1965 -0.1225 -0.0552
 1141YOPC   C2B15512  18.577  12.153   6.837  0.0633  0.1359  0.0654
 1141YOPC   D3B15513  18.453  12.119   7.193 -0.1218  0.1092  0.0050
 1141YOPC   C4B15514  18.324  11.880   7.640  0.2616 -0.3911  0.3636
 1142YOPC   NC315515  10.700   0.930   6.022 -0.2504  0.1539 -0.0612
 1142YOPC   PO415516  10.911   1.335   5.936 -0.1402  0.1310  0.0529
 1142YOPC   GL115517  10.714   1.356   6.298 -0.0704 -0.0811 -0.0220
 1142YOPC   GL215518  11.003   1.456   6.477 -0.3414 -0.1009 -0.1448
 1142YOPC   C1A15519  10.287   1.389   6.502 -0.1873 -0.2127  0.1167
 1142YOPC   D2A15520   9.970   1.047   6.791 -0.0238 -0.1298  0.1944
 1142YOPC   C3A15521   9.993   1.011   7.262  0.0489 -0.0816  0.4302
 1142YOPC   C4A15522  10.263   0.966   7.681 -0.3895  0.1242  0.2370
 1142YOPC   C1B15523  10.713   1.443   6.763 -0.5195 -0.1888  0.1271
 1142YOPC   C2B15524  10.377   1.291   7.006 -0.1687 -0.2522 -0.0345
 1142YOPC   D3B15525  10.410   1.395   7.387 -0.1525 -0.2295 -0.0509
 1142YOPC   C4B15526  10.409   1.447   7.801 -0.1180 -0.0602 -0.0536
 1143YOPC   NC315527  16.196   3.491   5.502  0.2386 -0.1951  0.0782
 1143YOPC   PO415528  16.622   3.605   5.515  0.0921 -0.1946 -0.1142
 1143YOPC   GL115529  16.541   3.357   5.838 -0.0470 -0.2597  0.3341
 1143YOPC   GL215530  16.774   3.441   6.033 -0.1673  0.3456  0.0159
 1143YOPC   C1A15531  16.335   3.294   6.200  0.0169  0.1728 -0.3583
 1143YOPC   D2A15532  16.154   3.222   6.482  0.0665  0.2843 -0.1737
 1143YOPC   C3A15533  16.306   3.322   6.808 -0.3372  0.0843  0.0512
 1143YOPC   C4A15534  16.540   3.248   7.216 -0.2143 -0.0148  0.0706
 1143YOPC   C1B15535  16.715   3.427   6.512  0.1340  0.0796 -0.1922
 1143YOPC   C2B15536  16.728   3.618   6.960  0.0666  0.0985  0.1078
 1143YOPC   D3B15537  16.954   3.479   7.146 -0.2156  0.2520 -0.0075
 1143YOPC   C4B15538  17.045   3.490   7.539 -0.0475  0.2614 -0.1118
 1144ERGO   ROH15539   2.800   7.485   5.956 -0.0650  0.0305  0.0978
 1144ERGO    R115540   2.751   7.276   6.142  0.0119 -0.0419  0.0376
 1144ERGO    R215541   2.854   7.279   6.399  0.0374 -0.0946  0.0289
 1144ERGO    R315542   2.593   7.244   6.468  0.0541 -0.1884  0.0442
 1144ERGO    R415543   2.745   7.164   6.706  0.0900  0.1473  0.1395
 1144ERGO    R515544   2.594   7.046   6.603  0.1707 -0.0542  0.2463
 1144ERGO    C115545   2.437   7.065   6.950  0.1362  0.1999  0.2183
 1144ERGO    C215546   2.207   7.000   7.164 -0.0983  0.0418 -0.1336
 1145ERGO   ROH15547   0.511  17.892   6.131 -0.0804  0.1941  0.0666
 1145ERGO    R115548   0.602  17.793   6.380 -0.2088  0.0030  0.0401
 1145ERGO    R215549   0.655  17.958   6.596  0.1124 -0.1092  0.0526
 1145ERGO    R315550   0.482  17.792   6.724 -0.1604  0.1681  0.0589
 1145ERGO    R415551   0.689  17.851   6.923  0.0245 -0.2675  0.0108
 1145ERGO    R515552   0.623  17.653   6.859 -0.3647 -0.1351 -0.0265
 1145ERGO    C115553   0.547  17.632   7.233 -0.2828 -0.0995 -0.0076
 1145ERGO    C215554   0.488  17.536   7.520  0.0302  0.0574 -0.1991
 1146ERGO   ROH15555  15.187   8.828   6.215  0.0089  0.2455  0.0808
 1146ERGO    R115556  15.097   8.829   6.483 -0.2943  0.3281 -0.0170
 1146ERGO    R215557  15.269   8.802   6.698 -0.5957 -0.2947  0.1692
 1146ERGO    R315558  15.153   9.033   6.779 -0.0415  0.0005  0.1673
 1146ERGO    R415559  15.259   8.913   7.025 -0.4832 -0.3543  0.1935
 1146ERGO    R515560  15.054   8.979   6.991 -0.3043  0.1949  0.0975
 1146ERGO    C115561  15.144   9.196   7.292  0.1026 -0.1121  0.2057
 1146ERGO    C215562  15.001   9.214   7.645 -0.1462 -0.0792 -0.2297
 1147ERGO   ROH15563  14.951   0.357   6.860 -0.1538 -0.3294 -0.0009
 1147ERGO    R115564  15.013   0.328   7.135  0.1034 -0.1917 -0.0415
 1147ERGO    R215565  15.259   0.397   7.240  0.1109  0.1247 -0.2559
 1147ERGO    R315566  15.109   0.547   7.409  0.0682 -0.0117 -0.1711
 1147ERGO    R415567  15.347   0.477   7.564  0.0338 -0.1381 -0.1679
 1147ERGO    R515568  15.140   0.445   7.623  0.0171 -0.1874 -0.2444
 1147ERGO    C115569  15.257   0.664   7.912 -0.0512 -0.4192 -0.0372
 1147ERGO    C215570  15.382   0.901   8.100 -0.1535 -0.1138 -0.1726
 1148ERGO   ROH15571  12.907   3.204   6.385 -0.0555  0.4562 -0.0298
 1148ERGO    R115572  12.933   3.108   6.650  0.0025  0.3159 -0.0866
 1148ERGO    R215573  13.128   3.199   6.823 -0.0051  0.2737 -0.0621
 1148ERGO    R315574  12.916   3.248   6.985  0.0019  0.1229 -0.0034
 1148ERGO    R415575  13.144   3.227   7.167  0.0564  0.1857 -0.0564
 1148ERGO    R515576  12.957   3.116   7.180  0.1114  0.0866 -0.0476
 1148ERGO    C115577  12.953   3.289   7.519  0.0988 -0.0070  0.0019
 1148ERGO    C215578  12.902   3.187   7.813 -0.1851 -0.0088 -0.1204
 1149ERGO   ROH15579  17.363   7.345   6.153  0.0508  0.0066 -0.1366
 1149ERGO    R115580  17.422   7.125   6.322 -0.1089 -0.1068 -0.2276
 1149ERGO    R215581  17.502   6.879   6.224  0.3305  0.0703 -0.3157
 1149ERGO    R315582  17.712   6.917   6.392 -0.0530  0.0950  0.1861
 1149ERGO    R415583  17.669   6.627   6.391  0.5019 -0.0357 -0.6360
 1149ERGO    R515584  17.678   6.756   6.567 -0.0920 -0.4265 -0.2651
 1149ERGO    C115585  17.963   6.515   6.646  0.2416 -0.0742 -0.3513
 1149ERGO    C215586  18.226   6.488   6.948 -0.1141 -0.0324 -0.1031
 1150ERGO   ROH15587  13.242   8.102   6.190 -0.1789  0.1639  0.0344
 1150ERGO    R115588  13.197   8.012   6.454 -0.3359  0.1371  0.0001
 1150ERGO    R215589  13.370   8.070   6.662 -0.1645 -0.3337  0.0050
 1150ERGO    R315590  13.144   8.165   6.780  0.0520  0.1152  0.0777
 1150ERGO    R415591  13.293   8.037   6.998 -0.1453 -0.2073  0.0219
 1150ERGO    R515592  13.086   7.998   6.942 -0.2454  0.2150  0.0767
 1150ERGO    C115593  13.037   8.107   7.304  0.0691  0.2877  0.1000
 1150ERGO    C215594  13.047   8.120   7.553  0.2689  0.0472  0.1262
 1151ERGO   ROH15595  11.233   4.913   6.700 -0.1040 -0.2458  0.0783
 1151ERGO    R115596  11.236   4.944   6.981  0.0403 -0.0779  0.0599
 1151ERGO    R215597  11.321   5.176   7.104 -0.0829  0.0708 -0.1275
 1151ERGO    R315598  11.078   5.163   7.225 -0.0010 -0.0696  0.0249
 1151ERGO    R415599  11.181   5.428   7.295 -0.1343  0.0091 -0.0836
 1151ERGO    R515600  11.109   5.276   7.433  0.0513 -0.0152 -0.0136
 1151ERGO    C115601  10.871   5.562   7.519 -0.0874 -0.1587  0.0851
 1151ERGO    C215602  10.808   5.887   7.689 -0.2971  0.1140  0.0983
 1152ERGO   ROH15603   2.389   8.249   5.842  0.2160 -0.1918  0.0842
 1152ERGO    R115604   2.477   8.428   6.043  0.0953 -0.1719  0.1188
 1152ERGO    R215605   2.460   8.702   6.017  0.1404 -0.1779  0.0663
 1152ERGO    R315606   2.327   8.684   6.253 -0.0228 -0.1256 -0.0187
 1152ERGO    R415607   2.497   8.922   6.281  0.0037 -0.1489  0.0634
 1152ERGO    R515608   2.489   8.752   6.417 -0.1171 -0.1329  0.0815
 1152ERGO    C115609   2.394   9.033   6.657 -0.2290 -0.0831 -0.0181
 1152ERGO    C215610   2.355   9.238   6.840 -0.0459 -0.0551 -0.1106
 1153ERGO   ROH15611   1.244   2.336   5.743  0.0808  0.0724 -0.1557
 1153ERGO    R115612   1.258   2.169   5.971  0.1402  0.0979 -0.1412
 1153ERGO    R215613   1.487   2.145   6.124  0.1466  0.1959 -0.1384
 1153ERGO    R315614   1.320   2.212   6.327  0.1211  0.1509 -0.1436
 1153ERGO    R415615   1.518   2.034   6.450  0.0089 -0.0143 -0.1947
 1153ERGO    R515616   1.301   2.012   6.457 -0.0052  0.0789 -0.2678
 1153ERGO    C115617   1.378   2.032   6.830 -0.0953 -0.1789 -0.2323
 1153ERGO    C215618   1.349   2.245   7.031 -0.0523  0.1803  0.2123
 1154ERGO   ROH15619   1.334   1.077   6.132  0.0549 -0.0391 -0.0070
 1154ERGO    R115620   1.326   1.068   6.415  0.0735  0.1874  0.0026
 1154ERGO    R215621   1.452   0.870   6.560 -0.3276  0.0139  0.1272
 1154ERGO    R315622   1.568   1.081   6.687  0.1514 -0.1308 -0.0470
 1154ERGO    R415623   1.515   0.886   6.900 -0.4501  0.2162  0.1417
 1154ERGO    R515624   1.452   1.096   6.896  0.0767  0.3859 -0.1114
 1154ERGO    C115625   1.660   1.094   7.216 -0.0718  0.1981 -0.0133
 1154ERGO    C215626   1.765   0.946   7.592 -0.1367  0.0510  0.0791
 1155ERGO   ROH15627  17.955   5.531   6.585 -0.1413  0.0624 -0.0100
 1155ERGO    R115628  17.793   5.540   6.817 -0.0761  0.0700  0.0360
 1155ERGO    R215629  17.779   5.330   6.996 -0.1222  0.0237 -0.0178
 1155ERGO    R315630  17.845   5.523   7.177  0.0140 -0.0549  0.0171
 1155ERGO    R415631  17.724   5.308   7.337 -0.1716  0.0207 -0.0261
 1155ERGO    R515632  17.666   5.518   7.336 -0.0032  0.0665 -0.0011
 1155ERGO    C115633  17.754   5.476   7.705 -0.0726 -0.0549  0.0018
 1155ERGO    C215634  17.690   5.171   7.982  0.0891 -0.1541  0.0125
 1156ERGO   ROH15635  13.937   0.924   6.434 -0.3070  0.1537 -0.0787
 1156ERGO    R115636  13.923   1.134   6.623 -0.1019  0.1428 -0.0477
 1156ERGO    R215637  13.700   1.177   6.781 -0.0386  0.3013  0.0022
 1156ERGO    R315638  13.881   1.164   6.984 -0.0082  0.1297 -0.0356
 1156ERGO    R415639  13.717   1.399   7.046  0.1494  0.2148  0.0637
 1156ERGO    R515640  13.934   1.392   7.031  0.1431  0.0832  0.0212
 1156ERGO    C115641  13.896   1.515   7.390  0.2875  0.0033  0.0639
 1156ERGO    C215642  13.995   1.490   7.755  0.0409 -0.0992 -0.0925
 1157ERGO   ROH15643   2.035  13.832   6.286  0.0380  0.1301  0.0762
 1157ERGO    R115644   1.907  13.958   6.505 -0.1961 -0.0529  0.0488
 1157ERGO    R215645   1.821  13.818   6.727 -0.0043 -0.1752  0.0490
 1157ERGO    R315646   1.973  14.000   6.860 -0.3100  0.0832  0.0542
 1157ERGO    R415647   1.836  13.849   7.071  0.1278 -0.3288  0.0581
 1157ERGO    R515648   1.837  14.066   7.047 -0.3485 -0.3036  0.1700
 1157ERGO    C115649   1.987  14.038   7.396 -0.0823 -0.1756  0.0684
 1157ERGO    C215650   2.001  14.199   7.755 -0.3749  0.1558  0.1486
 1158ERGO   ROH15651   3.838  15.912   6.603  0.0194 -0.3710  0.1491
 1158ERGO    R115652   3.923  15.890   6.872 -0.0465 -0.1633  0.1890
 1158ERGO    R215653   3.963  16.110   7.033 -0.1786 -0.0417  0.0595
 1158ERGO    R315654   3.792  15.980   7.199 -0.1735 -0.0022  0.0953
 1158ERGO    R415655   3.974  16.125   7.378 -0.1356  0.0015  0.0562
 1158ERGO    R515656   3.929  15.911   7.383 -0.1585  0.0064  0.0878
 1158ERGO    C115657   3.819  16.010   7.735 -0.1057  0.0636  0.0879
 1158ERGO    C215658   3.886  16.040   8.111  0.0019  0.1321 -0.0497
 1159ERGO   ROH15659  11.042   2.780   6.434 -0.0507  0.0637 -0.0437
 1159ERGO    R115660  11.188   2.810   6.675  0.0141 -0.0614 -0.0660
 1159ERGO    R215661  11.122   2.998   6.866  0.1728 -0.0390 -0.0303
 1159ERGO    R315662  11.120   2.782   7.031  0.0595 -0.0585 -0.0572
 1159ERGO    R415663  11.107   3.014   7.211  0.0361 -0.0786 -0.0344
 1159ERGO    R515664  11.251   2.851   7.220 -0.0027 -0.1100  0.0044
 1159ERGO    C115665  11.095   2.821   7.567 -0.1499 -0.1199 -0.0622
 1159ERGO    C215666  11.107   3.059   7.865  0.1326 -0.0143  0.2570
 1160ERGO   ROH15667  15.326   3.734   6.214 -0.0741 -0.0116 -0.0206
 1160ERGO    R115668  15.239   3.744   6.483  0.1072 -0.0467  0.0409
 1160ERGO    R215669  15.354   3.591   6.683  0.3042 -0.0034 -0.0381
 1160ERGO    R315670  15.384   3.832   6.805  0.2958  0.0073 -0.0571
 1160ERGO    R415671  15.344   3.642   7.025  0.1654  0.0414 -0.0481
 1160ERGO    R515672  15.231   3.825   6.989  0.2136  0.0586 -0.1216
 1160ERGO    C115673  15.366   3.898   7.338  0.0766  0.0775 -0.0717
 1160ERGO    C215674  15.316   3.844   7.673  0.0750 -0.0222  0.2049
 1161ERGO   ROH15675   3.560   6.625   5.714  0.0776 -0.0365  0.0398
 1161ERGO    R115676   3.553   6.724   5.979  0.0244 -0.1207  0.0695
 1161ERGO    R215677   3.395   6.610   6.176  0.0326 -0.2208  0.0160
 1161ERGO    R315678   3.631   6.597   6.311  0.0208 -0.2030  0.0397
 1161ERGO    R415679   3.425   6.578   6.519 -0.0013 -0.3392  0.0089
 1161ERGO    R515680   3.591   6.719   6.513 -0.0400 -0.2880  0.0811
 1161ERGO    C115681   3.664   6.547   6.845 -0.0321 -0.3914  0.0269
 1161ERGO    C215682   3.574   6.405   7.144  0.0997  0.1023 -0.1257
 1162ERGO   ROH15683  12.514   3.511   6.508  0.1389 -0.0096 -0.0993
 1162ERGO    R115684  12.654   3.545   6.752  0.1029  0.0661 -0.0881
 1162ERGO    R215685  12.660   3.785   6.887 -0.0590  0.0657 -0.0717
 1162ERGO    R315686  12.570   3.634   7.094  0.0224 -0.0066 -0.0898
 1162ERGO    R415687  12.757   3.822   7.217 -0.0008  0.0041 -0.0825
 1162ERGO    R515688  12.761   3.605   7.235  0.0556  0.0036 -0.1369
 1162ERGO    C115689  12.730   3.701   7.603  0.1096 -0.0996 -0.1058
 1162ERGO    C215690  12.751   3.598   8.007  0.0578 -0.0459 -0.0954
 1163ERGO   ROH15691  10.691   1.887   6.380 -0.0061  0.0290  0.0252
 1163ERGO    R115692  10.817   1.946   6.627  0.1567 -0.2838  0.0214
 1163ERGO    R215693  10.700   2.107   6.818  0.5718  0.0395  0.0114
 1163ERGO    R315694  10.745   1.893   6.979  0.0157 -0.0812  0.0261
 1163ERGO    R415695  10.731   2.122   7.162  0.6789  0.0065  0.0041
 1163ERGO    R515696  10.892   1.976   7.149  0.2902 -0.4540 -0.0122
 1163ERGO    C115697  10.790   1.929   7.514  0.2194 -0.1260  0.0137
 1163ERGO    C215698  10.590   1.880   7.819  0.2878 -0.0928 -0.0357
 1164ERGO   ROH15699   7.387  12.096   6.298  0.0900  0.1282 -0.0722
 1164ERGO    R115700   7.491  12.243   6.516  0.0675  0.0586 -0.0143
 1164ERGO    R215701   7.356  12.268   6.756 -0.0237  0.0994 -0.0689
 1164ERGO    R315702   7.589  12.173   6.859 -0.1112 -0.0211  0.0217
 1164ERGO    R415703   7.485  12.353   7.066 -0.0730  0.0710 -0.0402
 1164ERGO    R515704   7.683  12.360   6.976 -0.0394 -0.0583  0.0231
 1164ERGO    C115705   7.779  12.313   7.342 -0.1840 -0.0588  0.0616
 1164ERGO    C215706   7.865  12.431   7.595  0.1228  0.4777  0.1661
 1165ERGO   ROH15707  18.020  17.266   6.031 -0.0646 -0.1991  0.0744
 1165ERGO    R115708  18.024  17.358   6.299  0.0012 -0.1367  0.0521
 1165ERGO    R215709  17.825  17.297   6.480 -0.0207  0.0151  0.0787
 1165ERGO    R315710  18.033  17.206   6.630 -0.0605 -0.0613  0.0890
 1165ERGO    R415711  17.820  17.262   6.824 -0.0254  0.0974  0.0873
 1165ERGO    R515712  18.025  17.338   6.830  0.0175 -0.0088  0.0594
 1165ERGO    C115713  18.013  17.157   7.165 -0.0658  0.0736  0.1018
 1165ERGO    C215714  18.043  16.923   7.444  0.3594  0.1521 -0.2947
 1166ERGO   ROH15715  12.829  16.449   6.207 -0.3414  0.0117 -0.1050
 1166ERGO    R115716  12.708  16.294   6.411 -0.1225 -0.0442 -0.0153
 1166ERGO    R215717  12.849  16.201   6.631  0.0379  0.1903 -0.0132
 1166ERGO    R315718  12.653  16.328   6.769 -0.0660  0.0326 -0.0142
 1166ERGO    R415719  12.766  16.137   6.960  0.0521  0.0942 -0.0281
 1166ERGO    R515720  12.557  16.157   6.906  0.0437 -0.0506 -0.0425
 1166ERGO    C115721  12.534  16.219   7.282 -0.0372 -0.1099 -0.0377
 1166ERGO    C215722  12.505  16.334   7.555 -0.1549 -0.0970 -0.3226
 1167ERGO   ROH15723   8.124   8.102   6.010 -0.0422  0.1604 -0.0674
 1167ERGO    R115724   8.166   8.120   6.289 -0.2050  0.0138 -0.0325
 1167ERGO    R215725   8.285   8.340   6.408 -0.0157 -0.1707  0.1185
 1167ERGO    R315726   8.059   8.340   6.559 -0.1176  0.0535 -0.0287
 1167ERGO    R415727   8.259   8.476   6.725 -0.0595 -0.2148  0.1346
 1167ERGO    R515728   8.136   8.305   6.783 -0.2985 -0.0923  0.0162
 1167ERGO    C115729   8.032   8.556   7.051 -0.1805 -0.0301  0.0059
 1167ERGO    C215730   8.059   8.680   7.336  0.3084  0.2460  0.0910
 1168ERGO   ROH15731   4.219  14.092   6.195  0.0229  0.3827 -0.2632
 1168ERGO    R115732   4.086  14.075   6.445  0.1724  0.1490 -0.1974
 1168ERGO    R215733   3.883  14.247   6.518  0.1614  0.0298  0.0537
 1168ERGO    R315734   3.746  14.017   6.560  0.2556 -0.0451 -0.0400
 1168ERGO    R415735   3.559  14.230   6.637  0.1241 -0.1424 -0.0685
 1168ERGO    R515736   3.619  14.059   6.759  0.1619 -0.1389 -0.0765
 1168ERGO    C115737   3.242  14.003   6.746  0.1908 -0.3130 -0.2275
 1168ERGO    C215738   2.905  13.997   6.647  0.2032  0.1140 -0.0290
 1169ERGO   ROH15739  10.149   0.243   6.409  0.2498  0.0045  0.0786
 1169ERGO    R115740  10.214   0.214   6.683  0.0958 -0.0726  0.1075
 1169ERGO    R215741  10.025   0.239   6.885  0.0063 -0.0129  0.0128
 1169ERGO    R315742  10.117  -0.007   6.956 -0.1514 -0.0699  0.0259
 1169ERGO    R415743   9.988   0.096   7.197  0.0505  0.1013  0.0713
 1169ERGO    R515744  10.191   0.020   7.182 -0.0126 -0.0657 -0.0161
 1169ERGO    C115745  10.052  -0.218   7.446 -0.0716  0.1141  0.1176
 1169ERGO    C215746   9.887  -0.262   7.727  0.1986  0.1921  0.0848
 1170ERGO   ROH15747   0.714   1.642   6.230 -0.0719  0.1325 -0.0489
 1170ERGO    R115748   0.571   1.474   6.408  0.0970  0.1485  0.1048
 1170ERGO    R215749   0.583   1.505   6.683  0.0355  0.4405  0.0820
 1170ERGO    R315750   0.312   1.516   6.660  0.0224  0.1165  0.0315
 1170ERGO    R415751   0.363   1.521   6.949 -0.0235  0.5465  0.0278
 1170ERGO    R515752   0.232   1.383   6.843  0.1410  0.2656  0.1896
 1170ERGO    C115753  -0.019   1.540   7.083 -0.0702  0.3041 -0.0512
 1170ERGO    C215754  -0.014   1.674   7.444 -0.3062 -0.1472 -0.1895
 1171ERGO   ROH15755  18.242   7.777   5.963 -0.0259 -0.0612 -0.0649
 1171ERGO    R115756  18.315   7.973   6.154  0.0627 -0.0416 -0.1199
 1171ERGO    R215757  18.173   8.014   6.387  0.0851  0.0846 -0.1329
 1171ERGO    R315758  18.415   7.976   6.504  0.0692  0.0133 -0.1209
 1171ERGO    R415759  18.274   8.158   6.685  0.0123 -0.1414  0.0041
 1171ERGO    R515760  18.471   8.189   6.598  0.0289 -0.0504  0.0612
 1171ERGO    C115761  18.560   8.205   6.968 -0.0452 -0.3401  0.0951
 1171ERGO    C215762  18.622   8.173   7.473 -0.0045  0.4471 -0.0765
 1172ERGO   ROH15763   8.682   4.422   6.194 -0.1352  0.2218 -0.0374
 1172ERGO    R115764   8.814   4.462   6.442  0.0036 -0.0586 -0.0615
 1172ERGO    R215765   8.810   4.705   6.575  0.4478 -0.0786 -0.0009
 1172ERGO    R315766   8.717   4.553   6.781  0.2472  0.0250 -0.0116
 1172ERGO    R415767   8.857   4.776   6.909  0.2226  0.0349  0.0090
 1172ERGO    R515768   8.891   4.564   6.945  0.1324  0.0340  0.1139
 1172ERGO    C115769   8.797   4.675   7.298 -0.0969  0.1983  0.0048
 1172ERGO    C215770   8.550   4.594   7.546 -0.0716  0.0565  0.0150
 1173ERGO   ROH15771   4.651  14.130   6.358  0.1393  0.0141  0.0444
 1173ERGO    R115772   4.553  14.049   6.612  0.1276 -0.1440 -0.0076
 1173ERGO    R215773   4.701  13.893   6.785  0.2578  0.0230  0.0426
 1173ERGO    R315774   4.651  14.096   6.959 -0.0843 -0.0555  0.0405
 1173ERGO    R415775   4.779  13.888   7.122  0.1492  0.1149  0.0687
 1173ERGO    R515776   4.589  13.985   7.163 -0.0004 -0.1533  0.0102
 1173ERGO    C115777   4.778  14.075   7.481 -0.2353  0.0946  0.0820
 1173ERGO    C215778   5.002  14.029   7.830  0.0518  0.0406 -0.0320
 1174ERGO   ROH15779  17.399   9.138   6.257 -0.0366 -0.0699 -0.0847
 1174ERGO    R115780  17.353   8.984   6.490  0.0352 -0.0387 -0.0493
 1174ERGO    R215781  17.555   8.922   6.669  0.0840  0.0159 -0.0829
 1174ERGO    R315782  17.384   9.033   6.849  0.1093  0.0237 -0.0643
 1174ERGO    R415783  17.581   8.892   7.013  0.1065 -0.0034 -0.0867
 1174ERGO    R515784  17.365   8.869   7.023  0.1060  0.0180 -0.0712
 1174ERGO    C115785  17.436   8.978   7.381  0.1431 -0.0073 -0.0715
 1174ERGO    C215786  17.403   9.171   7.658  0.2938 -0.0955 -0.2516
 1175ERGO   ROH15787   5.593  11.085   6.274  0.0050 -0.1525  0.0958
 1175ERGO    R115788   5.642  11.224   6.515  0.0177 -0.1483  0.0906
 1175ERGO    R215789   5.439  11.329   6.672  0.0292 -0.1027  0.0739
 1175ERGO    R315790   5.558  11.182   6.867 -0.0082 -0.1129  0.0889
 1175ERGO    R415791   5.347  11.330   7.005  0.1590  0.1122  0.1111
 1175ERGO    R515792   5.558  11.325   7.058  0.1783 -0.0287  0.0292
 1175ERGO    C115793   5.406  11.192   7.382  0.1995  0.2278  0.1468
 1175ERGO    C215794   5.337  11.116   7.694 -0.1822  0.0600 -0.0821
 1176ERGO   ROH15795  11.811  16.295   6.284 -0.0301 -0.0749  0.0263
 1176ERGO    R115796  11.648  16.227   6.504 -0.1406  0.1726  0.0253
 1176ERGO    R215797  11.719  16.032   6.687 -0.4870 -0.0196 -0.0342
 1176ERGO    R315798  11.678  16.231   6.867 -0.0878  0.0169  0.0232
 1176ERGO    R415799  11.620  15.984   7.015 -0.5038  0.0805 -0.0249
 1176ERGO    R515800  11.489  16.158   6.995 -0.1975  0.3263  0.0454
 1176ERGO    C115801  11.525  16.144   7.375 -0.1388  0.1730  0.0343
 1176ERGO    C215802  11.619  16.027   7.600 -0.0292 -0.1710 -0.2208
 1177ERGO   ROH15803  12.364   9.898   6.355 -0.0672  0.0478 -0.0745
 1177ERGO    R115804  12.294   9.913   6.629 -0.1221 -0.1426 -0.0761
 1177ERGO    R215805  12.245   9.689   6.783  0.1678 -0.2701 -0.1575
 1177ERGO    R315806  12.434   9.798   6.945  0.0035 -0.0609 -0.1021
 1177ERGO    R415807  12.262   9.645   7.125  0.1602 -0.3070 -0.1623
 1177ERGO    R515808  12.316   9.855   7.145 -0.1048 -0.2418 -0.1144
 1177ERGO    C115809  12.449   9.721   7.476  0.0014 -0.1322 -0.1130
 1177ERGO    C215810  12.416   9.555   7.754 -0.2505  0.3873 -0.0583
 1178ERGO   ROH15811  16.527  12.689   5.843  0.1355  0.3172  0.0940
 1178ERGO    R115812  16.533  12.646   6.122  0.1524  0.1994  0.0763
 1178ERGO    R215813  16.511  12.852   6.305  0.1670  0.1240  0.1657
 1178ERGO    R315814  16.308  12.701   6.403  0.1707  0.0854  0.1133
 1178ERGO    R415815  16.374  12.886   6.620  0.0141  0.1598  0.0959
 1178ERGO    R515816  16.363  12.669   6.634  0.0765  0.1610  0.1460
 1178ERGO    C115817  16.103  12.764   6.896 -0.0714  0.1446  0.0060
 1178ERGO    C215818  15.918  12.670   7.097  0.0479  0.0157  0.0758
 1179ERGO   ROH15819   4.375  15.086   6.408  0.1110 -0.1855  0.0555
 1179ERGO    R115820   4.428  14.998   6.672 -0.0021 -0.1501  0.0908
 1179ERGO    R215821   4.297  15.101   6.892 -0.0905 -0.1130  0.0224
 1179ERGO    R315822   4.242  14.839   6.941 -0.1212 -0.1041  0.0356
 1179ERGO    R415823   4.181  14.977   7.193 -0.2110 -0.0719 -0.0064
 1179ERGO    R515824   4.313  14.805   7.167 -0.2098 -0.0802  0.0664
 1179ERGO    C115825   4.062  14.659   7.415 -0.3100 -0.0397 -0.0107
 1179ERGO    C215826   3.921  14.549   7.653 -0.0267  0.2348  0.3137
 1180ERGO   ROH15827  15.173   2.254   6.736  0.0456 -0.3418 -0.1278
 1180ERGO    R115828  15.025   2.330   6.964  0.1285 -0.2781 -0.0955
 1180ERGO    R215829  14.896   2.147   7.126  0.1110 -0.2235 -0.0531
 1180ERGO    R315830  15.040   2.268   7.322  0.1970 -0.2575 -0.0936
 1180ERGO    R415831  14.843   2.104   7.465 -0.0375  0.0510 -0.0379
 1180ERGO    R515832  14.879   2.317   7.493  0.1983  0.0363 -0.1676
 1180ERGO    C115833  14.948   2.193   7.846 -0.0432  0.1789 -0.0671
 1180ERGO    C215834  15.087   2.184   8.236 -0.0367 -0.0830  0.0682
 1181ERGO   ROH15835  11.529   0.115   6.762 -0.0750 -0.0331 -0.0244
 1181ERGO    R115836  11.637   0.127   7.024 -0.0431  0.1867 -0.0441
 1181ERGO    R215837  11.567   0.324   7.205 -0.2074  0.2053 -0.1141
 1181ERGO    R315838  11.508   0.111   7.364  0.0209  0.2108 -0.0212
 1181ERGO    R415839  11.458   0.346   7.532 -0.3195  0.2213 -0.1531
 1181ERGO    R515840  11.586   0.176   7.581 -0.1201  0.4112 -0.0352
 1181ERGO    C115841  11.340   0.159   7.872 -0.1705  0.2358 -0.0888
 1181ERGO    C215842  11.214   0.126   8.154  0.0093  0.0687  0.0735
 1182ERGO   ROH15843   3.344   4.956   5.964 -0.1245 -0.0762  0.1166
 1182ERGO    R115844   3.358   5.151   6.168 -0.1953 -0.0128  0.0620
 1182ERGO    R215845   3.147   5.204   6.339 -0.2012 -0.0696  0.0735
 1182ERGO    R315846   3.333   5.156   6.531 -0.1536  0.0732  0.0638
 1182ERGO    R415847   3.112   5.288   6.672 -0.1676  0.0734  0.0417
 1182ERGO    R515848   3.322   5.348   6.674 -0.1849  0.1358 -0.0222
 1182ERGO    C115849   3.266   5.291   7.047 -0.1034  0.2908  0.0141
 1182ERGO    C215850   3.193   5.085   7.281  0.1152  0.2225 -0.0409
 1183ERGO   ROH15851   0.691   5.792   5.962  0.3387  0.0742  0.0554
 1183ERGO    R115852   0.782   5.723   6.221  0.1505 -0.1125  0.0727
 1183ERGO    R215853   0.709   5.865   6.447  0.2493 -0.0766  0.0736
 1183ERGO    R315854   0.631   5.620   6.536 -0.1035 -0.0003 -0.0077
 1183ERGO    R415855   0.635   5.789   6.776  0.3941 -0.1237  0.0975
 1183ERGO    R515856   0.737   5.598   6.750  0.0485 -0.3002 -0.1016
 1183ERGO    C115857   0.518   5.516   7.051  0.1472 -0.0795  0.0349
 1183ERGO    C215858   0.374   5.392   7.342 -0.2425 -0.0815  0.0259
 1184ERGO   ROH15859  13.733   9.272   6.365  0.1862 -0.0521  0.0402
 1184ERGO    R115860  13.615   9.153   6.594  0.0231 -0.0309 -0.0306
 1184ERGO    R215861  13.759   8.999   6.772 -0.1573 -0.2333 -0.0504
 1184ERGO    R315862  13.658   9.174   6.955 -0.0384 -0.2044 -0.0131
 1184ERGO    R415863  13.615   8.910   7.073 -0.3438 -0.2044 -0.1304
 1184ERGO    R515864  13.464   9.065   7.042 -0.1769 -0.0410 -0.1168
 1184ERGO    C115865  13.436   9.022   7.420 -0.3409 -0.1603 -0.1421
 1184ERGO    C215866  13.460   9.143   7.790 -0.4082  0.0420  0.1972
 1185ERGO   ROH15867  10.026   5.879   6.040  0.1423  0.1224 -0.0124
 1185ERGO    R115868  10.025   6.032   6.278  0.1462  0.1129 -0.0054
 1185ERGO    R215869   9.819   6.021   6.462  0.0901  0.1906 -0.0538
 1185ERGO    R315870  10.021   5.965   6.635  0.0272  0.0944 -0.0121
 1185ERGO    R415871   9.819   6.103   6.797 -0.0121  0.0016 -0.0063
 1185ERGO    R515872  10.030   6.156   6.779 -0.0131  0.0073  0.0976
 1185ERGO    C115873  10.008   6.099   7.156 -0.1306 -0.1988  0.0605
 1185ERGO    C215874   9.968   5.918   7.490 -0.1912  0.0646  0.0186
 1186ERGO   ROH15875   0.987   7.571   6.193 -0.2153  0.0885  0.1048
 1186ERGO    R115876   0.960   7.667   6.458 -0.1946  0.0489  0.1225
 1186ERGO    R215877   0.856   7.511   6.662 -0.2569  0.0423  0.0946
 1186ERGO    R315878   1.090   7.576   6.786 -0.2369 -0.0586  0.1079
 1186ERGO    R415879   0.912   7.491   7.003 -0.3123  0.1320  0.1083
 1186ERGO    R515880   1.022   7.679   6.991 -0.1973  0.0547  0.0592
 1186ERGO    C115881   1.163   7.540   7.317 -0.3258  0.0895  0.1288
 1186ERGO    C215882   1.335   7.567   7.534 -0.0073  0.1546  0.0122
 1187ERGO   ROH15883  17.703  15.788   6.378 -0.2520 -0.1062 -0.0428
 1187ERGO    R115884  17.871  15.663   6.569  0.0512 -0.0196 -0.2460
 1187ERGO    R215885  18.122  15.759   6.632 -0.1072  0.3931 -0.2133
 1187ERGO    R315886  18.025  15.754   6.885 -0.0274 -0.1016 -0.1835
 1187ERGO    R415887  18.307  15.827   6.916 -0.1533  0.4284 -0.1919
 1187ERGO    R515888  18.204  15.664   7.016  0.1986  0.0957 -0.3477
 1187ERGO    C115889  18.323  15.862   7.319 -0.1053 -0.0153 -0.1514
 1187ERGO    C215890  18.446  16.073   7.624 -0.2069 -0.1029 -0.0855
 1188ERGO   ROH15891  13.277  17.363   6.462  0.1120 -0.0116  0.1700
 1188ERGO    R115892  13.123  17.224   6.654  0.0669  0.0204  0.1575
 1188ERGO    R215893  13.237  17.064   6.849  0.0150 -0.0375  0.1416
 1188ERGO    R315894  13.093  17.222   7.017  0.0692 -0.0053  0.1575
 1188ERGO    R415895  13.200  17.009   7.188 -0.0619 -0.1018  0.1228
 1188ERGO    R515896  12.991  17.068   7.170 -0.0305  0.0078  0.1055
 1188ERGO    C115897  13.044  17.126   7.544 -0.0560 -0.1090  0.1270
 1188ERGO    C215898  13.244  17.074   7.808 -0.4692 -0.3367  0.3444
 1189ERGO   ROH15899   3.454  15.675   6.384 -0.0291 -0.0981  0.0313
 1189ERGO    R115900   3.392  15.669   6.660 -0.0416 -0.0746  0.0289
 1189ERGO    R215901   3.432  15.445   6.817 -0.0033 -0.0454  0.0600
 1189ERGO    R315902   3.574  15.618   6.971 -0.0467  0.0040  0.0451
 1189ERGO    R415903   3.415  15.462   7.162  0.0551 -0.0787  0.0647
 1189ERGO    R515904   3.423  15.679   7.147 -0.0401 -0.0733  0.0787
 1189ERGO    C115905   3.538  15.634   7.508  0.0483 -0.0518  0.0535
 1189ERGO    C215906   3.637  15.509   7.767 -0.1114 -0.1437  0.1692
 1190ERGO   ROH15907  16.408  11.247   5.924  0.0419 -0.1677 -0.0431
 1190ERGO    R115908  16.384  11.364   6.181  0.0909 -0.0011 -0.1130
 1190ERGO    R215909  16.364  11.637   6.218  0.0266  0.0197 -0.2975
 1190ERGO    R315910  16.139  11.569   6.356  0.0838  0.0483 -0.1743
 1190ERGO    R415911  16.250  11.797   6.503  0.2136  0.0377 -0.2317
 1190ERGO    R515912  16.198  11.603   6.585  0.2247  0.0349 -0.2014
 1190ERGO    C115913  15.973  11.826   6.797  0.3762  0.0750 -0.0777
 1190ERGO    C215914  15.764  11.760   7.003 -0.2525 -0.0656 -0.0379
 1191ERGO   ROH15915   8.890  17.181   6.669  0.0088  0.0766 -0.0458
 1191ERGO    R115916   9.001  16.944   6.776 -0.0387  0.0487 -0.0591
 1191ERGO    R215917   9.194  16.946   6.975 -0.1158 -0.0028  0.0137
 1191ERGO    R315918   9.018  16.784   7.103 -0.1669 -0.0309 -0.0901
 1191ERGO    R415919   9.258  16.780   7.271 -0.2029 -0.1203 -0.0319
 1191ERGO    R515920   9.153  16.607   7.191 -0.2054 -0.0802 -0.1240
 1191ERGO    C115921   9.130  16.531   7.564 -0.3017 -0.2149 -0.1559
 1191ERGO    C215922   8.927  16.383   7.850 -0.1947 -0.0745  0.0062
 1192ERGO   ROH15923  16.029   8.944   6.314 -0.3165  0.0501  0.0928
 1192ERGO    R115924  16.197   8.995   6.536 -0.1993 -0.0757  0.0338
 1192ERGO    R215925  16.101   9.018   6.794 -0.0718 -0.1525  0.0879
 1192ERGO    R315926  16.285   8.825   6.846 -0.0916 -0.2159 -0.0716
 1192ERGO    R415927  16.196   8.914   7.110  0.0335 -0.3096  0.0060
 1192ERGO    R515928  16.401   8.903   7.039  0.0043 -0.3240 -0.0831
 1192ERGO    C115929  16.423   8.671   7.342  0.0758 -0.4606 -0.1914
 1192ERGO    C215930  16.572   8.516   7.750  0.2237  0.0246 -0.3067
 1193ERGO   ROH15931   7.742  11.037   6.366 -0.0863  0.0486  0.0473
 1193ERGO    R115932   7.734  11.215   6.587 -0.0189  0.0292  0.0653
 1193ERGO    R215933   7.506  11.257   6.736  0.0194  0.0405  0.1177
 1193ERGO    R315934   7.669  11.191   6.944  0.0561  0.0051  0.0782
 1193ERGO    R415935   7.457  11.356   7.064  0.1669  0.1300  0.1134
 1193ERGO    R515936   7.673  11.388   7.080  0.1903  0.0333  0.0380
 1193ERGO    C115937   7.582  11.352   7.449  0.2872  0.1487  0.0738
 1193ERGO    C215938   7.394  11.310   7.621 -0.1504 -0.1118 -0.0995
 1194ERGO   ROH15939   7.502   7.471   6.145  0.4085 -0.1956 -0.0408
 1194ERGO    R115940   7.648   7.412   6.380  0.3014  0.0012  0.0776
 1194ERGO    R215941   7.695   7.599   6.578 -0.0392  0.0875  0.0768
 1194ERGO    R315942   7.583   7.410   6.738  0.0437  0.0007  0.0340
 1194ERGO    R415943   7.709   7.598   6.924 -0.1664  0.1071  0.0831
 1194ERGO    R515944   7.740   7.383   6.917  0.0026  0.1248  0.0944
 1194ERGO    C115945   7.612   7.420   7.275 -0.1626  0.0370  0.0465
 1194ERGO    C215946   7.763   7.477   7.555 -0.0268 -0.1709 -0.0710
 1195ERGO   ROH15947  17.786  11.314   6.052 -0.0798 -0.1686 -0.1329
 1195ERGO    R115948  17.902  11.300   6.310  0.0049 -0.1782 -0.1711
 1195ERGO    R215949  17.806  11.445   6.524  0.1201 -0.1318 -0.1507
 1195ERGO    R315950  17.794  11.201   6.643  0.0915 -0.1174 -0.1248
 1195ERGO    R415951  17.800  11.392   6.866  0.0048 -0.0885 -0.1459
 1195ERGO    R515952  17.933  11.222   6.837  0.0236 -0.0855 -0.0789
 1195ERGO    C115953  17.784  11.132   7.176 -0.0892 -0.0495 -0.1187
 1195ERGO    C215954  17.656  11.131   7.456  0.2315  0.2258 -0.0575
 1196ERGO   ROH15955  16.017  18.141   6.753  0.0625 -0.1526  0.1294
 1196ERGO    R115956  16.161  18.378   6.808  0.0902 -0.1596  0.0874
 1196ERGO    R215957  16.078  18.627   6.719  0.1265 -0.1668  0.0306
 1196ERGO    R315958  16.098  18.691   6.982  0.1205 -0.1151  0.0186
 1196ERGO    R415959  16.116  18.947   6.842  0.1204 -0.1426 -0.0307
 1196ERGO    R515960  16.257  18.870   6.988  0.1183 -0.1123 -0.0127
 1196ERGO    C115961  16.156  19.195   7.160  0.1112 -0.0800 -0.0776
 1196ERGO    C215962  16.109  19.442   7.400 -0.1322  0.1227  0.3003
 1197ERGO   ROH15963  10.768  15.175   6.280  0.0938  0.3403 -0.0402
 1197ERGO    R115964  10.637  15.118   6.524  0.1033  0.2037 -0.0648
 1197ERGO    R215965  10.773  15.044   6.753  0.1110  0.0102 -0.1208
 1197ERGO    R315966  10.636  15.252   6.862  0.1737 -0.0266  0.0265
 1197ERGO    R415967  10.620  15.038   7.062  0.0160 -0.1872 -0.1713
 1197ERGO    R515968  10.452  15.148   6.976  0.0961 -0.0379 -0.1187
 1197ERGO    C115969  10.402  15.229   7.345  0.0196 -0.3367 -0.0625
 1197ERGO    C215970  10.502  15.256   7.621 -0.3242 -0.0450 -0.3787
 1198ERGO   ROH15971   9.446   1.281   6.533 -0.0600  0.0025  0.2378
 1198ERGO    R115972   9.342   1.146   6.759  0.1769 -0.2124  0.2237
 1198ERGO    R215973   9.504   1.031   6.952  0.3910  0.1507  0.2710
 1198ERGO    R315974   9.357   1.185   7.121  0.0084 -0.1475  0.2243
 1198ERGO    R415975   9.499   0.999   7.296  0.2856  0.0953  0.2644
 1198ERGO    R515976   9.284   1.035   7.292  0.2118 -0.3141  0.1674
 1198ERGO    C115977   9.358   1.126   7.655 -0.1347 -0.2170  0.2168
 1198ERGO    C215978   9.503   1.135   7.980 -0.3434 -0.0126  0.2279
 1199ERGO   ROH15979  11.644   7.894   6.196 -0.0119  0.0419 -0.0158
 1199ERGO    R115980  11.589   7.797   6.457  0.0918  0.0515  0.0098
 1199ERGO    R215981  11.751   7.852   6.673  0.0869  0.2005 -0.0258
 1199ERGO    R315982  11.520   7.942   6.783  0.0418  0.0638 -0.0052
 1199ERGO    R415983  11.699   7.898   7.012  0.1113  0.2151 -0.0237
 1199ERGO    R515984  11.498   7.817   6.986  0.1580  0.0763  0.0182
 1199ERGO    C115985  11.450   8.009   7.312  0.0833  0.0951 -0.0031
 1199ERGO    C215986  11.543   8.080   7.614  0.1904 -0.0390  0.1467
 1200ERGO   ROH15987  16.430  13.979   6.021 -0.0171 -0.2354 -0.0237
 1200ERGO    R115988  16.537  13.891   6.269  0.0176 -0.1488 -0.0081
 1200ERGO    R215989  16.635  14.067   6.459 -0.0468 -0.0766 -0.0434
 1200ERGO    R315990  16.459  13.938   6.621  0.0038 -0.1119 -0.0156
 1200ERGO    R415991  16.643  14.072   6.804 -0.1273  0.1136 -0.0428
 1200ERGO    R515992  16.591  13.861   6.804  0.0172  0.0758  0.0570
 1200ERGO    C115993  16.482  13.954   7.158 -0.1268  0.1913 -0.0164
 1200ERGO    C215994  16.413  14.043   7.514  0.1691  0.1122 -0.0382
 1201ERGO   ROH15995   6.424   8.097   5.956  0.0763 -0.2283  0.2074
 1201ERGO    R115996   6.482   7.956   6.195  0.0984 -0.1007  0.2783
 1201ERGO    R215997   6.702   8.013   6.351  0.1409 -0.0510  0.1996
 1201ERGO    R315998   6.517   8.037   6.548  0.1863  0.0986  0.2258
 1201ERGO    R415999   6.765   7.965   6.687  0.1535 -0.0911  0.1918
 1201ERGO    R516000   6.573   7.863   6.703  0.0748  0.0577  0.2220
 1201ERGO    C116001   6.627   7.960   7.068  0.2035  0.0261  0.2118
 1201ERGO    C216002   6.876   7.868   7.388 -0.0034  0.1803  0.1823
 1202ERGO   ROH16003  13.026   7.101   6.262 -0.4047  0.0953 -0.0919
 1202ERGO    R116004  12.912   7.045   6.515 -0.2416 -0.0629 -0.0502
 1202ERGO    R216005  13.032   6.878   6.699 -0.0241 -0.0266 -0.1523
 1202ERGO    R316006  13.005   7.093   6.863 -0.1072 -0.0903 -0.0827
 1202ERGO    R416007  13.094   6.876   7.040 -0.0313 -0.1104 -0.1516
 1202ERGO    R516008  12.918   7.002   7.067 -0.0765 -0.1858 -0.1140
 1202ERGO    C116009  13.104   7.077   7.391 -0.1135 -0.2190 -0.0859
 1202ERGO    C216010  13.132   7.133   7.676  0.0793 -0.0191 -0.2412
 1203ERGO   ROH16011   2.599  10.361   6.291  0.0261  0.1694 -0.0264
 1203ERGO    R116012   2.475  10.393   6.543  0.0693  0.2132 -0.0099
 1203ERGO    R216013   2.474  10.194   6.735 -0.1528  0.1345 -0.0854
 1203ERGO    R316014   2.580  10.390   6.892  0.0796 -0.0445 -0.0145
 1203ERGO    R416015   2.491  10.182   7.080 -0.3418  0.0744 -0.0775
 1203ERGO    R516016   2.438  10.394   7.085 -0.0113  0.1610 -0.0852
 1203ERGO    C116017   2.600  10.358   7.428 -0.2338 -0.1286 -0.0064
 1203ERGO    C216018   2.698  10.247   7.701 -0.2276 -0.0868 -0.1911
 1204ERGO   ROH16019  15.575  13.444   6.193  0.2162  0.1177  0.0262
 1204ERGO    R116020  15.430  13.371   6.426  0.2113  0.0238 -0.0060
 1204ERGO    R216021  15.498  13.462   6.677  0.0939  0.0711  0.0071
 1204ERGO    R316022  15.239  13.543   6.683  0.0370 -0.1013 -0.0489
 1204ERGO    R416023  15.301  13.471   6.961  0.1422  0.2721  0.0360
 1204ERGO    R516024  15.134  13.396   6.841  0.1691  0.0093  0.1494
 1204ERGO    C116025  14.942  13.552   7.131  0.1169  0.2274  0.0002
 1204ERGO    C216026  14.678  13.657   7.379  0.0136  0.2627  0.0207
 1205ERGO   ROH16027  15.866  14.516   6.021 -0.1010 -0.0942  0.0060
 1205ERGO    R116028  15.663  14.426   6.197  0.0993 -0.2017  0.1866
 1205ERGO    R216029  15.688  14.440   6.471  0.1891  0.1548  0.1656
 1205ERGO    R316030  15.452  14.574   6.454 -0.0261 -0.2187  0.0936
 1205ERGO    R416031  15.463  14.477   6.731  0.3065  0.2575  0.2546
 1205ERGO    R516032  15.301  14.445   6.589  0.2512 -0.2228  0.4112
 1205ERGO    C116033  15.111  14.624   6.866  0.1729 -0.0332  0.2389
 1205ERGO    C216034  15.051  14.819   7.168 -0.1937  0.1823  0.0030
 1206ERGO   ROH16035   5.815   5.745   6.250  0.0263 -0.2446 -0.0464
 1206ERGO    R116036   5.927   5.706   6.507 -0.0263 -0.0856  0.0014
 1206ERGO    R216037   6.151   5.841   6.594 -0.0497 -0.0244 -0.0347
 1206ERGO    R316038   5.990   5.910   6.802 -0.0968  0.0963 -0.1074
 1206ERGO    R416039   6.263   5.954   6.901 -0.1114 -0.0730  0.0071
 1206ERGO    R516040   6.108   5.833   6.996 -0.2313  0.0340 -0.0491
 1206ERGO    C116041   6.178   6.084   7.275 -0.1916  0.0121 -0.0369
 1206ERGO    C216042   6.375   6.353   7.570  0.0232  0.1661  0.0274
 1207ERGO   ROH16043  15.916  17.540   6.506  0.2229 -0.0423 -0.1961
 1207ERGO    R116044  16.139  17.604   6.668  0.1059  0.0544 -0.0713
 1207ERGO    R216045  16.113  17.693   6.928 -0.0719 -0.1280 -0.0233
 1207ERGO    R316046  16.279  17.486   6.982  0.0885 -0.0160 -0.0913
 1207ERGO    R416047  16.275  17.644   7.229 -0.2877 -0.2722  0.0725
 1207ERGO    R516048  16.452  17.582   7.117 -0.1260  0.0204  0.1616
 1207ERGO    C116049  16.527  17.421   7.455 -0.2627 -0.2509  0.0644
 1207ERGO    C216050  16.468  17.463   7.727 -0.0820  0.0274 -0.1505
 1208ERGO   ROH16051   1.287  12.126   6.474 -0.0835  0.0449 -0.0866
 1208ERGO    R116052   1.169  12.055   6.721 -0.1057 -0.1736 -0.1575
 1208ERGO    R216053   1.223  11.816   6.848  0.2326 -0.0981 -0.1468
 1208ERGO    R316054   1.286  11.978   7.057 -0.1585  0.0020 -0.0979
 1208ERGO    R416055   1.175  11.737   7.181  0.3431 -0.2798 -0.1722
 1208ERGO    R516056   1.111  11.942   7.215 -0.1167 -0.4202 -0.1355
 1208ERGO    C116057   1.207  11.844   7.571  0.0403 -0.2915 -0.1411
 1208ERGO    C216058   1.332  11.817   8.046 -0.0005  0.3178 -0.0634
 1209ERGO   ROH16059   9.037   2.490   6.388 -0.0319  0.1884 -0.0218
 1209ERGO    R116060   9.053   2.570   6.659  0.0148  0.0731  0.0104
 1209ERGO    R216061   8.831   2.585   6.823 -0.0005  0.2829 -0.0272
 1209ERGO    R316062   8.978   2.423   6.983 -0.2260  0.0445 -0.0553
 1209ERGO    R416063   8.840   2.605   7.168  0.0974  0.2759 -0.0292
 1209ERGO    R516064   9.055   2.567   7.159  0.0414 -0.0704 -0.0712
 1209ERGO    C116065   8.983   2.465   7.519 -0.0571  0.0480 -0.0569
 1209ERGO    C216066   8.913   2.461   7.855  0.0493 -0.2712  0.4169
 1210ERGO   ROH16067  15.276  18.258   7.021 -0.0211  0.2671 -0.1400
 1210ERGO    R116068  15.206  18.156   7.275  0.0823  0.2126 -0.1335
 1210ERGO    R216069  15.352  18.210   7.503  0.1031  0.2650 -0.1636
 1210ERGO    R316070  15.112  18.294   7.599  0.0827  0.1397 -0.1008
 1210ERGO    R416071  15.296  18.328   7.824  0.1562  0.3534 -0.1859
 1210ERGO    R516072  15.108  18.219   7.826  0.2277  0.2241 -0.0672
 1210ERGO    C116073  15.038  18.475   8.099  0.1679  0.2872 -0.1401
 1210ERGO    C216074  15.017  18.777   8.318 -0.1478  0.0927  0.0548
 1211ERGO   ROH16075  15.749  17.131   6.585 -0.0748 -0.3817  0.0680
 1211ERGO    R116076  15.727  17.107   6.866  0.1139 -0.2015  0.1015
 1211ERGO    R216077  15.947  17.105   7.033  0.2210  0.0550 -0.0283
 1211ERGO    R316078  15.814  17.308   7.156  0.1677  0.0578 -0.0909
 1211ERGO    R416079  16.057  17.271   7.316  0.0752  0.0337  0.0416
 1211ERGO    R516080  15.852  17.270   7.390  0.0354  0.0444 -0.0719
 1211ERGO    C116081  15.997  17.557   7.596 -0.0597  0.0236  0.0237
 1211ERGO    C216082  16.097  17.860   7.698  0.1929 -0.3733 -0.1806
 1212ERGO   ROH16083  14.696  15.566   6.045 -0.0418 -0.0358 -0.0639
 1212ERGO    R116084  14.552  15.572   6.288  0.0478  0.0494 -0.0133
 1212ERGO    R216085  14.627  15.423   6.509  0.0752  0.0580 -0.0227
 1212ERGO    R316086  14.620  15.665   6.634  0.2007  0.0767 -0.0486
 1212ERGO    R416087  14.581  15.469   6.849 -0.0761  0.1168 -0.0495
 1212ERGO    R516088  14.453  15.640   6.803  0.0820  0.2207 -0.1371
 1212ERGO    C116089  14.548  15.723   7.163 -0.0463  0.1686 -0.0894
 1212ERGO    C216090  14.532  15.640   7.475 -0.0180 -0.1811  0.1434
 1213ERGO   ROH16091  16.205   3.947   5.791  0.0958  0.0080 -0.0435
 1213ERGO    R116092  16.256   3.815   6.037 -0.0439  0.0232 -0.0055
 1213ERGO    R216093  16.453   3.898   6.212 -0.0075 -0.0892  0.0060
 1213ERGO    R316094  16.248   3.903   6.390 -0.0325  0.1086 -0.0257
 1213ERGO    R416095  16.486   3.862   6.554 -0.1157 -0.4601 -0.0180
 1213ERGO    R516096  16.307   3.739   6.554 -0.3385 -0.1524 -0.1622
 1213ERGO    C116097  16.312   3.846   6.920 -0.2019 -0.4904 -0.0617
 1213ERGO    C216098  16.276   3.731   7.239 -0.0268 -0.3365  0.1010
 1214ERGO   ROH16099   8.054   1.662   6.467  0.3007  0.0470 -0.1740
 1214ERGO    R116100   8.148   1.624   6.732  0.1561  0.0678 -0.1194
 1214ERGO    R216101   8.265   1.826   6.879  0.0635  0.0809 -0.0677
 1214ERGO    R316102   8.074   1.760   7.061 -0.0323  0.0833 -0.1662
 1214ERGO    R416103   8.279   1.900   7.217  0.0906 -0.2741  0.0131
 1214ERGO    R516104   8.196   1.702   7.258 -0.1143 -0.2417 -0.2017
 1214ERGO    C116105   8.107   1.881   7.583  0.0164 -0.4785 -0.0324
 1214ERGO    C216106   7.945   1.857   7.860  0.2806  0.3466  0.0229
 1215ERGO   ROH16107   2.410  11.319   6.161 -0.0301 -0.0671  0.0333
 1215ERGO    R116108   2.384  11.379   6.437  0.0026 -0.0953  0.0430
 1215ERGO    R216109   2.144  11.456   6.550  0.0421  0.0210  0.0549
 1215ERGO    R316110   2.195  11.249   6.719 -0.0715 -0.0359  0.0206
 1215ERGO    R416111   1.947  11.367   6.821 -0.0279  0.0529  0.0145
 1215ERGO    R516112   2.129  11.329   6.935 -0.0599 -0.0514  0.0281
 1215ERGO    C116113   1.882  11.121   7.136 -0.1753  0.0180 -0.0413
 1215ERGO    C216114   1.803  10.932   7.435 -0.1091 -0.0829 -0.0832
 1216ERGO   ROH16115   5.627  16.029   6.331  0.1908 -0.0292 -0.0810
 1216ERGO    R116116   5.627  16.023   6.614  0.0079 -0.0104 -0.0799
 1216ERGO    R216117   5.419  15.915   6.760  0.0158 -0.2084 -0.2124
 1216ERGO    R316118   5.618  15.768   6.874  0.0896 -0.0041 -0.0705
 1216ERGO    R416119   5.400  15.764   7.071 -0.0533 -0.2299 -0.2266
 1216ERGO    R516120   5.607  15.824   7.107 -0.1371 -0.0144 -0.0757
 1216ERGO    C116121   5.576  15.539   7.358 -0.0243 -0.0506 -0.1017
 1216ERGO    C216122   5.652  15.318   7.527 -0.0585  0.2754 -0.1689
 1217ERGO   ROH16123  13.296  10.185   6.372 -0.1042  0.0055 -0.0618
 1217ERGO    R116124  13.348  10.291   6.629  0.0050 -0.1045 -0.0375
 1217ERGO    R216125  13.164  10.447   6.765  0.1430  0.0089  0.0191
 1217ERGO    R316126  13.202  10.262   6.961  0.0096 -0.0741 -0.0323
 1217ERGO    R416127  13.082  10.492   7.098  0.2656  0.0176  0.0485
 1217ERGO    R516128  13.267  10.390   7.152  0.1822 -0.1779 -0.0183
 1217ERGO    C116129  13.070  10.345   7.475  0.2118 -0.0554  0.0174
 1217ERGO    C216130  13.001  10.368   7.813  0.1381  0.1089 -0.1616
 1218ERGO   ROH16131  10.145  17.387   6.698 -0.4314  0.0163 -0.1005
 1218ERGO    R116132  10.079  17.177   6.876 -0.2022 -0.0079 -0.0420
 1218ERGO    R216133  10.270  17.007   6.981 -0.0382  0.1140 -0.1381
 1218ERGO    R316134  10.163  17.085   7.218  0.0545  0.0707 -0.0814
 1218ERGO    R416135  10.335  16.857   7.286  0.1145  0.0848 -0.1842
 1218ERGO    R516136  10.124  16.880   7.337  0.1330  0.0507 -0.0893
 1218ERGO    C116137  10.273  16.844   7.686  0.2904  0.0272 -0.1578
 1218ERGO    C216138  10.484  16.807   7.954 -0.2957 -0.1218 -0.0423
 1219ERGO   ROH16139  16.959  17.775   6.437 -0.0431 -0.2358  0.0160
 1219ERGO    R116140  16.975  17.852   6.708 -0.0412 -0.1410 -0.0100
 1219ERGO    R216141  16.862  17.703   6.912 -0.1643  0.0013  0.0324
 1219ERGO    R316142  17.113  17.713   7.015 -0.1725 -0.1093  0.0631
 1219ERGO    R416143  16.947  17.607   7.233 -0.2654  0.1030  0.0900
 1219ERGO    R516144  17.081  17.779   7.243 -0.1592  0.0207  0.0252
 1219ERGO    C116145  17.233  17.561   7.517 -0.3320  0.0584  0.1523
 1219ERGO    C216146  17.354  17.376   7.909 -0.1777  0.0055  0.0852
 1220ERGO   ROH16147   1.621  17.785   6.509  0.1060  0.0684  0.1247
 1220ERGO    R116148   1.506  17.789   6.768  0.0770  0.0950  0.1113
 1220ERGO    R216149   1.581  17.612   6.967  0.0121  0.0769  0.1192
 1220ERGO    R316150   1.623  17.841   7.109  0.0493  0.0664  0.1253
 1220ERGO    R416151   1.575  17.635   7.312  0.0758  0.0550  0.1219
 1220ERGO    R516152   1.470  17.825   7.293  0.0814  0.0621  0.1523
 1220ERGO    C116153   1.611  17.862   7.646  0.1478  0.0322  0.1292
 1220ERGO    C216154   1.725  17.726   7.934  0.1706 -0.1519  0.1503
 1221ERGO   ROH16155   8.865   6.211   5.995 -0.1251  0.0397 -0.0537
 1221ERGO    R116156   8.901   6.435   6.164 -0.2712 -0.0121  0.0488
 1221ERGO    R216157   8.763   6.467   6.402 -0.0887 -0.3520  0.2099
 1221ERGO    R316158   9.012   6.494   6.506 -0.0166 -0.0753 -0.0221
 1221ERGO    R416159   8.833   6.582   6.720  0.0865 -0.3155  0.1592
 1221ERGO    R516160   9.001   6.693   6.637 -0.1210 -0.1079  0.0147
 1221ERGO    C116161   9.109   6.674   7.003  0.2559 -0.0346 -0.0880
 1221ERGO    C216162   9.012   6.724   7.391  0.0493  0.0433  0.0481
 1222ERGO   ROH16163  15.524  16.754   6.835  0.2935 -0.2313 -0.0296
 1222ERGO    R116164  15.615  16.733   7.102  0.1049 -0.0360  0.0536
 1222ERGO    R216165  15.575  16.931   7.290 -0.1834  0.0276 -0.0713
 1222ERGO    R316166  15.465  16.728   7.433 -0.1481  0.0177 -0.0581
 1222ERGO    R416167  15.546  16.925   7.634 -0.1373  0.0234 -0.0674
 1222ERGO    R516168  15.600  16.714   7.630 -0.1206  0.0275 -0.0759
 1222ERGO    C116169  15.427  16.731   7.969 -0.0773  0.0114 -0.0527
 1222ERGO    C216170  15.496  16.869   8.375 -0.0871 -0.0902  0.2684
 1223ERGO   ROH16171   7.558   5.484   6.188 -0.2174 -0.0231  0.1261
 1223ERGO    R116172   7.632   5.680   6.378 -0.3181  0.0897  0.0501
 1223ERGO    R216173   7.474   5.744   6.596 -0.1909 -0.1648  0.2192
 1223ERGO    R316174   7.700   5.689   6.736  0.0514  0.1843 -0.0174
 1223ERGO    R416175   7.543   5.865   6.912 -0.3390 -0.5167  0.3913
 1223ERGO    R516176   7.751   5.895   6.849 -0.4336  0.1453  0.3045
 1223ERGO    C116177   7.796   5.883   7.228 -0.1979 -0.3937  0.2693
 1223ERGO    C216178   7.785   5.846   7.457  0.0678 -0.1872  0.2136
 1224ERGO   ROH16179   6.669  10.729   6.282  0.2825  0.0926 -0.0704
 1224ERGO    R116180   6.731  10.821   6.542  0.1987 -0.1773  0.0477
 1224ERGO    R216181   6.569  10.998   6.681  0.3883  0.0475 -0.0219
 1224ERGO    R316182   6.578  10.805   6.872 -0.1674 -0.0874 -0.1099
 1224ERGO    R416183   6.523  11.052   7.019  0.4317  0.0156 -0.0098
 1224ERGO    R516184   6.684  10.911   7.059  0.0695 -0.4389 -0.0273
 1224ERGO    C116185   6.505  10.902   7.395 -0.0647 -0.1294 -0.0853
 1224ERGO    C216186   6.575  10.672   7.679  0.0673 -0.2235 -0.1106
 1225ERGO   ROH16187   7.160   3.893   5.932 -0.2435  0.0109  0.1956
 1225ERGO    R116188   7.213   3.844   6.205 -0.2163 -0.0655  0.1770
 1225ERGO    R216189   7.368   4.013   6.360 -0.0832 -0.1825  0.1736
 1225ERGO    R316190   7.150   4.013   6.521 -0.0507 -0.0785  0.2178
 1225ERGO    R416191   7.341   4.193   6.653 -0.0291  0.0167  0.0581
 1225ERGO    R516192   7.241   4.022   6.743 -0.0068  0.0746  0.1950
 1225ERGO    C116193   7.120   4.299   6.976  0.0328  0.2304  0.0323
 1225ERGO    C216194   7.151   4.497   7.221 -0.3325  0.2632 -0.0763
 1226ERGO   ROH16195  10.955   3.404   6.409 -0.0047 -0.1144 -0.0461
 1226ERGO    R116196  11.062   3.360   6.668 -0.1099 -0.2284 -0.0197
 1226ERGO    R216197  11.159   3.566   6.825  0.2193 -0.3407 -0.0599
 1226ERGO    R316198  10.984   3.465   7.008  0.0160 -0.0018 -0.0596
 1226ERGO    R416199  11.120   3.684   7.148  0.3926 -0.2207 -0.0822
 1226ERGO    R516200  11.102   3.477   7.216  0.0165 -0.1801 -0.0513
 1226ERGO    C116201  10.934   3.657   7.507  0.3027  0.1673 -0.0948
 1226ERGO    C216202  10.646   3.795   7.692  0.2258 -0.0318  0.0932
 1227ERGO   ROH16203   2.819  12.121   6.368  0.0824 -0.0335 -0.0376
 1227ERGO    R116204   2.626  11.979   6.517  0.0428  0.1006  0.0403
 1227ERGO    R216205   2.661  11.716   6.595 -0.1471  0.0442 -0.0562
 1227ERGO    R316206   2.609  11.817   6.843  0.0951  0.0241  0.0054
 1227ERGO    R416207   2.572  11.527   6.870 -0.3020  0.0586 -0.0960
 1227ERGO    R516208   2.428  11.682   6.924 -0.0645  0.2437  0.0236
 1227ERGO    C116209   2.471  11.511   7.263 -0.1649  0.0479 -0.0615
 1227ERGO    C216210   2.605  11.427   7.487  0.0583  0.0070 -0.1632
 1228ERGO   ROH16211  14.555  17.078   6.564 -0.1205  0.0076  0.1435
 1228ERGO    R116212  14.492  16.867   6.742 -0.2609  0.0435  0.1379
 1228ERGO    R216213  14.685  16.717   6.869 -0.3494 -0.3174 -0.1307
 1228ERGO    R316214  14.550  16.791   7.093  0.0157 -0.1695  0.0494
 1228ERGO    R416215  14.660  16.527   7.157 -0.1894 -0.2895 -0.0977
 1228ERGO    R516216  14.451  16.588   7.173 -0.1060 -0.0616  0.1730
 1228ERGO    C116217  14.517  16.486   7.534  0.2467 -0.1346  0.0907
 1228ERGO    C216218  14.482  16.499   7.868  0.0337 -0.0345 -0.0480
 1229ERGO   ROH16219   4.855   8.539   6.140  0.2376  0.0922 -0.0580
 1229ERGO    R116220   4.984   8.543   6.392  0.2062 -0.0751 -0.0390
 1229ERGO    R216221   4.881   8.678   6.610  0.3759  0.1098 -0.0720
 1229ERGO    R316222   4.905   8.435   6.731 -0.0115  0.0817 -0.0379
 1229ERGO    R416223   4.838   8.620   6.948  0.2484  0.2178 -0.0687
 1229ERGO    R516224   5.007   8.484   6.942  0.0428 -0.0491 -0.0329
 1229ERGO    C116225   4.835   8.359   7.259 -0.1895  0.2542 -0.0348
 1229ERGO    C216226   4.619   8.139   7.574 -0.0732 -0.0870  0.0096
 1230ERGO   ROH16227   5.876  16.769   6.758 -0.2113 -0.0066  0.0270
 1230ERGO    R116228   5.820  16.941   6.975 -0.0501  0.0147  0.0535
 1230ERGO    R216229   5.628  16.883   7.166 -0.1342  0.1816  0.0261
 1230ERGO    R316230   5.835  16.921   7.338 -0.1051 -0.0707  0.0504
 1230ERGO    R416231   5.595  16.931   7.507 -0.1035  0.1483  0.0334
 1230ERGO    R516232   5.752  17.081   7.496  0.0554 -0.0156  0.0764
 1230ERGO    C116233   5.770  16.995   7.867 -0.0583 -0.1080  0.0605
 1230ERGO    C216234   5.864  17.083   8.184  0.2447 -0.1371  0.0422
 1231ERGO   ROH16235   8.434   3.821   6.093  0.1126  0.2793  0.0587
 1231ERGO    R116236   8.315   3.733   6.334  0.0513  0.2130  0.0040
 1231ERGO    R216237   8.439   3.758   6.580 -0.0178  0.1585  0.0428
 1231ERGO    R316238   8.208   3.884   6.647 -0.0432  0.1285  0.0136
 1231ERGO    R416239   8.331   3.812   6.904 -0.0631  0.1436  0.0306
 1231ERGO    R516240   8.129   3.764   6.839 -0.0504  0.1164  0.0048
 1231ERGO    C116241   8.051   3.962   7.155 -0.1134  0.1067 -0.0040
 1231ERGO    C216242   7.866   4.067   7.457  0.1228  0.0226  0.1118
 1232ERGO   ROH16243  12.988   0.848   6.719  0.1417  0.2416 -0.0631
 1232ERGO    R116244  13.115   0.710   6.931  0.1076  0.1837 -0.0799
 1232ERGO    R216245  13.236   0.841   7.142  0.0088  0.1251  0.0150
 1232ERGO    R316246  13.074   0.683   7.291 -0.0014  0.0223 -0.1041
 1232ERGO    R416247  13.276   0.778   7.479 -0.0451 -0.0675 -0.0135
 1232ERGO    R516248  13.222   0.571   7.442 -0.0182 -0.0511 -0.1428
 1232ERGO    C116249  13.147   0.592   7.816 -0.0860 -0.2762 -0.1419
 1232ERGO    C216250  13.003   0.520   8.153 -0.1901  0.0345 -0.1013
 1233ERGO   ROH16251   8.575  10.873   6.270 -0.1005 -0.0145  0.0650
 1233ERGO    R116252   8.705  11.020   6.473 -0.1923  0.0018  0.1127
 1233ERGO    R216253   8.568  11.142   6.680 -0.2688 -0.1522  0.1553
 1233ERGO    R316254   8.740  10.999   6.835 -0.1769 -0.0964  0.1055
 1233ERGO    R416255   8.692  11.246   6.985 -0.1684 -0.0901  0.0941
 1233ERGO    R516256   8.886  11.164   6.929 -0.1739 -0.0554  0.0278
 1233ERGO    C116257   8.924  11.173   7.309 -0.0235 -0.0017  0.0117
 1233ERGO    C216258   8.947  11.060   7.555  0.0602 -0.2946  0.1093
 1234ERGO   ROH16259   4.479  10.492   6.221  0.0096  0.1803  0.1418
 1234ERGO    R116260   4.436  10.484   6.500  0.2144  0.0950  0.1719
 1234ERGO    R216261   4.242  10.325   6.617 -0.0414  0.4323  0.2171
 1234ERGO    R316262   4.452  10.233   6.763 -0.1137 -0.1165 -0.0035
 1234ERGO    R416263   4.219  10.198   6.937 -0.0591  0.3248  0.1737
 1234ERGO    R516264   4.404  10.302   6.987  0.2293 -0.1105  0.0751
 1234ERGO    C116265   4.402  10.037   7.261 -0.1372 -0.2528 -0.0585
 1234ERGO    C216266   4.284  10.030   7.580  0.0846 -0.1850  0.0290
 1235ERGO   ROH16267   6.607   2.675   6.173  0.2689  0.0410  0.0290
 1235ERGO    R116268   6.682   2.632   6.443  0.1093  0.0836  0.0801
 1235ERGO    R216269   6.646   2.822   6.640 -0.0491  0.0944  0.0347
 1235ERGO    R316270   6.514   2.621   6.765 -0.0874  0.0843 -0.0193
 1235ERGO    R416271   6.682   2.740   6.974 -0.2301  0.1537  0.0706
 1235ERGO    R516272   6.674   2.530   6.918 -0.1543  0.1387  0.0920
 1235ERGO    C116273   6.578   2.503   7.286 -0.3714  0.1786  0.0408
 1235ERGO    C216274   6.603   2.577   7.639 -0.0290 -0.5437 -0.0218
 1236ERGO   ROH16275  18.199   6.948   6.260 -0.0688  0.0399  0.0479
 1236ERGO    R116276  18.196   6.892   6.538 -0.0258  0.0884  0.0583
 1236ERGO    R216277  18.197   7.091   6.730  0.0232  0.1216  0.0234
 1236ERGO    R316278  17.975   6.962   6.819  0.0280  0.1549  0.0845
 1236ERGO    R416279  18.047   7.145   7.037  0.2601 -0.0318  0.1694
 1236ERGO    R516280  18.015   6.930   7.053  0.1782 -0.0311  0.0361
 1236ERGO    C116281  17.751   7.055   7.298  0.4022 -0.0900  0.3119
 1236ERGO    C216282  17.508   7.169   7.365 -0.2708 -0.0043  0.2911
 1237ERGO   ROH16283   6.855   1.359   6.187 -0.0627 -0.2435 -0.0231
 1237ERGO    R116284   6.705   1.270   6.410 -0.1107 -0.0356  0.0295
 1237ERGO    R216285   6.814   1.115   6.611 -0.2582 -0.2110 -0.0216
 1237ERGO    R316286   6.718   1.313   6.771  0.0926 -0.0721  0.0276
 1237ERGO    R416287   6.636   1.064   6.903 -0.3199  0.0356 -0.0135
 1237ERGO    R516288   6.506   1.230   6.847 -0.0464  0.2721  0.0329
 1237ERGO    C116289   6.442   1.219   7.223 -0.0265  0.3096  0.0373
 1237ERGO    C216290   6.550   1.146   7.582 -0.1560 -0.0364  0.3234
 1238ERGO   ROH16291   4.709  17.243   6.661 -0.1048  0.0277  0.0110
 1238ERGO    R116292   4.621  17.271   6.929 -0.0001 -0.1142  0.0612
 1238ERGO    R216293   4.792  17.245   7.145  0.1248 -0.0385 -0.0262
 1238ERGO    R316294   4.694  17.490   7.210 -0.0391 -0.1315  0.0847
 1238ERGO    R416295   4.779  17.373   7.465  0.1735 -0.1337  0.0141
 1238ERGO    R516296   4.582  17.455   7.419  0.0853 -0.2754  0.1289
 1238ERGO    C116297   4.680  17.678   7.713  0.0480 -0.2761  0.1417
 1238ERGO    C216298   4.700  17.752   8.046  0.3289 -0.1160 -0.2463
 1239ERGO   ROH16299  11.945  16.755   6.168  0.3983  0.1661 -0.0080
 1239ERGO    R116300  11.944  16.913   6.403  0.4251  0.2874 -0.0871
 1239ERGO    R216301  11.974  17.187   6.398 -0.0771  0.3524 -0.2750
 1239ERGO    R316302  11.742  17.183   6.539  0.1067 -0.0030  0.0323
 1239ERGO    R416303  11.875  17.431   6.622 -0.2988  0.3866 -0.4094
 1239ERGO    R516304  11.801  17.274   6.753  0.2070  0.3525 -0.1375
 1239ERGO    C116305  11.600  17.570   6.884 -0.2555  0.0729 -0.1991
 1239ERGO    C216306  11.525  17.891   6.899  0.2098 -0.1772  0.2330
 1240ERGO   ROH16307   3.464   8.561   6.237 -0.3787  0.1498 -0.0855
 1240ERGO    R116308   3.472   8.475   6.506  0.0945  0.2322 -0.0633
 1240ERGO    R216309   3.591   8.624   6.707 -0.0905  0.5997 -0.2112
 1240ERGO    R316310   3.348   8.597   6.826  0.0718  0.0041  0.0149
 1240ERGO    R416311   3.537   8.615   7.048  0.2487  0.2732 -0.1607
 1240ERGO    R516312   3.390   8.458   7.016  0.5516 -0.0272 -0.1047
 1240ERGO    C116313   3.278   8.584   7.359  0.5986 -0.4761  0.0810
 1240ERGO    C216314   3.328   8.748   7.676 -0.1767  0.0192  0.0508
 1241ERGO   ROH16315   6.612  12.877   6.409 -0.0613  0.0267 -0.2219
 1241ERGO    R116316   6.662  12.952   6.677  0.2410 -0.0494 -0.2534
 1241ERGO    R216317   6.857  13.136   6.747  0.0183  0.2757 -0.4708
 1241ERGO    R316318   6.649  13.259   6.872 -0.0195 -0.1864 -0.0467
 1241ERGO    R416319   6.888  13.391   6.979 -0.0687  0.3115 -0.4975
 1241ERGO    R516320   6.728  13.299   7.094  0.3396 -0.0572 -0.1878
 1241ERGO    C116321   6.711  13.655   7.231 -0.1549 -0.1014 -0.1149
 1241ERGO    C216322   6.783  13.785   7.451 -0.0024 -0.3977  0.2144
 1242ERGO   ROH16323  14.166  11.230   5.932  0.0027 -0.1329 -0.0018
 1242ERGO    R116324  14.087  11.244   6.204 -0.0746 -0.1873 -0.0203
 1242ERGO    R216325  13.947  11.041   6.329  0.0193 -0.2804 -0.0579
 1242ERGO    R316326  14.152  11.054   6.508 -0.0304 -0.1547 -0.0102
 1242ERGO    R416327  13.924  10.951   6.662 -0.0704 -0.0331  0.0041
 1242ERGO    R516328  14.047  11.124   6.712 -0.0812 -0.0015 -0.0898
 1242ERGO    C116329  14.102  10.911   7.024 -0.1693  0.2290  0.0849
 1242ERGO    C216330  14.118  10.874   7.423 -0.0566 -0.3207  0.2109
 1243ERGO   ROH16331  16.244   2.683   6.272 -0.2479 -0.5223  0.0611
 1243ERGO    R116332  16.120   2.652   6.525 -0.1204 -0.2807  0.1559
 1243ERGO    R216333  16.258   2.685   6.763  0.0242 -0.1442  0.0568
 1243ERGO    R316334  16.059   2.862   6.816  0.1177 -0.0292  0.0289
 1243ERGO    R416335  16.228   2.866   7.055  0.2680  0.1304 -0.0830
 1243ERGO    R516336  16.013   2.832   7.049  0.2537  0.1958  0.0862
 1243ERGO    C116337  16.023   3.138   7.276  0.4978  0.3983 -0.1907
 1243ERGO    C216338  16.053   3.201   7.630 -0.0974  0.0605  0.0781
 1244ERGO   ROH16339  14.427   8.219   6.337  0.1113  0.3009  0.0549
 1244ERGO    R116340  14.346   8.258   6.606  0.0976  0.3639  0.0419
 1244ERGO    R216341  14.370   8.062   6.798 -0.2287  0.2861  0.0115
 1244ERGO    R316342  14.505   8.255   6.933  0.0164  0.0732  0.0809
 1244ERGO    R416343  14.427   8.061   7.139 -0.1559  0.0631  0.0008
 1244ERGO    R516344  14.387   8.276   7.141  0.0834  0.1070  0.1133
 1244ERGO    C116345  14.587   8.243   7.464  0.1167 -0.2667  0.0598
 1244ERGO    C216346  14.574   8.242   7.797 -0.2124  0.0315  0.2312
 1245ERGO   ROH16347   8.602  16.281   6.305 -0.1942  0.0850  0.1028
 1245ERGO    R116348   8.634  16.212   6.578 -0.1737  0.1431  0.1157
 1245ERGO    R216349   8.450  16.282   6.771 -0.2678  0.0015  0.0807
 1245ERGO    R316350   8.451  16.015   6.823 -0.0377  0.0066  0.1081
 1245ERGO    R416351   8.289  16.132   7.038 -0.2972 -0.1318 -0.0110
 1245ERGO    R516352   8.462  16.001   7.063 -0.1823  0.0421  0.1164
 1245ERGO    C116353   8.197  15.794   7.243 -0.0982 -0.2049 -0.0387
 1245ERGO    C216354   7.830  15.666   7.380  0.0754  0.0431  0.1314
 1246ERGO   ROH16355   5.838  11.543   6.378  0.2986  0.0647  0.0098
 1246ERGO    R116356   5.796  11.724   6.592  0.2508  0.0482  0.0138
 1246ERGO    R216357   5.768  11.640   6.854  0.1592  0.0258 -0.0045
 1246ERGO    R316358   5.970  11.816   6.898  0.1644  0.0005  0.0785
 1246ERGO    R416359   5.811  11.824   7.143  0.2270 -0.1966  0.1304
 1246ERGO    R516360   5.868  11.995   7.020  0.1878 -0.0969  0.2452
 1246ERGO    C116361   6.025  12.098   7.352  0.2713 -0.3497  0.2868
 1246ERGO    C216362   6.026  12.237   7.788 -0.0271  0.0117  0.0989
 1247ERGO   ROH16363   3.563  10.634   6.896  0.0693 -0.2975 -0.0274
 1247ERGO    R116364   3.830  10.610   6.985  0.0424 -0.1306  0.1021
 1247ERGO    R216365   4.047  10.663   6.821  0.0863 -0.2972  0.1114
 1247ERGO    R316366   4.118  10.830   7.024 -0.0143 -0.0212 -0.0745
 1247ERGO    R416367   4.371  10.759   6.894  0.0907 -0.4672  0.3306
 1247ERGO    R516368   4.324  10.740   7.106 -0.1835 -0.0778  0.3199
 1247ERGO    C116369   4.626  10.971   7.126 -0.0013 -0.3073  0.2837
 1247ERGO    C216370   4.940  11.148   7.242  0.0436  0.0497 -0.0672
 1248ERGO   ROH16371  16.041   9.925   6.040  0.1830 -0.2346  0.1219
 1248ERGO    R116372  16.124   9.923   6.310  0.2046  0.1210  0.1228
 1248ERGO    R216373  16.109  10.147   6.472 -0.2291  0.2162 -0.0362
 1248ERGO    R316374  15.969   9.980   6.634  0.1037  0.0475  0.0889
 1248ERGO    R416375  16.073  10.187   6.814 -0.2235  0.3523 -0.0511
 1248ERGO    R516376  16.097   9.972   6.836  0.1721  0.3966  0.0692
 1248ERGO    C116377  15.921  10.053   7.165  0.0922  0.2731  0.0576
 1248ERGO    C216378  15.779   9.977   7.412 -0.3199 -0.3272 -0.1445
 1249ERGO   ROH16379   2.925  10.687   6.399  0.0928  0.1902 -0.0537
 1249ERGO    R116380   2.924  10.544   6.643  0.1875  0.1079 -0.1011
 1249ERGO    R216381   3.143  10.537   6.812  0.1538  0.2942 -0.0490
 1249ERGO    R316382   2.963  10.624   6.996  0.0088  0.0355 -0.0639
 1249ERGO    R416383   3.175  10.495   7.153  0.1200  0.2240 -0.0543
 1249ERGO    R516384   2.961  10.451   7.162  0.1634 -0.0209 -0.1183
 1249ERGO    C116385   3.024  10.551   7.525 -0.0357 -0.0599 -0.0714
 1249ERGO    C216386   3.295  10.642   7.738  0.0121 -0.1139  0.0722
 1250ERGO   ROH16387   0.464  14.713   6.395  0.1449 -0.0783 -0.1071
 1250ERGO    R116388   0.651  14.702   6.608  0.0683 -0.0647 -0.0390
 1250ERGO    R216389   0.831  14.905   6.658  0.0546 -0.0653  0.0084
 1250ERGO    R316390   0.723  14.897   6.907 -0.0343 -0.0414 -0.0288
 1250ERGO    R416391   0.959  15.068   6.934 -0.1246  0.0800  0.0077
 1250ERGO    R516392   0.912  14.892   7.054 -0.0852  0.0926  0.0433
 1250ERGO    C116393   0.931  15.156   7.329 -0.3124  0.1868 -0.0278
 1250ERGO    C216394   0.897  15.374   7.646 -0.0022 -0.2810 -0.1663
 1251ERGO   ROH16395   7.375  16.841   6.548  0.2145 -0.1589  0.0284
 1251ERGO    R116396   7.347  16.805   6.828  0.2743 -0.3184  0.0144
 1251ERGO    R216397   7.560  16.738   6.991  0.4276  0.1259  0.0085
 1251ERGO    R316398   7.480  16.958   7.129 -0.1085 -0.0940  0.0757
 1251ERGO    R416399   7.632  16.799   7.324  0.3121  0.2176  0.0175
 1251ERGO    R516400   7.429  16.876   7.348  0.1125 -0.2848  0.0595
 1251ERGO    C116401   7.600  17.042   7.647 -0.2585  0.0647  0.0857
 1251ERGO    C216402   7.535  17.009   7.965 -0.1301  0.0006  0.0754
 1252ERGO   ROH16403  15.154   7.501   6.147 -0.1832  0.1128 -0.1307
 1252ERGO    R116404  15.037   7.333   6.341 -0.0074 -0.0190 -0.1366
 1252ERGO    R216405  14.778   7.367   6.432  0.1001 -0.0230  0.1868
 1252ERGO    R316406  14.752   7.106   6.358 -0.0502  0.0438 -0.0052
 1252ERGO    R416407  14.502   7.169   6.498  0.0933  0.0144  0.2704
 1252ERGO    R516408  14.637   7.004   6.542  0.0798 -0.0679  0.0150
 1252ERGO    C116409  14.318   6.810   6.468 -0.0517  0.0990  0.1388
 1252ERGO    C216410  13.963   6.677   6.567 -0.0351  0.1117 -0.1679
 1253ERGO   ROH16411  16.447  15.307   6.275  0.3147 -0.0562  0.0045
 1253ERGO    R116412  16.428  15.107   6.474  0.2831 -0.0323  0.0252
 1253ERGO    R216413  16.572  15.117   6.710  0.0314  0.1411  0.1738
 1253ERGO    R316414  16.327  15.089   6.823 -0.0652 -0.0499 -0.0726
 1253ERGO    R416415  16.513  14.982   7.022 -0.1589  0.2372  0.1811
 1253ERGO    R516416  16.339  14.880   6.940  0.0264  0.0172  0.0429
 1253ERGO    C116417  16.248  14.877   7.310 -0.3600  0.1140 -0.0460
 1253ERGO    C216418  16.073  14.909   7.582  0.0494 -0.2482  0.0242
 1254ERGO   ROH16419   3.224  16.828   6.518  0.0962 -0.0646  0.2567
 1254ERGO    R116420   3.125  16.804   6.782  0.1707 -0.2110  0.2735
 1254ERGO    R216421   3.233  16.628   6.966  0.4236 -0.1003  0.2430
 1254ERGO    R316422   3.256  16.852   7.119  0.1764 -0.0796  0.2515
 1254ERGO    R416423   3.204  16.635   7.310 -0.1388 -0.0417  0.2026
 1254ERGO    R516424   3.092  16.822   7.292 -0.1066 -0.0470 -0.0068
 1254ERGO    C116425   3.208  16.850   7.654 -0.6982  0.0120  0.1870
 1254ERGO    C216426   3.260  16.977   8.047  0.1415 -0.1369  0.0201
 1255ERGO   ROH16427   8.358   0.919   6.374  0.1211  0.1541  0.0239
 1255ERGO    R116428   8.301   0.832   6.637  0.0212  0.1133 -0.0111
 1255ERGO    R216429   8.497   0.790   6.827 -0.0431 -0.0029  0.0300
 1255ERGO    R316430   8.347   0.962   6.974 -0.0185  0.0176  0.0318
 1255ERGO    R416431   8.494   0.804   7.172  0.0245  0.0528  0.0288
 1255ERGO    R516432   8.278   0.834   7.164  0.0216  0.0462  0.0663
 1255ERGO    C116433   8.351   0.974   7.511  0.0868  0.1044  0.0298
 1255ERGO    C216434   8.366   0.978   7.929  0.4747 -0.2088 -0.1903
 1256ERGO   ROH16435   2.909   0.592   6.245  0.0918  0.0544 -0.0357
 1256ERGO    R116436   2.688   0.511   6.402  0.0853 -0.0616 -0.1083
 1256ERGO    R216437   2.716   0.351   6.627  0.1192  0.1030 -0.0100
 1256ERGO    R316438   2.579   0.553   6.747 -0.1489  0.0374 -0.1882
 1256ERGO    R416439   2.532   0.322   6.918  0.4991  0.1721  0.2459
 1256ERGO    R516440   2.381   0.451   6.831  0.1311 -0.2497  0.1887
 1256ERGO    C116441   2.298   0.494   7.200  0.4686  0.1508  0.2278
 1256ERGO    C216442   2.234   0.486   7.536 -0.3402 -0.3201  0.1648
 1257ERGO   ROH16443  10.126  13.209   6.134 -0.0319 -0.3115  0.1473
 1257ERGO    R116444  10.208  13.148   6.398  0.2621 -0.1831  0.0895
 1257ERGO    R216445  10.426  13.269   6.518  0.0977  0.2512 -0.0339
 1257ERGO    R316446  10.244  13.329   6.712  0.0892 -0.1453  0.0894
 1257ERGO    R416447  10.502  13.320   6.852  0.1971  0.2883 -0.0618
 1257ERGO    R516448  10.322  13.210   6.905  0.4249 -0.0683  0.0101
 1257ERGO    C116449  10.376  13.405   7.228  0.2471 -0.0622  0.0377
 1257ERGO    C216450  10.375  13.686   7.468  0.0652  0.1327  0.1110
 1258ERGO   ROH16451  18.071  12.656   6.243  0.0332 -0.0249 -0.0751
 1258ERGO    R116452  17.995  12.642   6.515  0.0079 -0.0312 -0.0828
 1258ERGO    R216453  18.026  12.413   6.667 -0.0379 -0.0442 -0.0953
 1258ERGO    R316454  18.161  12.580   6.833 -0.0288 -0.0744 -0.0716
 1258ERGO    R416455  18.068  12.364   7.006 -0.1743 -0.0162 -0.0732
 1258ERGO    R516456  18.036  12.577   7.036 -0.1017  0.0017 -0.1135
 1258ERGO    C116457  18.220  12.493   7.359 -0.2456 -0.0284 -0.0381
 1258ERGO    C216458  18.374  12.350   7.689 -0.1767  0.1489 -0.0783
 1259ERGO   ROH16459   2.933  17.571   6.512 -0.2114  0.0575 -0.2579
 1259ERGO    R116460   2.873  17.680   6.766 -0.2062  0.0623 -0.2587
 1259ERGO    R216461   2.622  17.664   6.881 -0.1581 -0.0980 -0.1720
 1259ERGO    R316462   2.759  17.555   7.089 -0.0088  0.0388 -0.1968
 1259ERGO    R416463   2.506  17.646   7.206 -0.0168 -0.0831 -0.1200
 1259ERGO    R516464   2.707  17.697   7.275 -0.0189  0.0562 -0.2133
 1259ERGO    C116465   2.567  17.534   7.590  0.2055  0.0543 -0.1130
 1259ERGO    C216466   2.443  17.417   7.821 -0.2153  0.1498  0.1270
 1260ERGO   ROH16467  16.311  16.164   6.450 -0.1947  0.2849  0.0304
 1260ERGO    R116468  16.259  16.072   6.712 -0.0479  0.2070  0.0337
 1260ERGO    R216469  16.459  16.015   6.893  0.0545  0.1749 -0.0866
 1260ERGO    R316470  16.321  16.188   7.051  0.1206  0.1191  0.0336
 1260ERGO    R416471  16.465  16.015   7.239  0.0547 -0.0630 -0.0853
 1260ERGO    R516472  16.251  16.055   7.238  0.0712  0.0185 -0.0571
 1260ERGO    C116473  16.339  16.177   7.588  0.1171 -0.2538  0.0282
 1260ERGO    C216474  16.259  16.353   7.895 -0.1319  0.0020  0.0369
 1261ERGO   ROH16475  12.521   2.232   6.314  0.2000 -0.0757 -0.1098
 1261ERGO    R116476  12.674   2.101   6.513 -0.0236  0.0023  0.1189
 1261ERGO    R216477  12.950   2.116   6.523 -0.0029 -0.3172  0.1872
 1261ERGO    R316478  12.905   2.200   6.777  0.0055  0.0825  0.0626
 1261ERGO    R416479  13.196   2.183   6.756 -0.0079 -0.2521  0.1738
 1261ERGO    R516480  13.071   2.089   6.908 -0.1529  0.0863  0.2685
 1261ERGO    C116481  13.296   2.301   7.131 -0.0028  0.1610  0.0490
 1261ERGO    C216482  13.405   2.490   7.404  0.0659  0.1180  0.0664
 1262ERGO   ROH16483   1.361   3.307   6.328  0.1359  0.0853  0.1106
 1262ERGO    R116484   1.235   3.245   6.574  0.0540 -0.1028  0.0245
 1262ERGO    R216485   1.298   3.019   6.719  0.2830 -0.0264  0.0626
 1262ERGO    R316486   1.339   3.199   6.919 -0.1077  0.0388  0.0912
 1262ERGO    R416487   1.415   2.940   7.035  0.4965  0.1932  0.0400
 1262ERGO    R516488   1.273   3.083   7.118  0.1758 -0.1455  0.0769
 1262ERGO    C116489   1.522   3.063   7.406  0.2540  0.3823  0.0539
 1262ERGO    C216490   1.550   2.850   7.642 -0.1336 -0.0916 -0.1940
 1263ERGO   ROH16491  12.261  15.096   6.150  0.2539 -0.1955  0.2181
 1263ERGO    R116492  12.275  15.260   6.381  0.0879 -0.0374  0.1189
 1263ERGO    R216493  12.083  15.449   6.440 -0.0962 -0.1766 -0.0097
 1263ERGO    R316494  12.072  15.316   6.677  0.0161 -0.0443  0.0704
 1263ERGO    R416495  11.938  15.572   6.729 -0.0460 -0.0599 -0.0341
 1263ERGO    R516496  12.104  15.487   6.842  0.0128  0.0573 -0.0356
 1263ERGO    C116497  11.843  15.519   7.119  0.0888  0.1321  0.0269
 1263ERGO    C216498  11.837  15.515   7.451 -0.1919 -0.0291 -0.0980
 1264ERGO   ROH16499  13.961   2.033   6.255 -0.1484 -0.0403 -0.0960
 1264ERGO    R116500  14.135   2.223   6.372 -0.0436 -0.1715 -0.0338
 1264ERGO    R216501  14.055   2.481   6.432  0.1734 -0.0561 -0.2085
 1264ERGO    R316502  14.146   2.417   6.680 -0.0992 -0.0552 -0.1060
 1264ERGO    R416503  14.107   2.708   6.687  0.2873 -0.0001 -0.2814
 1264ERGO    R516504  14.289   2.600   6.739  0.1028 -0.2198 -0.0896
 1264ERGO    C116505  14.223   2.780   7.069  0.0977  0.0333 -0.2276
 1264ERGO    C216506  13.954   2.845   7.494 -0.3171  0.3589 -0.0628
 1265ERGO   ROH16507   3.471   9.011   5.992 -0.3106  0.0767 -0.1241
 1265ERGO    R116508   3.580   9.047   6.251 -0.1244  0.0591 -0.1980
 1265ERGO    R216509   3.472   9.223   6.435  0.0551  0.1083 -0.1343
 1265ERGO    R316510   3.466   9.002   6.593  0.0891  0.1192 -0.1184
 1265ERGO    R416511   3.357   9.216   6.760  0.1615  0.1328 -0.0960
 1265ERGO    R516512   3.522   9.084   6.811  0.1656  0.1246 -0.1419
 1265ERGO    C116513   3.284   9.005   7.099  0.2553  0.1572 -0.0587
 1265ERGO    C216514   3.075   9.086   7.357 -0.1297  0.3408 -0.0964
 1266ERGO   ROH16515   1.081   8.494   6.150  0.1232 -0.0671 -0.1996
 1266ERGO    R116516   1.143   8.630   6.390  0.0179 -0.0039 -0.2077
 1266ERGO    R216517   0.949   8.747   6.549 -0.0941 -0.2752 -0.1356
 1266ERGO    R316518   1.060   8.593   6.743  0.1760 -0.1472 -0.1851
 1266ERGO    R416519   1.022   8.856   6.868 -0.1272 -0.2097 -0.1501
 1266ERGO    R516520   1.208   8.742   6.859  0.0206  0.0362 -0.2216
 1266ERGO    C116521   1.169   8.774   7.237  0.1071 -0.0513 -0.2050
 1266ERGO    C216522   1.048   8.905   7.465  0.0333 -0.1528  0.2148
 1267ERGO   ROH16523   3.713   9.447   6.049  0.3426  0.0484 -0.0887
 1267ERGO    R116524   3.854   9.486   6.291  0.2047  0.0634 -0.0098
 1267ERGO    R216525   3.735   9.594   6.516  0.0555  0.0070 -0.0593
 1267ERGO    R316526   3.828   9.368   6.634  0.0573  0.0206 -0.0353
 1267ERGO    R416527   3.691   9.512   6.849  0.0805  0.0541 -0.0445
 1267ERGO    R516528   3.896   9.438   6.853  0.0775  0.0480 -0.0510
 1267ERGO    C116529   3.752   9.252   7.154  0.0967  0.0942 -0.0134
 1267ERGO    C216530   3.610   9.176   7.412 -0.1740 -0.0870 -0.0767
 1268ERGO   ROH16531   4.470   1.354   6.030 -0.0475  0.1672 -0.0787
 1268ERGO    R116532   4.571   1.298   6.289 -0.2861  0.1240  0.0102
 1268ERGO    R216533   4.834   1.345   6.359 -0.1818 -0.4407  0.0794
 1268ERGO    R316534   4.721   1.487   6.561  0.0515 -0.0029 -0.0850
 1268ERGO    R416535   4.995   1.434   6.652 -0.0543 -0.3971 -0.0052
 1268ERGO    R516536   4.811   1.390   6.760 -0.1484  0.0576  0.0323
 1268ERGO    C116537   4.982   1.620   7.012  0.2390  0.0392 -0.2088
 1268ERGO    C216538   5.062   1.675   7.337 -0.1486  0.2341 -0.1198
 1269ERGO   ROH16539  14.741  17.454   6.826  0.2538  0.1569  0.0914
 1269ERGO    R116540  14.722  17.256   7.028  0.1829  0.0821  0.0138
 1269ERGO    R216541  14.787  17.306   7.291  0.1475 -0.0307  0.0472
 1269ERGO    R316542  14.537  17.211   7.338  0.1216 -0.0013 -0.0349
 1269ERGO    R416543  14.672  17.195   7.598  0.1076 -0.2291 -0.0394
 1269ERGO    R516544  14.570  17.032   7.494  0.0699 -0.1264 -0.1652
 1269ERGO    C116545  14.370  17.040   7.820  0.0601 -0.3169 -0.1668
 1269ERGO    C216546  14.475  16.993   8.136 -0.0093 -0.0296 -0.1030
 1270ERGO   ROH16547   1.168  15.513   5.954 -0.0119 -0.0463  0.0523
 1270ERGO    R116548   1.264  15.626   6.195 -0.0535 -0.2749  0.1789
 1270ERGO    R216549   1.265  15.898   6.242  0.3919 -0.2780  0.2350
 1270ERGO    R316550   1.128  15.827   6.466  0.0240 -0.0858  0.0797
 1270ERGO    R416551   1.266  16.075   6.539  0.3698 -0.3217  0.2608
 1270ERGO    R516552   1.274  15.885   6.646 -0.0657 -0.3592  0.2472
 1270ERGO    C116553   1.137  16.110   6.922  0.0116 -0.1667  0.1301
 1270ERGO    C216554   1.011  16.087   7.228 -0.0320  0.1455 -0.2059
 1271ERGO   ROH16555   1.840   3.328   6.327  0.1887  0.0470  0.0303
 1271ERGO    R116556   1.775   3.324   6.603  0.2674  0.2084  0.0524
 1271ERGO    R216557   1.745   3.088   6.745 -0.0218  0.2835  0.1174
 1271ERGO    R316558   1.929   3.203   6.909  0.1936  0.0643  0.0348
 1271ERGO    R416559   1.828   2.974   7.060 -0.1804  0.2988  0.1659
 1271ERGO    R516560   1.837   3.180   7.128  0.1732  0.3301  0.0596
 1271ERGO    C116561   2.050   3.015   7.398 -0.0705  0.1019  0.1166
 1271ERGO    C216562   2.011   3.026   7.768  0.0291  0.0427 -0.3422
 1272ERGO   ROH16563  12.767  14.837   6.256 -0.2292 -0.0258  0.0743
 1272ERGO    R116564  12.636  14.983   6.460 -0.3036  0.0275 -0.0100
 1272ERGO    R216565  12.761  15.054   6.695 -0.4540 -0.1106  0.1174
 1272ERGO    R316566  12.679  15.304   6.625 -0.2127 -0.0367  0.0903
 1272ERGO    R416567  12.669  15.302   6.918 -0.2803 -0.0138  0.0833
 1272ERGO    R516568  12.507  15.356   6.783 -0.2001  0.1286  0.0475
 1272ERGO    C116569  12.538  15.680   6.982  0.0472  0.1120  0.0379
 1272ERGO    C216570  12.558  15.756   7.348  0.0776 -0.0665 -0.0326
 1273ERGO   ROH16571   9.306  12.762   6.091  0.1746  0.1434 -0.0334
 1273ERGO    R116572   9.305  12.933   6.316 -0.0830  0.0704  0.0268
 1273ERGO    R216573   9.123  12.905   6.523 -0.1293 -0.1939 -0.0313
 1273ERGO    R316574   9.348  12.897   6.676 -0.1621 -0.0100  0.0259
 1273ERGO    R416575   9.138  12.985   6.859 -0.2192  0.0372 -0.0825
 1273ERGO    R516576   9.329  13.084   6.822 -0.2541  0.0756 -0.1051
 1273ERGO    C116577   9.358  13.024   7.198 -0.3025  0.3443 -0.0586
 1273ERGO    C216578   9.518  12.981   7.444  0.1132 -0.3198 -0.4022
 1274ERGO   ROH16579  11.973  14.281   6.277 -0.1317 -0.2273  0.1211
 1274ERGO    R116580  11.915  14.271   6.554 -0.0480 -0.1501  0.1400
 1274ERGO    R216581  12.113  14.245   6.747  0.0103 -0.0403  0.0850
 1274ERGO    R316582  11.998  14.470   6.848 -0.0111 -0.0358  0.0561
 1274ERGO    R416583  12.184  14.382   7.056  0.0336  0.0148  0.0566
 1274ERGO    R516584  11.973  14.425   7.081  0.0215 -0.0079  0.0718
 1274ERGO    C116585  12.119  14.673   7.330  0.0269  0.0509  0.0128
 1274ERGO    C216586  12.097  14.837   7.637 -0.2181  0.0045 -0.1253
 1275ERGO   ROH16587  12.980  12.211   6.443 -0.0414 -0.0819  0.0449
 1275ERGO    R116588  12.819  12.235   6.675 -0.0576 -0.1980  0.0451
 1275ERGO    R216589  12.910  12.171   6.927  0.0959  0.1540  0.0798
 1275ERGO    R316590  12.830  12.423   6.986 -0.3557  0.0617 -0.0944
 1275ERGO    R416591  12.736  12.261   7.212  0.2303  0.0796  0.1882
 1275ERGO    R516592  12.615  12.395   7.089 -0.1932 -0.2826  0.1766
 1275ERGO    C116593  12.559  12.551   7.433 -0.1154 -0.0504  0.0878
 1275ERGO    C216594  12.344  12.734   7.595  0.1700 -0.0201 -0.2418
 1276ERGO   ROH16595   1.859   6.362   6.118  0.2962 -0.1411  0.0938
 1276ERGO    R116596   1.917   6.312   6.391  0.2289 -0.0222  0.1303
 1276ERGO    R216597   2.068   6.485   6.545  0.0819  0.1093  0.1278
 1276ERGO    R316598   1.851   6.476   6.709  0.0295  0.0453  0.0563
 1276ERGO    R416599   2.073   6.552   6.884 -0.0601  0.1698  0.1191
 1276ERGO    R516600   1.936   6.386   6.915 -0.0006  0.1156  0.1004
 1276ERGO    C116601   1.874   6.583   7.236 -0.1919  0.1449  0.0469
 1276ERGO    C216602   1.737   6.626   7.634 -0.0181 -0.0901 -0.0660
 1277ERGO   ROH16603  12.588   6.636   6.679 -0.1652  0.1685 -0.1385
 1277ERGO    R116604  12.615   6.755   6.935  0.0308  0.0643 -0.1108
 1277ERGO    R216605  12.444   6.699   7.144 -0.0115  0.2336 -0.1085
 1277ERGO    R316606  12.675   6.640   7.275 -0.0679 -0.1052 -0.1477
 1277ERGO    R416607  12.500   6.753   7.481  0.1124  0.1397 -0.1117
 1277ERGO    R516608  12.702   6.818   7.432  0.2084 -0.1419 -0.1412
 1277ERGO    C116609  12.750   6.729   7.799  0.1314 -0.2330 -0.1504
 1277ERGO    C216610  12.943   6.792   8.136  0.1067 -0.1771  0.0489
 1278ERGO   ROH16611  12.478  18.157   6.518  0.0311 -0.0657  0.0088
 1278ERGO    R116612  12.615  18.174   6.765 -0.1008  0.2588  0.0669
 1278ERGO    R216613  12.512  18.308   6.984 -0.4896  0.0711  0.0189
 1278ERGO    R316614  12.554  18.071   7.109 -0.0296  0.1606  0.0479
 1278ERGO    R416615  12.488  18.257   7.325 -0.3946  0.0503  0.0212
 1278ERGO    R516616  12.664  18.129   7.313 -0.1466  0.3901  0.0412
 1278ERGO    C116617  12.513  18.004   7.640  0.0926  0.1218  0.0497
 1278ERGO    C216618  12.306  18.098   7.935  0.4972 -0.3150 -0.2220
 1279ERGO   ROH16619  16.867   4.417   6.253 -0.2371 -0.0962  0.1508
 1279ERGO    R116620  17.089   4.473   6.420 -0.0936 -0.1223 -0.0273
 1279ERGO    R216621  17.063   4.598   6.665  0.1355  0.0137 -0.0676
 1279ERGO    R316622  17.198   4.380   6.754  0.0873 -0.0108 -0.0544
 1279ERGO    R416623  17.218   4.575   6.973  0.0868 -0.0232 -0.0459
 1279ERGO    R516624  17.384   4.471   6.876  0.0837 -0.0461 -0.0241
 1279ERGO    C116625  17.435   4.357   7.237  0.0131 -0.0677 -0.0208
 1279ERGO    C216626  17.656   4.373   7.538  0.1522  0.0200 -0.0795
 1280ERGO   ROH16627   1.044   4.253   6.319  0.0564 -0.3014  0.0466
 1280ERGO    R116628   1.039   4.103   6.559  0.0399 -0.2295  0.0914
 1280ERGO    R216629   1.209   4.154   6.771  0.1044 -0.2411  0.0404
 1280ERGO    R316630   0.977   4.169   6.912  0.1397 -0.1009  0.0860
 1280ERGO    R416631   1.178   4.089   7.109  0.1789  0.0186  0.0995
 1280ERGO    R516632   0.990   3.988   7.067  0.1522  0.0126  0.2211
 1280ERGO    C116633   0.942   4.065   7.438  0.2553  0.3015  0.1768
 1280ERGO    C216634   0.993   4.072   7.820  0.0547  0.1611 -0.0855
 1281ERGO   ROH16635   4.742   4.200   6.222  0.0914 -0.1284  0.0511
 1281ERGO    R116636   4.935   4.254   6.421  0.1206 -0.1689  0.0345
 1281ERGO    R216637   4.974   4.507   6.526  0.2832 -0.1449 -0.0720
 1281ERGO    R316638   4.935   4.379   6.763  0.1875 -0.0204 -0.0204
 1281ERGO    R416639   5.132   4.588   6.823  0.2336 -0.0610 -0.0686
 1281ERGO    R516640   5.151   4.375   6.865  0.1567 -0.0429  0.0362
 1281ERGO    C116641   5.186   4.516   7.218  0.1148  0.1047 -0.0182
 1281ERGO    C216642   5.142   4.473   7.601  0.2740 -0.0204  0.2282
 1282ERGO   ROH16643   8.977  18.102   6.253 -0.2601 -0.1376 -0.2227
 1282ERGO    R116644   8.819  18.202   6.465 -0.1742 -0.0642 -0.1924
 1282ERGO    R216645   8.577  18.088   6.536 -0.1559 -0.0275 -0.0681
 1282ERGO    R316646   8.692  18.075   6.782 -0.0642  0.0378 -0.1070
 1282ERGO    R416647   8.403  18.072   6.834 -0.0443  0.1438  0.0079
 1282ERGO    R516648   8.549  18.209   6.921  0.0299  0.1358 -0.1039
 1282ERGO    C116649   8.410  18.050   7.239  0.1071  0.3048  0.0157
 1282ERGO    C216650   8.245  18.228   7.547  0.3489  0.1469 -0.0856
 1283ERGO   ROH16651   5.415   5.950   6.192  0.1544  0.0987 -0.0308
 1283ERGO    R116652   5.419   5.805   6.435  0.0442 -0.0043 -0.0881
 1283ERGO    R216653   5.536   5.903   6.666  0.2775 -0.2572 -0.0817
 1283ERGO    R316654   5.292   5.852   6.773  0.2400  0.0504 -0.0260
 1283ERGO    R416655   5.457   5.936   7.000  0.3278 -0.0277 -0.0917
 1283ERGO    R516656   5.340   5.753   6.986  0.1412  0.1014  0.0079
 1283ERGO    C116657   5.182   5.908   7.296  0.3219  0.3948 -0.0454
 1283ERGO    C216658   5.237   6.125   7.646  0.0923 -0.3871 -0.1131
 1284ERGO   ROH16659   6.525  16.066   6.480 -0.1589 -0.0559  0.0627
 1284ERGO    R116660   6.610  15.985   6.737 -0.2447 -0.0581  0.0909
 1284ERGO    R216661   6.861  16.045   6.836 -0.2041 -0.2313  0.0959
 1284ERGO    R316662   6.719  16.149   7.043 -0.1401 -0.0645  0.0575
 1284ERGO    R416663   6.958  16.032   7.167 -0.3068 -0.3469  0.1224
 1284ERGO    R516664   6.751  15.992   7.221 -0.3719 -0.1045  0.0664
 1284ERGO    C116665   6.881  16.123   7.555 -0.3065 -0.2576  0.1017
 1284ERGO    C216666   7.030  16.269   7.793 -0.0304 -0.1120  0.2174
 1285ERGO   ROH16667   6.676   7.117   5.998 -0.1404  0.0386 -0.0514
 1285ERGO    R116668   6.587   7.022   6.249 -0.0899 -0.0244 -0.0562
 1285ERGO    R216669   6.745   6.868   6.415 -0.0079  0.0407 -0.0672
 1285ERGO    R316670   6.687   7.061   6.597 -0.1021  0.0025 -0.0569
 1285ERGO    R416671   6.726   6.818   6.757  0.0584  0.0301 -0.0653
 1285ERGO    R516672   6.553   6.950   6.761 -0.0164 -0.0752 -0.0431
 1285ERGO    C116673   6.661   6.971   7.126  0.0086 -0.0118 -0.0545
 1285ERGO    C216674   6.890   6.918   7.469  0.0380  0.1704  0.1694
 1286ERGO   ROH16675   6.323  13.299   6.283  0.1032 -0.1351  0.0196
 1286ERGO    R116676   6.259  13.476   6.494  0.0263 -0.1126 -0.0226
 1286ERGO    R216677   6.096  13.404   6.705 -0.0386 -0.0940 -0.0683
 1286ERGO    R316678   6.307  13.487   6.855 -0.0922 -0.0655 -0.0069
 1286ERGO    R416679   6.072  13.550   7.018 -0.1444 -0.2641  0.0044
 1286ERGO    R516680   6.231  13.687   6.960 -0.2042 -0.1545  0.0881
 1286ERGO    C116681   6.257  13.711   7.340 -0.2563 -0.3364  0.1044
 1286ERGO    C216682   6.365  13.589   7.693 -0.0554  0.2071 -0.2497
 1287ERGO   ROH16683   2.395  15.303   6.093  0.0809  0.1580 -0.0072
 1287ERGO    R116684   2.433  15.271   6.371  0.1107  0.1594 -0.0113
 1287ERGO    R216685   2.514  15.478   6.535  0.0026  0.1926 -0.0013
 1287ERGO    R316686   2.291  15.412   6.675  0.0456  0.0591  0.0059
 1287ERGO    R416687   2.421  15.621   6.836 -0.1232  0.2143 -0.0498
 1287ERGO    R516688   2.360  15.423   6.905  0.0279  0.1839  0.0075
 1287ERGO    C116689   2.157  15.641   7.143 -0.1561  0.1015 -0.0712
 1287ERGO    C216690   2.029  15.930   7.375  0.1658  0.0184 -0.2636
 1288ERGO   ROH16691   4.075  18.047   6.793 -0.3931  0.1651 -0.0088
 1288ERGO    R116692   3.971  18.166   7.028 -0.1672 -0.0007  0.1805
 1288ERGO    R216693   3.987  18.046   7.276  0.2133 -0.1076  0.1109
 1288ERGO    R316694   4.103  18.281   7.347  0.1726 -0.0754  0.0702
 1288ERGO    R416695   4.045  18.147   7.601  0.1510 -0.0141  0.0931
 1288ERGO    R516696   3.985  18.349   7.544  0.1356 -0.0383  0.0333
 1288ERGO    C116697   4.187  18.428   7.857  0.0764  0.0704  0.0445
 1288ERGO    C216698   4.249  18.498   8.213  0.2508 -0.0144 -0.0865
 1289ERGO   ROH16699   9.841   1.526   6.458 -0.0422 -0.0147 -0.0154
 1289ERGO    R116700   9.831   1.606   6.729 -0.0430  0.0095 -0.0237
 1289ERGO    R216701   9.654   1.496   6.911 -0.0112 -0.0025 -0.0090
 1289ERGO    R316702   9.880   1.447   7.053  0.0012  0.0526 -0.0072
 1289ERGO    R416703   9.669   1.471   7.255 -0.0587 -0.2162 -0.0202
 1289ERGO    R516704   9.857   1.581   7.250 -0.1242 -0.0849  0.0796
 1289ERGO    C116705   9.891   1.410   7.590 -0.0748 -0.2888 -0.0251
 1289ERGO    C216706   9.977   1.267   7.959  0.2892 -0.0599  0.0457
 1290ERGO   ROH16707   5.813  13.226   6.292  0.1722  0.1519  0.1702
 1290ERGO    R116708   5.625  13.178   6.498  0.0044  0.3442  0.0647
 1290ERGO    R216709   5.657  12.975   6.683 -0.4597  0.1099 -0.1051
 1290ERGO    R316710   5.626  13.177   6.862 -0.1107  0.0176  0.0690
 1290ERGO    R416711   5.523  12.938   6.999 -0.2929  0.0237 -0.0424
 1290ERGO    R516712   5.418  13.128   6.971 -0.1003  0.1711  0.1680
 1290ERGO    C116713   5.417  13.106   7.352  0.1318 -0.1132  0.1575
 1290ERGO    C216714   5.571  13.001   7.643  0.0873 -0.0197 -0.0295
 1291ERGO   ROH16715  16.994  11.811   6.033  0.2249  0.1477  0.0601
 1291ERGO    R116716  16.873  11.662   6.241  0.0629  0.1112 -0.0586
 1291ERGO    R216717  16.976  11.653   6.497 -0.0776 -0.0165 -0.0066
 1291ERGO    R316718  16.727  11.734   6.566 -0.0894  0.0395 -0.1094
 1291ERGO    R416719  16.797  11.530   6.766 -0.1538  0.1249  0.0081
 1291ERGO    R516720  16.618  11.534   6.641 -0.1240  0.0813 -0.0415
 1291ERGO    C116721  16.458  11.536   6.988 -0.2091  0.2598 -0.0799
 1291ERGO    C216722  16.239  11.697   7.204  0.0511 -0.1704 -0.0805
 1292ERGO   ROH16723   8.288  13.928   6.132 -0.1852 -0.0951  0.0273
 1292ERGO    R116724   8.246  14.091   6.359 -0.1078  0.0087 -0.0316
 1292ERGO    R216725   8.091  14.012   6.573 -0.1707  0.1718 -0.0122
 1292ERGO    R316726   8.315  14.070   6.716 -0.1451  0.0917 -0.0199
 1292ERGO    R416727   8.093  14.110   6.905 -0.1411  0.4002 -0.0790
 1292ERGO    R516728   8.250  14.254   6.856 -0.0185  0.2412 -0.1561
 1292ERGO    C116729   8.305  14.222   7.232 -0.1000  0.4579 -0.1250
 1292ERGO    C216730   8.401  14.248   7.565  0.0013  0.0194  0.1576
 1293ERGO   ROH16731   9.282  15.440   5.972  0.2343  0.0217 -0.0290
 1293ERGO    R116732   9.208  15.334   6.224  0.1367  0.0159 -0.0604
 1293ERGO    R216733   9.394  15.271   6.420  0.0528  0.0916  0.0388
 1293ERGO    R316734   9.240  15.435   6.573 -0.0810  0.0492 -0.0479
 1293ERGO    R416735   9.324  15.221   6.754  0.1300  0.2248  0.0764
 1293ERGO    R516736   9.120  15.286   6.716  0.0633  0.0217  0.0517
 1293ERGO    C116737   9.138  15.345   7.093  0.0493  0.2626  0.0169
 1293ERGO    C216738   9.083  15.178   7.378  0.0793 -0.0439 -0.1434
 1294ERGO   ROH16739   0.075  10.010   6.140  0.2124  0.3082 -0.1791
 1294ERGO    R116740   0.208   9.985   6.388  0.2233  0.2055 -0.1938
 1294ERGO    R216741   0.193  10.179   6.585  0.1405  0.0764 -0.0663
 1294ERGO    R316742   0.112   9.970   6.739  0.2272 -0.0595 -0.2031
 1294ERGO    R416743   0.293  10.123   6.911 -0.0647  0.0629 -0.0046
 1294ERGO    R516744   0.306   9.911   6.866  0.1857  0.0923 -0.0693
 1294ERGO    C116745   0.276   9.895   7.246 -0.1028 -0.0725 -0.0971
 1294ERGO    C216746   0.417   9.814   7.584 -0.0275 -0.2849  0.0433
 1295ERGO   ROH16747   4.258   7.915   6.251 -0.1638  0.4689  0.1503
 1295ERGO    R116748   4.236   7.803   6.510 -0.0437  0.1866  0.0417
 1295ERGO    R216749   4.117   7.936   6.721  0.1567  0.0092  0.2748
 1295ERGO    R316750   3.967   7.709   6.736  0.0615  0.0601  0.1158
 1295ERGO    R416751   3.992   7.801   7.013  0.1145 -0.1544  0.1826
 1295ERGO    R516752   4.041   7.603   6.938  0.0263 -0.1201  0.0347
 1295ERGO    C116753   3.778   7.511   7.198  0.0007 -0.2018 -0.0203
 1295ERGO    C216754   3.754   7.342   7.472  0.1480  0.2748  0.0719
 1296ERGO   ROH16755   3.039   4.114   6.169  0.2211 -0.0275 -0.1148
 1296ERGO    R116756   3.095   4.177   6.439  0.0771 -0.0337 -0.0826
 1296ERGO    R216757   2.914   4.306   6.602 -0.0884 -0.2175 -0.1169
 1296ERGO    R316758   2.956   4.092   6.764  0.0364 -0.2157 -0.1464
 1296ERGO    R416759   2.920   4.317   6.948 -0.2547 -0.2899 -0.1100
 1296ERGO    R516760   3.088   4.179   6.944 -0.1240 -0.1344 -0.0668
 1296ERGO    C116761   2.965   4.123   7.301 -0.2344 -0.3305 -0.1336
 1296ERGO    C216762   2.911   3.939   7.634 -0.2439 -0.0584  0.0371
 1297ERGO   ROH16763  11.096  18.127   6.766  0.0480  0.1481 -0.1470
 1297ERGO    R116764  11.035  18.022   7.023  0.1405  0.1189 -0.1370
 1297ERGO    R216765  11.186  18.082   7.247  0.0942  0.2671 -0.1457
 1297ERGO    R316766  10.945  18.158   7.348  0.0301  0.0718 -0.1473
 1297ERGO    R416767  11.125  18.159   7.579  0.0187  0.1778 -0.1380
 1297ERGO    R516768  10.935  18.054   7.564  0.0975  0.0349 -0.1612
 1297ERGO    C116769  10.864  18.275   7.866 -0.0854 -0.0577 -0.1349
 1297ERGO    C216770  10.700  18.370   8.222  0.1057  0.2126 -0.1930
 1298ERGO   ROH16771  15.412  10.967   5.813  0.2412 -0.2511 -0.1208
 1298ERGO    R116772  15.365  10.889   6.081  0.1586 -0.1383 -0.1009
 1298ERGO    R216773  15.563  10.894   6.275  0.1057 -0.0744 -0.0433
 1298ERGO    R316774  15.383  11.046   6.409  0.0776 -0.0042 -0.1607
 1298ERGO    R416775  15.570  10.955   6.615 -0.1432 -0.1473 -0.0238
 1298ERGO    R516776  15.354  10.933   6.618 -0.1574 -0.0299 -0.2067
 1298ERGO    C116777  15.405  11.133   6.939 -0.3146 -0.1239 -0.1226
 1298ERGO    C216778  15.443  11.297   7.080  0.0122 -0.1710 -0.0398
 1299ERGO   ROH16779   9.218  11.729   6.209 -0.1055 -0.3263  0.1262
 1299ERGO    R116780   9.307  11.906   6.411  0.0877 -0.2487 -0.0218
 1299ERGO    R216781   9.172  11.937   6.651  0.0580  0.1783 -0.0819
 1299ERGO    R316782   9.415  11.877   6.758 -0.0522 -0.0682  0.0368
 1299ERGO    R416783   9.290  12.055   6.954  0.0850  0.1512 -0.0823
 1299ERGO    R516784   9.486  12.080   6.863  0.1499 -0.1149 -0.0135
 1299ERGO    C116785   9.586  12.067   7.230 -0.0027 -0.0961  0.0288
 1299ERGO    C216786   9.560  12.065   7.465 -0.2394  0.0099  0.2692
 1300ERGO   ROH16787  11.105  17.648   6.718  0.0608  0.1745 -0.0092
 1300ERGO    R116788  11.049  17.550   6.978 -0.1482  0.1535 -0.0616
 1300ERGO    R216789  11.204  17.613   7.197 -0.0941 -0.1771 -0.0052
 1300ERGO    R316790  10.966  17.692   7.302  0.0028  0.1512 -0.0198
 1300ERGO    R416791  11.136  17.637   7.535 -0.1431 -0.3095 -0.0043
 1300ERGO    R516792  10.938  17.554   7.496 -0.2823  0.0487 -0.1248
 1300ERGO    C116793  10.873  17.725   7.831 -0.0806 -0.0782 -0.0174
 1300ERGO    C216794  10.661  17.812   8.095 -0.3398 -0.0913  0.1139
 1301ERGO   ROH16795   7.643  17.172   6.727  0.0276 -0.2876  0.0870
 1301ERGO    R116796   7.870  17.164   6.895  0.0558 -0.1347  0.0587
 1301ERGO    R216797   7.901  17.333   7.112  0.0161 -0.0468 -0.0021
 1301ERGO    R316798   7.935  17.100   7.248  0.1318  0.0126  0.0716
 1301ERGO    R416799   7.994  17.309   7.444  0.2956  0.0973 -0.0672
 1301ERGO    R516800   8.122  17.141   7.391  0.2526  0.0768 -0.1021
 1301ERGO    C116801   8.080  17.077   7.765  0.5670  0.2369 -0.0360
 1301ERGO    C216802   8.156  17.011   8.018 -0.2641 -0.0332  0.1473
 1302ERGO   ROH16803   2.224  16.684   6.286 -0.1611  0.2059 -0.0983
 1302ERGO    R116804   2.227  16.633   6.565 -0.1170  0.2470 -0.0919
 1302ERGO    R216805   2.137  16.816   6.751 -0.2729  0.1959 -0.1202
 1302ERGO    R316806   1.981  16.609   6.832 -0.0973  0.0730 -0.0869
 1302ERGO    R416807   2.028  16.766   7.075 -0.2875  0.1981 -0.1240
 1302ERGO    R516808   2.065  16.553   7.049 -0.0828  0.2192 -0.0512
 1302ERGO    C116809   1.818  16.542   7.340 -0.1312  0.0837 -0.0949
 1302ERGO    C216810   1.765  16.683   7.622  0.0745 -0.0791 -0.0436
 1303ERGO   ROH16811  15.492   6.267   6.151 -0.0721  0.1880 -0.0026
 1303ERGO    R116812  15.600   6.317   6.408 -0.0309  0.0527  0.0085
 1303ERGO    R216813  15.547   6.549   6.548  0.1089  0.0472  0.0802
 1303ERGO    R316814  15.468   6.376   6.742  0.0151  0.0331  0.0287
 1303ERGO    R416815  15.534   6.623   6.886 -0.0274  0.0047  0.0838
 1303ERGO    R516816  15.612   6.424   6.927 -0.0619 -0.0021  0.0942
 1303ERGO    C116817  15.452   6.502   7.264 -0.1950 -0.0332  0.0375
 1303ERGO    C216818  15.239   6.562   7.547  0.2260  0.0523  0.0123
 1304ERGO   ROH16819  13.674  12.064   6.357 -0.0224 -0.0618  0.1724
 1304ERGO    R116820  13.551  11.902   6.554 -0.1379 -0.0602  0.1025
 1304ERGO    R216821  13.303  11.962   6.661 -0.1910 -0.0451 -0.0232
 1304ERGO    R316822  13.244  11.708   6.583 -0.1690 -0.0371 -0.0655
 1304ERGO    R416823  13.073  11.756   6.816 -0.2310 -0.0646 -0.1083
 1304ERGO    R516824  13.210  11.589   6.788 -0.2236 -0.0597 -0.0888
 1304ERGO    C116825  12.883  11.398   6.833 -0.2337 -0.0683 -0.1976
 1304ERGO    C216826  12.570  11.299   6.839  0.0698 -0.1661  0.0041
 1305ERGO   ROH16827   9.257   8.545   5.925  0.0593 -0.2235  0.0843
 1305ERGO    R116828   9.310   8.479   6.195 -0.0058 -0.0801  0.1332
 1305ERGO    R216829   9.403   8.663   6.379  0.0511 -0.0076  0.0300
 1305ERGO    R316830   9.187   8.582   6.522 -0.0033  0.1764  0.0556
 1305ERGO    R416831   9.409   8.575   6.713  0.0680 -0.2417 -0.0299
 1305ERGO    R516832   9.272   8.412   6.667 -0.1650 -0.0369 -0.0911
 1305ERGO    C116833   9.210   8.448   7.042  0.0268 -0.2052 -0.0409
 1305ERGO    C216834   9.064   8.613   7.385  0.0474 -0.1105 -0.1715
 1306ERGO   ROH16835  12.137   4.436   6.545 -0.1149  0.0099  0.0422
 1306ERGO    R116836  12.032   4.540   6.786 -0.0896  0.0227  0.0475
 1306ERGO    R216837  11.925   4.380   6.984 -0.1906  0.0428  0.0103
 1306ERGO    R316838  12.106   4.509   7.141 -0.1431 -0.0710  0.0505
 1306ERGO    R416839  11.919   4.384   7.329 -0.2271 -0.0054  0.0103
 1306ERGO    R516840  11.975   4.594   7.323 -0.1206 -0.0326  0.0484
 1306ERGO    C116841  12.084   4.507   7.678 -0.2035 -0.1404  0.0481
 1306ERGO    C216842  12.044   4.385   7.906  0.0165 -0.2310 -0.1057
 1307ERGO   ROH16843   8.472  12.494   6.498  0.2266 -0.0023 -0.2243
 1307ERGO    R116844   8.629  12.507   6.733  0.2794 -0.0042 -0.2584
 1307ERGO    R216845   8.724  12.746   6.835  0.1944  0.0127 -0.2037
 1307ERGO    R316846   8.600  12.661   7.062  0.2849 -0.1220 -0.2045
 1307ERGO    R416847   8.739  12.906   7.141  0.0246  0.0113 -0.1945
 1307ERGO    R516848   8.755  12.712   7.237  0.2272  0.0299 -0.2031
 1307ERGO    C116849   8.631  12.920   7.532  0.0106 -0.1159 -0.1899
 1307ERGO    C216850   8.654  13.192   7.704  0.0521  0.1402 -0.0472
 1308ERGO   ROH16851   3.280   1.649   6.726  0.0071 -0.1276 -0.1038
 1308ERGO    R116852   3.449   1.688   6.950  0.0061 -0.0575 -0.1149
 1308ERGO    R216853   3.358   1.667   7.211  0.0061  0.0190 -0.1082
 1308ERGO    R316854   3.563   1.489   7.233  0.0090  0.0291 -0.0550
 1308ERGO    R416855   3.501   1.566   7.509 -0.0887  0.0006 -0.0690
 1308ERGO    R516856   3.696   1.574   7.413 -0.0567  0.0206 -0.0021
 1308ERGO    C116857   3.775   1.340   7.704 -0.1412 -0.0007  0.0038
 1308ERGO    C216858   4.015   1.197   7.987  0.0512 -0.1505 -0.1692
 1309ERGO   ROH16859  10.109  17.890   6.612 -0.1297 -0.0439 -0.0207
 1309ERGO    R116860  10.119  17.819   6.886  0.0342 -0.0701 -0.0327
 1309ERGO    R216861   9.893  17.763   7.033  0.1120  0.0361  0.1281
 1309ERGO    R316862  10.025  17.532   7.088  0.0337 -0.0373  0.0141
 1309ERGO    R416863   9.884  17.599   7.337 -0.0168 -0.1614  0.0205
 1309ERGO    R516864  10.097  17.558   7.315 -0.0212 -0.2051  0.0528
 1309ERGO    C116865  10.003  17.286   7.566 -0.1653 -0.3453 -0.1493
 1309ERGO    C216866  10.009  17.195   7.956  0.0149 -0.0127  0.0256
 1310ERGO   ROH16867  10.933  10.461   6.094 -0.0067 -0.0071  0.0020
 1310ERGO    R116868  10.830  10.265   6.271 -0.0649  0.0411  0.0221
 1310ERGO    R216869  10.993  10.103   6.424 -0.1037 -0.1564 -0.1378
 1310ERGO    R316870  10.843  10.200   6.629  0.1327 -0.0646 -0.0035
 1310ERGO    R416871  10.916   9.928   6.712 -0.0706 -0.1536 -0.1271
 1310ERGO    R516872  10.715  10.011   6.703  0.0024  0.0420  0.0381
 1310ERGO    C116873  10.730   9.918   7.072  0.1707 -0.0657  0.0052
 1310ERGO    C216874  10.964   9.722   7.320 -0.0348  0.0097  0.0710
 1311ERGO   ROH16875  17.805  16.279   6.402  0.3032 -0.0104 -0.0140
 1311ERGO    R116876  17.852  16.137   6.641  0.3889  0.0414  0.0014
 1311ERGO    R216877  18.066  16.192   6.807  0.2198  0.3584  0.1290
 1311ERGO    R316878  17.872  16.215   6.997  0.0707  0.0497  0.0185
 1311ERGO    R416879  18.124  16.254   7.143 -0.0635  0.1008  0.2288
 1311ERGO    R516880  17.966  16.111   7.191  0.0055 -0.0549 -0.0092
 1311ERGO    C116881  17.975  16.311   7.515 -0.3683 -0.3389  0.1832
 1311ERGO    C216882  18.077  16.477   7.803  0.1018  0.3277 -0.2470
 1312ERGO   ROH16883  12.321  17.635   6.550  0.1653 -0.0126 -0.0737
 1312ERGO    R116884  12.296  17.749   6.808  0.2875 -0.0414 -0.0486
 1312ERGO    R216885  12.095  17.676   6.984  0.1662  0.1816 -0.0903
 1312ERGO    R316886  12.304  17.629   7.151  0.0880 -0.1406 -0.0770
 1312ERGO    R416887  12.073  17.663   7.328  0.1235  0.2000 -0.0923
 1312ERGO    R516888  12.263  17.771   7.340  0.2878 -0.0832 -0.0743
 1312ERGO    C116889  12.257  17.612   7.686  0.0252 -0.0917 -0.0809
 1312ERGO    C216890  12.412  17.482   8.010  0.2836  0.0478  0.0023
 1313ERGO   ROH16891   4.200   9.734   6.104  0.3853 -0.0371 -0.2137
 1313ERGO    R116892   4.314   9.843   6.339  0.2784 -0.0299 -0.1642
 1313ERGO    R216893   4.188   9.832   6.585  0.0663  0.1692 -0.2589
 1313ERGO    R316894   4.422   9.717   6.664 -0.0845  0.0164 -0.0216
 1313ERGO    R416895   4.253   9.714   6.903 -0.2184  0.4134 -0.1055
 1313ERGO    R516896   4.454   9.796   6.887 -0.1296  0.2031 -0.0800
 1313ERGO    C116897   4.510   9.537   7.162 -0.5257  0.4122  0.2067
 1313ERGO    C216898   4.574   9.528   7.493 -0.1406 -0.3576 -0.0252
 1314ERGO   ROH16899  17.318   8.033   6.037  0.2604  0.2292  0.2056
 1314ERGO    R116900  17.278   7.958   6.306  0.2921  0.1077  0.1771
 1314ERGO    R216901  17.086   7.774   6.383  0.2670  0.1086  0.1167
 1314ERGO    R316902  17.297   7.650   6.500  0.2671  0.0066  0.0249
 1314ERGO    R416903  17.063   7.499   6.591  0.2397  0.0028 -0.0252
 1314ERGO    R516904  17.216   7.588   6.717  0.2795 -0.0888  0.0070
 1314ERGO    C116905  17.248   7.223   6.822  0.2239 -0.1545 -0.1941
 1314ERGO    C216906  17.479   7.011   6.899  0.1425 -0.1096 -0.0850
 1315ERGO   ROH16907  10.857  16.083   6.111 -0.0808  0.1703  0.0550
 1315ERGO    R116908  10.742  16.076   6.369 -0.1053  0.1539  0.0436
 1315ERGO    R216909  10.537  16.245   6.445 -0.2128  0.0493 -0.0125
 1315ERGO    R316910  10.413  16.013   6.510 -0.0847 -0.0113  0.0203
 1315ERGO    R416911  10.321  16.205   6.711 -0.0973 -0.0621  0.0661
 1315ERGO    R516912  10.411  16.011   6.750  0.0050 -0.0252  0.0218
 1315ERGO    C116913  10.077  15.964   6.927  0.0902 -0.1840  0.1426
 1315ERGO    C216914   9.849  16.019   7.074 -0.1743 -0.4012 -0.0600
 1316ERGO   ROH16915   5.919   8.121   6.103 -0.1156  0.1322  0.1432
 1316ERGO    R116916   6.031   8.111   6.363  0.0928 -0.0457  0.0495
 1316ERGO    R216917   5.876   8.107   6.592  0.2764  0.2418  0.1864
 1316ERGO    R316918   6.019   7.883   6.647 -0.0643 -0.0125  0.0693
 1316ERGO    R416919   5.970   8.006   6.908  0.3615  0.0732  0.1084
 1316ERGO    R516920   6.163   7.947   6.827  0.1973 -0.2644 -0.0464
 1316ERGO    C116921   6.159   7.736   7.144  0.0912 -0.2637 -0.0470
 1316ERGO    C216922   6.017   7.587   7.364 -0.1281  0.1351  0.1673
 1317ERGO   ROH16923  15.489   1.447   6.675 -0.2634 -0.1890  0.0526
 1317ERGO    R116924  15.574   1.521   6.935 -0.1243 -0.0086 -0.0416
 1317ERGO    R216925  15.419   1.480   7.160  0.0218  0.0843  0.0821
 1317ERGO    R316926  15.641   1.352   7.250  0.1120  0.1977  0.0211
 1317ERGO    R416927  15.510   1.452   7.492  0.0164 -0.0598  0.0719
 1317ERGO    R516928  15.717   1.486   7.433 -0.0065  0.1368  0.1128
 1317ERGO    C116929  15.773   1.316   7.770  0.0979 -0.0374  0.0087
 1317ERGO    C216930  15.864   1.370   8.072  0.1882  0.0041 -0.0855
 1318ERGO   ROH16931  12.765   1.194   6.549 -0.3156  0.0990  0.1686
 1318ERGO    R116932  12.715   1.244   6.823 -0.2627 -0.0597  0.2084
 1318ERGO    R216933  12.671   1.040   7.006  0.1204 -0.1859  0.1698
 1318ERGO    R316934  12.874   1.162   7.140  0.0083  0.0732  0.1091
 1318ERGO    R416935  12.754   0.982   7.336  0.2625 -0.0426  0.1602
 1318ERGO    R516936  12.789   1.195   7.361  0.0167  0.0037  0.1223
 1318ERGO    C116937  12.993   1.063   7.654  0.2399  0.2841  0.0976
 1318ERGO    C216938  13.146   1.084   7.927 -0.1603  0.0156 -0.2332
 1319ERGO   ROH16939  14.503   5.825   6.280  0.0647  0.1322 -0.0966
 1319ERGO    R116940  14.580   5.977   6.506  0.0960  0.0875 -0.0764
 1319ERGO    R216941  14.397   6.088   6.681  0.1170  0.1537 -0.0913
 1319ERGO    R316942  14.541   5.952   6.867  0.0360  0.0816 -0.0848
 1319ERGO    R416943  14.370   6.134   7.022 -0.0639 -0.0252 -0.0797
 1319ERGO    R516944  14.587   6.116   7.036 -0.0739 -0.0019  0.0232
 1319ERGO    C116945  14.489   6.035   7.396 -0.2455 -0.1971 -0.0668
 1319ERGO    C216946  14.467   6.093   7.718 -0.0662 -0.1629 -0.1684
 1320ERGO   ROH16947   0.228   0.598   6.420 -0.0233 -0.0383 -0.0736
 1320ERGO    R116948   0.227   0.481   6.677 -0.0904  0.0390 -0.0387
 1320ERGO    R216949   0.409   0.552   6.873  0.0289 -0.0944 -0.1044
 1320ERGO    R316950   0.184   0.596   7.020  0.1080  0.1880 -0.0604
 1320ERGO    R416951   0.396   0.549   7.219  0.0633 -0.3001 -0.1030
 1320ERGO    R516952   0.204   0.445   7.205 -0.1229  0.0237 -0.1597
 1320ERGO    C116953   0.177   0.589   7.558  0.1575 -0.1547 -0.0609
 1320ERGO    C216954   0.495   0.730   7.644 -0.3024 -0.2355  0.2140
 1321ERGO   ROH16955  10.393   4.243   6.493 -0.0013 -0.0796 -0.0619
 1321ERGO    R116956  10.343   4.247   6.772 -0.0865 -0.0095 -0.0775
 1321ERGO    R216957  10.505   4.383   6.950 -0.0375 -0.1110 -0.0412
 1321ERGO    R316958  10.271   4.500   7.024  0.0265  0.0763 -0.1313
 1321ERGO    R416959  10.449   4.537   7.254 -0.0634 -0.1511 -0.0258
 1321ERGO    R516960  10.249   4.449   7.256 -0.1446  0.0259 -0.1584
 1321ERGO    C116961  10.196   4.737   7.500 -0.0184  0.0015 -0.1015
 1321ERGO    C216962   9.988   4.852   7.794  0.0270 -0.2118  0.1308
 1322ERGO   ROH16963  16.691   2.770   6.068  0.0923 -0.1293  0.1095
 1322ERGO    R116964  16.744   2.930   6.296  0.1983 -0.1070  0.0683
 1322ERGO    R216965  16.587   2.922   6.523  0.1640  0.0923  0.0456
 1322ERGO    R316966  16.825   2.873   6.646  0.1062 -0.0685  0.0981
 1322ERGO    R416967  16.642   2.946   6.863  0.0567 -0.0836  0.0774
 1322ERGO    R516968  16.836   3.036   6.821  0.1166 -0.1456  0.1774
 1322ERGO    C116969  16.897   2.913   7.177 -0.0602 -0.3371  0.1451
 1322ERGO    C216970  16.878   3.028   7.515 -0.3298 -0.1151 -0.0263
 1323ERGO   ROH16971  10.579   5.853   6.246  0.1660 -0.0284  0.0900
 1323ERGO    R116972  10.447   5.897   6.492  0.1692  0.1518  0.0605
 1323ERGO    R216973  10.381   5.692   6.664 -0.0161  0.2577  0.1136
 1323ERGO    R316974  10.519   5.841   6.845  0.0780  0.2017  0.0887
 1323ERGO    R416975  10.368   5.649   7.007 -0.1009  0.3537  0.1227
 1323ERGO    R516976  10.368   5.866   7.029  0.0650  0.3668  0.0625
 1323ERGO    C116977  10.490   5.764   7.376 -0.0620  0.3570  0.1046
 1323ERGO    C216978  10.367   5.710   7.726 -0.1478  0.1496  0.2252
 1324ERGO   ROH16979   3.148  14.494   6.384 -0.1614 -0.0317  0.0714
 1324ERGO    R116980   3.231  14.576   6.642 -0.1511 -0.1320  0.1004
 1324ERGO    R216981   3.284  14.840   6.705  0.1184 -0.1877  0.1261
 1324ERGO    R316982   3.104  14.794   6.904  0.0040 -0.0015  0.0681
 1324ERGO    R416983   3.281  15.000   7.011  0.0277 -0.0042  0.0308
 1324ERGO    R516984   3.232  14.810   7.105 -0.0888  0.0704  0.1211
 1324ERGO    C116985   3.112  15.050   7.376 -0.1326  0.2775 -0.0791
 1324ERGO    C216986   3.097  15.320   7.533 -0.1960  0.0053  0.0991
 1325ERGO   ROH16987   2.160  10.263   6.207 -0.0434  0.0603 -0.0765
 1325ERGO    R116988   1.994  10.129   6.393 -0.0554  0.1070 -0.0535
 1325ERGO    R216989   2.083  10.051   6.643 -0.0003 -0.0428 -0.1184
 1325ERGO    R316990   1.868  10.193   6.729  0.1316  0.0754  0.0237
 1325ERGO    R416991   1.919  10.000   6.943  0.0501 -0.0795 -0.0966
 1325ERGO    R516992   1.730  10.032   6.839  0.0421  0.1200 -0.0233
 1325ERGO    C116993   1.621  10.104   7.197  0.2033  0.0100  0.0495
 1325ERGO    C216994   1.472  10.038   7.556 -0.0432 -0.1112 -0.0664
 1326ERGO   ROH16995   3.757  12.657   6.450 -0.0856 -0.0447 -0.0931
 1326ERGO    R116996   3.554  12.576   6.629 -0.0491 -0.0653 -0.0606
 1326ERGO    R216997   3.313  12.472   6.543 -0.1027  0.0298 -0.0263
 1326ERGO    R316998   3.379  12.267   6.709 -0.1016 -0.0540 -0.1291
 1326ERGO    R416999   3.087  12.259   6.696 -0.1070 -0.0162 -0.0970
 1326ERGO    R517000   3.208  12.268   6.876 -0.0818 -0.1120 -0.1068
 1326ERGO    C117001   3.018  11.943   6.940 -0.1086 -0.1217 -0.2347
 1326ERGO    C217002   2.902  11.798   7.244  0.0038  0.1089 -0.0416
 1327ERGO   ROH17003  12.613   4.544   6.635 -0.0176 -0.0157 -0.1905
 1327ERGO    R117004  12.707   4.646   6.881  0.0131 -0.0646 -0.1823
 1327ERGO    R217005  12.538   4.713   7.089  0.0328 -0.0177 -0.1835
 1327ERGO    R317006  12.697   4.545   7.231 -0.0301 -0.0826 -0.1884
 1327ERGO    R417007  12.514   4.658   7.429  0.0357  0.0097 -0.1783
 1327ERGO    R517008  12.731   4.657   7.440  0.0373 -0.0867 -0.1962
 1327ERGO    C117009  12.649   4.468   7.760 -0.0214 -0.0351 -0.1798
 1327ERGO    C217010  12.567   4.433   7.987 -0.0728 -0.0107  0.1576
 1328ERGO   ROH17011  10.829   0.917   6.524  0.0676  0.1920 -0.0358
 1328ERGO    R117012  10.688   0.908   6.769  0.1194  0.0618 -0.0117
 1328ERGO    R217013  10.766   0.746   6.979  0.3332  0.1698 -0.0131
 1328ERGO    R317014  10.760   0.979   7.119  0.0978  0.1772 -0.0286
 1328ERGO    R417015  10.740   0.770   7.323  0.2830  0.1567 -0.0149
 1328ERGO    R517016  10.605   0.939   7.296  0.1170  0.0312 -0.0371
 1328ERGO    C117017  10.720   1.003   7.654  0.0327  0.1560 -0.0304
 1328ERGO    C217018  10.644   1.042   7.992  0.4371 -0.0668  0.3197
 1329ERGO   ROH17019   3.358   2.405   6.408 -0.2666 -0.0979 -0.0044
 1329ERGO    R117020   3.413   2.562   6.638 -0.0919 -0.0989 -0.0448
 1329ERGO    R217021   3.222   2.618   6.829  0.0084  0.0456  0.0115
 1329ERGO    R317022   3.407   2.513   6.998  0.0020 -0.0426 -0.0345
 1329ERGO    R417023   3.188   2.603   7.172  0.2837  0.5032  0.0668
 1329ERGO    R517024   3.399   2.657   7.190  0.3920  0.2036 -0.1878
 1329ERGO    C117025   3.342   2.496   7.532  0.4379  0.6868  0.0558
 1329ERGO    C217026   3.352   2.541   7.914 -0.0435  0.0117  0.2491
 1330ERGO   ROH17027  14.317  10.720   6.156  0.0432 -0.0045  0.0167
 1330ERGO    R117028  14.292  10.613   6.417  0.0192  0.0232  0.0263
 1330ERGO    R217029  14.509  10.520   6.562 -0.0195 -0.1628 -0.0278
 1330ERGO    R317030  14.417  10.694   6.749  0.1795 -0.0746 -0.0098
 1330ERGO    R417031  14.587  10.509   6.899  0.0299 -0.2333 -0.0415
 1330ERGO    R517032  14.380  10.560   6.943  0.0869 -0.0375 -0.0036
 1330ERGO    C117033  14.546  10.666   7.270  0.2454 -0.1915 -0.0326
 1330ERGO    C217034  14.539  10.671   7.633  0.1500 -0.1911 -0.1045
 1331ERGO   ROH17035  14.221  13.353   6.099  0.1239  0.0685  0.1990
 1331ERGO    R117036  14.174  13.450   6.361  0.0000  0.0823  0.1711
 1331ERGO    R217037  14.234  13.708   6.437 -0.1189  0.1085  0.1601
 1331ERGO    R317038  13.973  13.712   6.514 -0.1462  0.0292  0.0763
 1331ERGO    R417039  14.104  13.911   6.685 -0.2229 -0.0312  0.2221
 1331ERGO    R517040  13.981  13.743   6.751 -0.2225 -0.0883  0.0995
 1331ERGO    C117041  13.783  14.032   6.901 -0.3090 -0.1868  0.1795
 1331ERGO    C217042  13.602  14.192   7.133 -0.0167  0.0723 -0.1652
 1332ERGO   ROH17043   5.717  10.083   6.196 -0.1265 -0.0084 -0.1642
 1332ERGO    R117044   5.865  10.089   6.438 -0.1365  0.0097 -0.1582
 1332ERGO    R217045   5.835  10.290   6.625 -0.1076  0.0518 -0.1967
 1332ERGO    R317046   5.790  10.082   6.794 -0.1556  0.0916 -0.1607
 1332ERGO    R417047   5.856  10.308   6.969 -0.0050  0.0793 -0.2042
 1332ERGO    R517048   5.952  10.111   6.969 -0.0949  0.0371 -0.2085
 1332ERGO    C117049   5.826  10.123   7.329  0.0099  0.1327 -0.1747
 1332ERGO    C217050   5.725  10.104   7.654 -0.0866  0.0032 -0.0735
 1333ERGO   ROH17051   5.196   7.312   5.920 -0.1139 -0.0205  0.0084
 1333ERGO    R117052   5.145   7.411   6.180  0.2739  0.1555  0.0237
 1333ERGO    R217053   5.027   7.257   6.377 -0.1953  0.5312  0.0420
 1333ERGO    R317054   5.247   7.328   6.519  0.0935 -0.1936 -0.0002
 1333ERGO    R417055   5.037   7.292   6.720 -0.1729  0.9234  0.0071
 1333ERGO    R517056   5.162   7.468   6.694  0.5946  0.4078 -0.1936
 1333ERGO    C117057   5.249   7.379   7.054  0.1113  0.4713 -0.0529
 1333ERGO    C217058   5.188   7.428   7.409 -0.0544 -0.0303 -0.1172
 1334ERGO   ROH17059   0.845   2.075   6.141  0.0004 -0.1476  0.0548
 1334ERGO    R117060   0.777   2.053   6.415  0.0454 -0.1094  0.0692
 1334ERGO    R217061   0.866   1.846   6.574  0.0580 -0.0963  0.0793
 1334ERGO    R317062   0.955   2.048   6.732  0.0992 -0.0831  0.0395
 1334ERGO    R417063   0.926   1.819   6.913  0.0350 -0.0361  0.0884
 1334ERGO    R517064   0.839   2.017   6.939  0.0818 -0.0093  0.0408
 1334ERGO    C117065   1.044   1.993   7.259  0.0604  0.0114  0.0563
 1334ERGO    C217066   1.023   2.150   7.525  0.0820 -0.1689  0.1571
 1335ERGO   ROH17067  10.934   8.729   6.101  0.0049 -0.0503 -0.0351
 1335ERGO    R117068  10.778   8.878   6.285  0.0544  0.0174 -0.0477
 1335ERGO    R217069  10.564   8.768   6.422  0.0443  0.0874 -0.0046
 1335ERGO    R317070  10.699   8.859   6.639  0.0871  0.1007 -0.0365
 1335ERGO    R417071  10.423   8.828   6.732  0.1165  0.0864  0.0287
 1335ERGO    R517072  10.546   9.007   6.748  0.1062  0.0922 -0.0026
 1335ERGO    C117073  10.469   8.948   7.116  0.1985  0.0983  0.0182
 1335ERGO    C217074  10.473   8.898   7.350 -0.1989 -0.2310  0.3261
 1336ERGO   ROH17075  11.750  10.536   6.372 -0.4798  0.0100 -0.0866
 1336ERGO    R117076  11.769  10.445   6.639 -0.1597  0.0254 -0.1004
 1336ERGO    R217077  11.835  10.613   6.848 -0.1481  0.0916 -0.1565
 1336ERGO    R317078  11.604  10.518   6.956  0.0348 -0.1429  0.0426
 1336ERGO    R417079  11.708  10.706   7.156 -0.0825  0.1198 -0.1378
 1336ERGO    R517080  11.651  10.498   7.190  0.2050  0.0634  0.0287
 1336ERGO    C117081  11.417  10.672   7.436  0.1276 -0.0840  0.0600
 1336ERGO    C217082  11.357  10.638   7.706 -0.0865 -0.1240 -0.0984
 1337ERGO   ROH17083   8.532   9.344   5.858  0.0720  0.1032  0.0249
 1337ERGO    R117084   8.620   9.312   6.125  0.1115  0.1190  0.0137
 1337ERGO    R217085   8.855   9.423   6.218  0.0424  0.2672  0.0164
 1337ERGO    R317086   8.692   9.531   6.407 -0.0217  0.1230  0.0448
 1337ERGO    R417087   8.914   9.413   6.558  0.1180  0.3394  0.0059
 1337ERGO    R517088   8.702   9.375   6.589  0.1598  0.1409  0.0506
 1337ERGO    C117089   8.796   9.508   6.934  0.1019  0.2461  0.0265
 1337ERGO    C217090   8.858   9.564   7.319 -0.1588 -0.1661  0.1296
 1338ERGO   ROH17091  10.636  15.548   6.074 -0.0383 -0.1132  0.0745
 1338ERGO    R117092  10.425  15.594   6.257 -0.0253 -0.0290  0.0702
 1338ERGO    R217093  10.322  15.395   6.419 -0.1453 -0.0035  0.0352
 1338ERGO    R317094  10.378  15.572   6.617 -0.0547 -0.0646  0.0626
 1338ERGO    R417095  10.199  15.378   6.741 -0.2938  0.1159 -0.0147
 1338ERGO    R517096  10.174  15.594   6.738 -0.0800  0.1365 -0.0206
 1338ERGO    C117097  10.181  15.535   7.115 -0.2954  0.1280 -0.0180
 1338ERGO    C217098  10.116  15.570   7.497 -0.3405 -0.2397 -0.0530
 1339ERGO   ROH17099   8.366   1.352   6.430  0.1231 -0.1254 -0.1591
 1339ERGO    R117100   8.448   1.272   6.689  0.0239 -0.0799 -0.1145
 1339ERGO    R217101   8.591   1.438   6.857 -0.0194 -0.0615 -0.1017
 1339ERGO    R317102   8.388   1.383   7.030 -0.0833 -0.0040 -0.1562
 1339ERGO    R417103   8.598   1.501   7.197 -0.1234  0.0151 -0.1124
 1339ERGO    R517104   8.498   1.310   7.230 -0.1535  0.0292 -0.1024
 1339ERGO    C117105   8.412   1.487   7.557 -0.2440  0.1137 -0.1697
 1339ERGO    C217106   8.347   1.461   7.844  0.1648  0.2805 -0.0969
 1340ERGO   ROH17107  17.780  13.728   6.165  0.0690 -0.0323  0.0042
 1340ERGO    R117108  17.769  13.690   6.445  0.1461 -0.0409  0.0064
 1340ERGO    R217109  17.982  13.592   6.591  0.2392  0.0990 -0.0338
 1340ERGO    R317110  17.946  13.819   6.736  0.1167  0.0753 -0.0262
 1340ERGO    R417111  18.099  13.641   6.913  0.0634  0.0853  0.0329
 1340ERGO    R517112  17.911  13.741   6.960  0.0168  0.0412 -0.0526
 1340ERGO    C117113  18.132  13.883   7.236 -0.1538  0.0550  0.0789
 1340ERGO    C217114  18.306  13.803   7.549 -0.1531  0.1980 -0.0104
 1341ERGO   ROH17115   7.717   8.451   9.101 -0.0323 -0.1483 -0.0461
 1341ERGO    R117116   7.577   8.497   8.859  0.0379 -0.3388 -0.1232
 1341ERGO    R217117   7.583   8.740   8.728 -0.2662 -0.3154 -0.0815
 1341ERGO    R317118   7.663   8.588   8.517  0.0974 -0.1599 -0.0648
 1341ERGO    R417119   7.557   8.833   8.396 -0.5409 -0.4068 -0.0897
 1341ERGO    R517120   7.498   8.629   8.348 -0.0438 -0.5851 -0.0534
 1341ERGO    C117121   7.618   8.745   8.005 -0.3596 -0.3142 -0.0789
 1341ERGO    C217122   7.709   8.796   7.692  0.0433 -0.2667 -0.2558
 1342ERGO   ROH17123  10.946  16.529   6.537 -0.0257  0.1026  0.0112
 1342ERGO    R117124  11.164  16.534   6.718 -0.0132 -0.1138  0.0037
 1342ERGO    R217125  11.179  16.713   6.928  0.1936 -0.0963 -0.0263
 1342ERGO    R317126  11.211  16.487   7.075 -0.0543 -0.1113  0.0099
 1342ERGO    R417127  11.236  16.706   7.268  0.2549 -0.0986 -0.0361
 1342ERGO    R517128  11.379  16.544   7.236  0.0527 -0.2840 -0.0353
 1342ERGO    C117129  11.300  16.490   7.605  0.0578 -0.1140 -0.0079
 1342ERGO    C217130  11.284  16.382   7.836  0.0345 -0.2109  0.0489
 1343ERGO   ROH17131  15.783   2.741   6.083  0.0150 -0.1005  0.1135
 1343ERGO    R117132  15.815   2.935   6.287  0.0613 -0.1151  0.1206
 1343ERGO    R217133  15.604   3.088   6.381  0.1220  0.0241  0.0354
 1343ERGO    R317134  15.684   2.990   6.622 -0.0340 -0.0223  0.0690
 1343ERGO    R417135  15.518   3.221   6.688  0.1493  0.1341 -0.0048
 1343ERGO    R517136  15.721   3.184   6.756  0.0986 -0.0390  0.0581
 1343ERGO    C117137  15.543   3.207   7.093  0.0190  0.1545  0.0034
 1343ERGO    C217138  15.492   3.318   7.446  0.0056 -0.1694 -0.1110
 1344ERGO   ROH17139   9.888   0.571   6.558 -0.2492 -0.0948 -0.1133
 1344ERGO    R117140   9.751   0.611   6.803 -0.2685 -0.2146 -0.1037
 1344ERGO    R217141   9.557   0.437   6.894 -0.1174 -0.3842 -0.0933
 1344ERGO    R317142   9.713   0.430   7.116 -0.0943 -0.2542 -0.1047
 1344ERGO    R417143   9.449   0.341   7.209 -0.1029 -0.1197 -0.0052
 1344ERGO    R517144   9.569   0.503   7.293 -0.0544 -0.0850 -0.1415
 1344ERGO    C117145   9.534   0.279   7.600 -0.0728  0.1563  0.0353
 1344ERGO    C217146   9.452   0.186   7.812 -0.2356 -0.1992 -0.0673
 1345ERGO   ROH17147   6.204  15.163   6.282  0.1037  0.1249  0.1979
 1345ERGO    R117148   6.316  15.067   6.523  0.0953  0.0944  0.1893
 1345ERGO    R217149   6.264  15.184   6.768  0.0765  0.0550  0.2029
 1345ERGO    R317150   6.191  14.931   6.837  0.0858  0.0409  0.1627
 1345ERGO    R417151   6.363  15.021   7.056  0.0782  0.0153  0.1803
 1345ERGO    R517152   6.386  14.838   6.940  0.0885  0.0335  0.1524
 1345ERGO    C117153   6.352  14.688   7.288  0.0879 -0.0211  0.1295
 1345ERGO    C217154   6.307  14.679   7.661 -0.0521 -0.2877 -0.1645
 1346W        W17155  11.760  17.396   5.142 -0.1472  0.1985  0.0969
 1347W        W17156   4.578   4.399  14.810 -0.0327  0.0156 -0.0654
 1348W        W17157   6.280  16.402   1.511 -0.3661  0.0905  0.1541
 1349W        W17158   4.749  15.671  14.001  0.2314  0.1186  0.0618
 1350W        W17159  13.792   4.136   3.645  0.1664 -0.0042 -0.1950
 1351W        W17160   6.468   4.134  15.729  0.2542  0.3641  0.1963
 1352W        W17161   5.291  13.606  13.299 -0.5159 -0.3067  0.1523
 1353W        W17162  15.281   0.736   2.072  0.0605  0.2197 -0.1229
 1354W        W17163   2.871   5.614   2.702  0.1395 -0.0752 -0.0970
 1355W        W17164   3.223   6.532  15.123  0.0197 -0.2032 -0.3771
 1356W        W17165   7.714  15.570   4.645  0.0399  0.1363 -0.3789
 1357W        W17166   0.070  12.413   4.940 -0.1451 -0.2542 -0.2906
 1358W        W17167  14.837   1.378   1.242  0.1250 -0.1460 -0.2758
 1359W        W17168  14.225   1.893   5.081 -0.1764  0.1091  0.3193
 1360W        W17169   1.892  10.374  15.783 -0.0816 -0.1066 -0.1771
 1361W        W17170  12.502  11.169   5.848 -0.0861  0.5771  0.1674
 1362W        W17171   5.175   1.922   0.726  0.1732  0.4834 -0.1761
 1363W        W17172  14.249  15.103   4.506  0.1723 -0.0194 -0.0008
 1364W        W17173  12.440  13.710  11.560 -0.1645 -0.3157 -0.0763
 1365W        W17174   3.757   0.234   2.508 -0.1884  0.0058  0.0479
 1366W        W17175   9.961   3.979  12.931 -0.0048 -0.1634  0.0182
 1367W        W17176   6.644   2.525   2.132  0.1496 -0.1370 -0.1018
 1368W        W17177   0.857   8.827   5.305 -0.2491  0.0900 -0.0808
 1369W        W17178  10.186   9.083  11.335 -0.1480 -0.0444 -0.0816
 1370W        W17179   1.076  17.847   4.652  0.1199  0.0540 -0.0483
 1371W        W17180  16.281   7.794   1.972  0.0730  0.1679 -0.0645
 1372W        W17181  10.048   9.484  11.075 -0.1680  0.1298 -0.2129
 1373W        W17182  10.305   8.702   3.856 -0.1377 -0.0068 -0.3288
 1374W        W17183   3.248   9.832  13.577  0.3288 -0.1556  0.2756
 1375W        W17184  15.588   9.945  16.013  0.1161  0.0318  0.1561
 1376W        W17185   5.175  17.766   1.760  0.1468 -0.0960  0.3257
 1377W        W17186  15.712   4.288   3.274 -0.1498  0.3329  0.3194
 1378W        W17187  11.426   8.914  12.161  0.0701  0.3223 -0.4573
 1379W        W17188  15.657   9.679   2.215 -0.0732  0.3859  0.2313
 1380W        W17189  10.342   0.050  11.207  0.1200  0.0554  0.1305
 1381W        W17190  15.047  15.328   1.676 -0.0300 -0.3148 -0.0735
 1382W        W17191  18.218  15.592  14.999  0.1276  0.2755  0.4175
 1383W        W17192   3.492   1.426  14.778  0.0618 -0.2008  0.0730
 1384W        W17193   4.313   3.733   0.160 -0.1106 -0.2007 -0.0421
 1385W        W17194   8.328  12.720   1.783 -0.2896  0.0124 -0.2246
 1386W        W17195   7.118  17.839  13.922 -0.0368  0.1386 -0.0869
 1387W        W17196  10.451   0.998  12.764 -0.3308 -0.1144  0.1417
 1388W        W17197  10.248   5.497   4.059  0.0621  0.0655  0.1645
 1389W        W17198   9.982   1.978  13.504 -0.0814 -0.0128 -0.0727
 1390W        W17199   6.495   3.781   4.017 -0.1582 -0.1843  0.1445
 1391W        W17200   6.962   1.788   3.655  0.0686 -0.1981 -0.0010
 1392W        W17201   6.194  12.507   0.650 -0.1926 -0.4087  0.0440
 1393W        W17202   9.688  10.227  15.015  0.1129  0.1973 -0.0272
 1394W        W17203   3.501  13.723   3.725 -0.1656 -0.2543 -0.0143
 1395W        W17204  13.290  15.629   1.756  0.3563  0.1156 -0.0731
 1396W        W17205   7.012  12.532  11.541  0.0626  0.0071 -0.1531
 1397W        W17206   5.878  12.521   2.935 -0.1316 -0.2823 -0.2381
 1398W        W17207  15.037  18.162  15.938  0.2091 -0.3860  0.0871
 1399W        W17208   1.967  13.124  12.198 -0.0879 -0.1551  0.0143
 1400W        W17209  17.337  17.056   2.931  0.2618 -0.4035 -0.0797
 1401W        W17210  17.668   7.428   2.919  0.3806  0.2867 -0.2073
 1402W        W17211  17.790   3.437   4.887  0.2137 -0.0472 -0.0455
 1403W        W17212   4.319   4.058  15.418  0.0707  0.1022 -0.2875
 1404W        W17213  12.383   8.137   4.640 -0.1907 -0.0454  0.0936
 1405W        W17214  12.217   5.597  11.263 -0.0715 -0.4418 -0.1459
 1406W        W17215  12.923  14.442  11.648  0.0976  0.0822  0.1205
 1407W        W17216   2.365  12.754  11.323  0.1712 -0.2205 -0.1578
 1408W        W17217   2.904   2.673  13.167  0.1784  0.0056 -0.0565
 1409W        W17218   0.955  10.490  15.785 -0.3140 -0.1746  0.1857
 1410W        W17219  16.717   8.723  13.345 -0.2345 -0.0296  0.1717
 1411W        W17220   0.763  14.524   0.704 -0.2055 -0.3224  0.3250
 1412W        W17221   6.555   9.495   3.204  0.1419 -0.2999  0.3642
 1413W        W17222  16.394   1.685  15.325  0.1627  0.0430  0.0291
 1414W        W17223   2.732   4.491   0.037 -0.1729  0.1005  0.1187
 1415W        W17224   2.866   9.732   5.057  0.0130  0.1778  0.0974
 1416W        W17225  13.248  11.138  13.300  0.0842  0.1005  0.1593
 1417W        W17226   1.445   8.454   3.116 -0.1530  0.1599  0.0938
 1418W        W17227   8.140  12.026  14.305 -0.1801 -0.0266  0.1779
 1419W        W17228   2.936   1.098  11.343  0.1265 -0.2108  0.1114
 1420W        W17229   0.195  17.168   2.497  0.0055 -0.0356  0.0024
 1421W        W17230  13.052   7.140  15.465 -0.3182 -0.0764 -0.0916
 1422W        W17231   4.541  17.792  13.383  0.1250 -0.1454 -0.0341
 1423W        W17232  10.130  15.994   3.200 -0.1309  0.2749  0.1203
 1424W        W17233  16.098  14.795   2.253  0.0780  0.0930  0.3617
 1425W        W17234   0.782  16.349   2.408 -0.3297  0.1966  0.2525
 1426W        W17235   0.669   9.959  11.329  0.0545 -0.1800  0.3261
 1427W        W17236  12.516   4.650  12.518 -0.0114  0.4073 -0.1232
 1428W        W17237   8.844  15.722  14.452  0.1300  0.1603  0.0700
 1429W        W17238   0.617   9.177   2.359  0.0655  0.3470  0.1531
 1430W        W17239   9.081  12.555   1.577  0.0340 -0.1564 -0.1340
 1431W        W17240  16.352   3.233   3.808  0.0223 -0.1257 -0.0761
 1432W        W17241  13.296   9.629  15.064  0.0602 -0.2655  0.0793
 1433W        W17242  16.586  16.006   4.096 -0.0360  0.2327 -0.2585
 1434W        W17243   9.858   2.767   1.356 -0.1269  0.2070  0.1154
 1435W        W17244  12.842   6.743   3.043  0.0720 -0.0277  0.1773
 1436W        W17245  10.580   6.538  13.621 -0.0295  0.2647 -0.2936
 1437W        W17246   5.611  15.182  14.095  0.2181 -0.0666 -0.1947
 1438W        W17247  17.115   1.838  12.190 -0.4426 -0.0215  0.0779
 1439W        W17248   0.297   4.768   2.655  0.1113 -0.0222  0.1379
 1440W        W17249   3.983  17.475  13.416 -0.2958  0.2512 -0.0003
 1441W        W17250   6.246   1.210  13.586 -0.0980  0.1283 -0.0387
 1442W        W17251  11.144  10.359   3.583  0.0330 -0.0554 -0.2232
 1443W        W17252  17.176  11.599   2.382 -0.0422  0.4322  0.1039
 1444W        W17253  16.957   9.272   3.840 -0.0402  0.0003  0.2838
 1445W        W17254  10.446  17.277  14.034 -0.1715  0.1159  0.0748
 1446W        W17255   7.705   8.055  15.007 -0.0211  0.0211  0.0204
 1447W        W17256   4.212  17.506  10.477 -0.0843 -0.0320  0.0473
 1448W        W17257  10.115  12.337  12.845  0.1202 -0.1942 -0.0084
 1449W        W17258   8.101  16.757   5.988  0.1745 -0.0076  0.0970
 1450W        W17259  16.213   8.764   5.345  0.0182 -0.0924  0.0481
 1451W        W17260   1.571  10.792  15.856  0.0094 -0.1196  0.1644
 1452W        W17261   9.491  15.580   2.461  0.0942 -0.2468  0.0325
 1453W        W17262   4.933  12.496  14.652  0.0773  0.2723  0.0701
 1454W        W17263  15.927   8.781  15.977  0.2068  0.1469 -0.0847
 1455W        W17264   3.999   6.237  13.160 -0.0211 -0.1446 -0.0147
 1456W        W17265  15.758   5.272   4.419  0.0804 -0.1193  0.0447
 1457W        W17266   0.672   4.751   1.818 -0.1082 -0.0724 -0.0172
 1458W        W17267  16.598  17.073   4.686 -0.0015 -0.2055  0.1004
 1459W        W17268  13.697   8.645  12.166  0.2220 -0.0337  0.2106
 1460W        W17269  16.225  12.297  13.805  0.0546 -0.2357 -0.0820
 1461W        W17270   7.547   4.881   4.269  0.2274 -0.1152  0.3488
 1462W        W17271   6.989   7.257  12.474  0.1224 -0.2112 -0.2003
 1463W        W17272   5.920   1.661   5.886  0.0571 -0.0962  0.2229
 1464W        W17273  17.651  10.072   3.691 -0.0192 -0.0497  0.0762
 1465W        W17274   1.843  10.996   0.506  0.2893  0.0772  0.2507
 1466W        W17275   9.576   7.108   1.881 -0.2698  0.1135 -0.1338
 1467W        W17276   7.252  18.107  12.394  0.1025  0.0877 -0.0767
 1468W        W17277   2.700   7.052   2.475 -0.0102 -0.2436 -0.2364
 1469W        W17278  15.311   5.307  13.252 -0.0212 -0.1378  0.1743
 1470W        W17279   6.709  10.490  15.549 -0.0760  0.2863  0.2065
 1471W        W17280  10.156   7.559  15.732  0.0044  0.0107 -0.0072
 1472W        W17281  11.439  17.544   5.709 -0.0288 -0.4431  0.0648
 1473W        W17282  12.115   1.247  15.586  0.0205  0.1366  0.1583
 1474W        W17283   0.750  14.087  15.129 -0.3016  0.0763  0.2798
 1475W        W17284  11.162  16.008  15.621 -0.3369  0.0806 -0.0135
 1476W        W17285  16.650   2.629   3.907  0.0532  0.1467 -0.0296
 1477W        W17286  11.582   2.167   4.694  0.0450  0.0031  0.1240
 1478W        W17287  10.969  11.977   1.154 -0.0347 -0.2786  0.0898
 1479W        W17288  16.048  18.133   4.106 -0.1029  0.0782  0.2674
 1480W        W17289  11.253   6.592   6.010  0.0457 -0.1261  0.1363
 1481W        W17290   1.511  16.418   2.732  0.1054  0.1309 -0.1104
 1482W        W17291   9.564  14.314  13.962 -0.0266 -0.1755  0.1757
 1483W        W17292   8.479  17.203   1.911  0.1280 -0.1178  0.3443
 1484W        W17293   8.715   4.766   0.809  0.1291 -0.0158  0.1303
 1485W        W17294   9.799  16.013   4.047  0.1919 -0.4076  0.3984
 1486W        W17295  13.181  16.436  13.870 -0.2269 -0.0644  0.0910
 1487W        W17296  11.198   1.015  14.021 -0.3206 -0.1132 -0.1379
 1488W        W17297  16.370   3.675   0.897 -0.2356 -0.3003 -0.1086
 1489W        W17298  16.430  13.386  15.697 -0.0808 -0.1777  0.0845
 1490W        W17299  15.059  10.149   1.174 -0.0430  0.1236  0.1180
 1491W        W17300   7.984  17.407   5.376  0.2922  0.1196 -0.0833
 1492W        W17301  12.816   6.137  11.540  0.2913 -0.0733  0.2202
 1493W        W17302  15.609   0.628   3.323  0.0612  0.1111 -0.0955
 1494W        W17303  16.041  15.707   6.372  0.1514  0.2670 -0.0701
 1495W        W17304  15.561  16.388  15.853  0.2704 -0.2532 -0.1790
 1496W        W17305   1.994   9.529   1.269  0.1172 -0.3720  0.1182
 1497W        W17306   3.805  13.122   4.958  0.1093  0.4365  0.1569
 1498W        W17307  13.145  14.594  14.840 -0.0960  0.0405  0.0224
 1499W        W17308   7.956   8.089  15.941  0.2649  0.2196  0.1380
 1500W        W17309  17.042   7.464   1.095 -0.1974  0.3693  0.4003
 1501W        W17310   6.481  15.589  15.004 -0.5994 -0.1410  0.0744
 1502W        W17311  12.001  17.950   2.311 -0.1830  0.0921  0.1298
 1503W        W17312  11.806  17.319   3.112  0.0590 -0.1489 -0.2260
 1504W        W17313  17.631  11.533   1.488  0.1593 -0.0665 -0.1387
 1505W        W17314   9.275   3.618   2.197 -0.2672  0.1585  0.1724
 1506W        W17315   0.519  17.002  15.091  0.1518 -0.0125  0.1174
 1507W        W17316  14.397   1.504   0.731  0.1899  0.3402  0.2566
 1508W        W17317   8.481   8.942   5.564  0.0321 -0.0209  0.0546
 1509W        W17318   6.330   3.011   1.157 -0.2638  0.0639  0.3416
 1510W        W17319   5.687   1.276  14.631  0.0596 -0.1333  0.0689
 1511W        W17320   2.059  12.473   4.339 -0.1387  0.2462 -0.2204
 1512W        W17321   1.457  12.101  13.109 -0.2391  0.2353 -0.2036
 1513W        W17322   4.114  13.089  11.356 -0.0462  0.0377  0.1048
 1514W        W17323  13.923   2.602  13.438  0.2408 -0.2699  0.4301
 1515W        W17324   8.538  13.883  13.744  0.2104  0.1039 -0.0682
 1516W        W17325   1.209   5.145   4.531  0.0027 -0.0523  0.2249
 1517W        W17326  18.029   1.340  13.797 -0.0128  0.0871  0.1541
 1518W        W17327   9.565   5.336   3.390  0.4305 -0.0226  0.0901
 1519W        W17328   6.772  11.078   0.900  0.2573  0.0525 -0.0580
 1520W        W17329   1.808   8.302   3.633 -0.0037  0.1956  0.0204
 1521W        W17330   6.576  13.296   1.132  0.1524 -0.2886  0.1013
 1522W        W17331   2.256   4.972  11.151 -0.0943 -0.4018  0.0570
 1523W        W17332   1.366  16.234  13.580 -0.1805  0.0023 -0.0045
 1524W        W17333  12.285  11.564  14.092 -0.0715 -0.2304  0.0618
 1525W        W17334   9.533   4.926  13.338  0.2813  0.1753  0.1757
 1526W        W17335  13.976  11.559   1.188  0.0594 -0.1595 -0.1014
 1527W        W17336  10.088   9.754   4.232  0.0004  0.1632  0.0433
 1528W        W17337   2.476  10.415  15.026 -0.1123  0.1560  0.2237
 1529W        W17338  17.895  12.420   4.619  0.2136 -0.0927 -0.0452
 1530W        W17339   8.242   6.287   0.502 -0.1688 -0.0841 -0.0249
 1531W        W17340  10.527  17.676  13.751 -0.0989  0.1208 -0.1052
 1532W        W17341   4.370  16.570  11.220 -0.1055  0.1195  0.2273
 1533W        W17342   9.953  17.420   0.859 -0.0045  0.0671  0.2178
 1534W        W17343   5.348   8.924  11.795 -0.0974  0.2373  0.1114
 1535W        W17344   7.568   0.686  11.883  0.1594 -0.0508 -0.3565
 1536W        W17345  15.718  17.710  14.859 -0.2017  0.1163  0.0099
 1537W        W17346  13.849   1.441   1.209 -0.0210  0.2045 -0.0678
 1538W        W17347   4.655   5.089   2.396 -0.1710  0.0769  0.1482
 1539W        W17348  17.438   5.117  12.006 -0.0592  0.0046 -0.1457
 1540W        W17349   0.205   9.223   2.588  0.1198 -0.1755  0.0530
 1541W        W17350   0.048   5.478  11.853  0.3977 -0.1019  0.3621
 1542W        W17351  17.747   5.619   2.195 -0.0614  0.2039 -0.1005
 1543W        W17352   2.623   8.149  11.311  0.0328 -0.1303  0.0929
 1544W        W17353  11.220  18.021   5.568 -0.3883 -0.0113 -0.0836
 1545W        W17354   0.818  15.861   4.580  0.0061 -0.3619 -0.0344
 1546W        W17355  17.920   3.349   1.122  0.0134 -0.1658 -0.1069
 1547W        W17356   9.307   4.888   4.955 -0.4027  0.0663 -0.0252
 1548W        W17357  13.280  13.747  11.147 -0.0240 -0.2025 -0.0344
 1549W        W17358  12.870  16.006  13.111 -0.0286  0.1209 -0.1572
 1550W        W17359  12.702  16.988   2.991  0.1412 -0.1656  0.3267
 1551W        W17360   7.374  17.339  11.378 -0.1482  0.2154 -0.0068
 1552W        W17361   5.848  12.931   2.738  0.0118 -0.1767 -0.1862
 1553W        W17362   4.633   4.759   4.425 -0.0373  0.3577 -0.0025
 1554W        W17363  11.418   7.244  12.669  0.1849  0.1314  0.1046
 1555W        W17364   3.207   6.282   4.925 -0.2592  0.1537  0.0686
 1556W        W17365  12.540  12.888   2.533  0.2277  0.2499  0.0095
 1557W        W17366   2.441  12.896   2.426 -0.1257 -0.1878  0.1466
 1558W        W17367   8.749   3.619   2.069  0.2022  0.2508  0.0296
 1559W        W17368   3.191   1.270  13.311 -0.2044  0.0975  0.1329
 1560W        W17369  14.647   7.473   2.354  0.0911  0.3325 -0.2014
 1561W        W17370  15.425  13.105  11.279  0.1488  0.3729 -0.1283
 1562W        W17371   4.549   8.554  14.579  0.1903 -0.1272 -0.1168
 1563W        W17372   5.563  11.270   2.311  0.1707  0.3937  0.0179
 1564W        W17373   7.865   1.559   5.951 -0.1727 -0.1925 -0.1536
 1565W        W17374  13.947   7.903   0.345 -0.1490  0.2141 -0.0652
 1566W        W17375  15.441   0.973  15.937  0.2323  0.1787  0.1862
 1567W        W17376  18.063   8.825  12.229  0.0572 -0.0272 -0.0312
 1568W        W17377   7.060   2.791  11.970 -0.0789 -0.0944 -0.1550
 1569W        W17378   4.088  11.680   3.172 -0.0033 -0.3327  0.2703
 1570W        W17379   9.640   1.584   2.410 -0.2571  0.1675  0.0722
 1571W        W17380  10.610   6.395  14.200 -0.1544 -0.4418  0.1814
 1572W        W17381   0.321  12.583  11.374  0.2855  0.1043 -0.0774
 1573W        W17382  17.142  14.213   5.540  0.0921  0.0879 -0.0796
 1574W        W17383   3.609  16.135  11.677 -0.1279  0.0361 -0.1049
 1575W        W17384   5.657  18.202   5.712  0.0276 -0.1824 -0.0927
 1576W        W17385   2.695   3.496   3.055 -0.2049  0.4157  0.0368
 1577W        W17386  12.843  13.345   0.590 -0.1812 -0.1960 -0.1624
 1578W        W17387   5.817   4.456   1.013  0.3258 -0.4628  0.1584
 1579W        W17388  12.855   2.073  14.559 -0.1673 -0.1281 -0.1849
 1580W        W17389   5.530  16.608  13.147 -0.2148 -0.1270  0.0894
 1581W        W17390   7.902  15.859  14.843 -0.0659 -0.2230 -0.2073
 1582W        W17391  13.037   9.023  11.374  0.1436 -0.1963 -0.0546
 1583W        W17392   3.526  13.097  12.053 -0.4571 -0.1016  0.0110
 1584W        W17393  11.197  15.673   1.723 -0.3383 -0.2788 -0.0746
 1585W        W17394   2.710   1.276   1.503  0.0079 -0.0328 -0.0492
 1586W        W17395   9.008  11.525  10.991 -0.2074 -0.0700  0.0858
 1587W        W17396   2.717   9.187  13.194  0.1159  0.2187 -0.1550
 1588W        W17397   1.055   5.600   1.273  0.1752  0.0632 -0.0459
 1589W        W17398  13.818   1.206   5.087 -0.0181 -0.0819  0.1639
 1590W        W17399   0.785  13.430  13.974  0.2437  0.1669  0.1753
 1591W        W17400   2.682   6.182   3.290 -0.2337  0.0400  0.1688
 1592W        W17401   0.240  11.172  14.839 -0.0767 -0.0018 -0.1945
 1593W        W17402   2.279  10.445   3.835  0.0132  0.0100  0.0295
 1594W        W17403   7.420   0.295  10.552  0.0702  0.0297 -0.3023
 1595W        W17404   6.867  14.213  13.058  0.0878  0.2856  0.0966
 1596W        W17405  13.532   0.021   5.381 -0.0385 -0.3811  0.2329
 1597W        W17406   2.460  17.373  14.861 -0.1059  0.2549  0.2376
 1598W        W17407   8.129   2.040   3.202  0.0840 -0.0065 -0.3299
 1599W        W17408  10.236   3.983  15.510 -0.0226 -0.0559 -0.0414
 1600W        W17409   2.490   8.167  15.515  0.2775  0.1504  0.2591
 1601W        W17410   4.033   8.259  13.930 -0.2562 -0.1859  0.1896
 1602W        W17411   6.407  15.476  14.511 -0.0290  0.0060 -0.2653
 1603W        W17412   1.373  12.677  13.062  0.3149 -0.1969 -0.0366
 1604W        W17413   2.079   5.550  11.112 -0.2056 -0.0731  0.0153
 1605W        W17414  10.724  17.171   4.047  0.1968  0.0186 -0.1455
 1606W        W17415   4.908   5.095   4.118  0.2497 -0.1621 -0.0762
 1607W        W17416   7.844   0.985   1.713  0.1313  0.1555 -0.0812
 1608W        W17417   1.494   6.681  11.341 -0.0996 -0.1518 -0.1478
 1609W        W17418   0.336  13.849  12.267  0.0009 -0.0944 -0.0520
 1610W        W17419   5.641  11.728   5.519 -0.0873  0.2424  0.2145
 1611W        W17420  11.901   7.957  13.967 -0.0006  0.0022  0.3095
 1612W        W17421   5.909   5.237  13.900 -0.2209 -0.1211  0.1784
 1613W        W17422   8.633  13.960  14.234  0.1285  0.0355 -0.0743
 1614W        W17423  10.892  14.836   5.874 -0.0507  0.1608  0.1816
 1615W        W17424  12.275  16.822  14.992  0.0191  0.1509 -0.1690
 1616W        W17425   4.064  12.341   2.822 -0.0015  0.0584  0.0735
 1617W        W17426   3.274  10.783   3.385  0.1092  0.0659 -0.1160
 1618W        W17427  17.857   5.812  13.923  0.5469  0.1180  0.3881
 1619W        W17428   7.191   6.007   9.784  0.0684 -0.0448 -0.1100
 1620W        W17429  11.104  17.867   6.044 -0.2673  0.1798  0.0805
 1621W        W17430  12.257   1.969  13.455 -0.0660 -0.4103  0.0236
 1622W        W17431  13.949  16.536   1.430 -0.0908 -0.1270 -0.1535
 1623W        W17432  10.786  13.074   4.487 -0.0305 -0.0084  0.0315
 1624W        W17433  15.073   3.985  11.384 -0.0561  0.1169 -0.0746
 1625W        W17434   4.889   2.090   0.232  0.1178 -0.0704  0.0267
 1626W        W17435   3.132   6.839   2.199 -0.2623  0.1710 -0.2546
 1627W        W17436  15.779  15.473   3.011  0.2511  0.0012 -0.0572
 1628W        W17437   1.260  15.036   3.395 -0.0291 -0.1712 -0.0303
 1629W        W17438   8.175  10.280   2.277  0.1691 -0.0350  0.0735
 1630W        W17439  14.046   4.379  10.209  0.2093  0.0187  0.0231
 1631W        W17440  13.430  10.484  14.435 -0.3653 -0.2874  0.0900
 1632W        W17441  16.257   6.562  13.396  0.1718  0.0456 -0.0397
 1633W        W17442  14.456   5.166   4.148 -0.0965  0.0952 -0.0974
 1634W        W17443  15.731  13.898   4.358  0.0787  0.1321  0.0789
 1635W        W17444   0.660   3.930  13.096 -0.0688 -0.0813  0.3776
 1636W        W17445   2.448   9.345  13.931 -0.0256  0.2142 -0.4443
 1637W        W17446   5.247  18.169  12.376 -0.0527 -0.1430  0.1937
 1638W        W17447  14.287   7.674   4.829 -0.1182 -0.0799  0.2160
 1639W        W17448  17.294   2.782   3.162  0.2511 -0.0666 -0.3128
 1640W        W17449   8.425   0.443  12.591  0.0522 -0.0740 -0.0933
 1641W        W17450   3.029  11.484   5.404  0.0051 -0.0740  0.0104
 1642W        W17451   4.109  12.064   4.471 -0.1941 -0.0206  0.0314
 1643W        W17452  10.434  10.134  14.475  0.0469 -0.0073 -0.2050
 1644W        W17453  17.668   2.585  14.425 -0.1391  0.0817 -0.1118
 1645W        W17454   8.187   0.445   1.056 -0.1914  0.0408 -0.2243
 1646W        W17455  12.560   2.447  11.542  0.1589  0.2575 -0.1261
 1647W        W17456   2.378  14.054  10.651 -0.1471 -0.1008 -0.0269
 1648W        W17457  13.005   3.322   4.422 -0.1882  0.1837  0.1207
 1649W        W17458   6.578  13.161  13.986  0.3137  0.0128 -0.0581
 1650W        W17459   6.302  12.146   1.002 -0.1066  0.0049 -0.2600
 1651W        W17460  15.918   6.603  15.864 -0.1722 -0.0798  0.0575
 1652W        W17461   1.699   7.198   5.579 -0.1778  0.2676 -0.4310
 1653W        W17462  16.156   1.100  11.524 -0.3982 -0.0528 -0.0589
 1654W        W17463  10.505  17.749   1.614 -0.1354 -0.0962  0.1282
 1655W        W17464  15.410  12.516   1.480 -0.1614  0.0299 -0.1560
 1656W        W17465   3.915  11.011   5.257 -0.1128 -0.1319  0.1978
 1657W        W17466   2.484   5.962   2.019  0.0505  0.0709 -0.2094
 1658W        W17467   9.741   1.937   6.226 -0.1665 -0.0183  0.1875
 1659W        W17468   5.850   6.144   3.997 -0.2837 -0.3515  0.0235
 1660W        W17469  17.146   7.972   0.857  0.0689 -0.1374  0.0771
 1661W        W17470   7.301   7.766   3.303  0.0816  0.1454 -0.2241
 1662W        W17471  15.094   3.583  13.149  0.0280  0.0436  0.2030
 1663W        W17472  11.124   7.845  15.035 -0.0223  0.3806 -0.2257
 1664W        W17473  17.471  12.924  14.233  0.2011 -0.0440  0.0711
 1665W        W17474  10.591   7.810  13.044  0.0293 -0.2337 -0.1673
 1666W        W17475  16.540  10.964   1.767 -0.0570  0.0557 -0.0999
 1667W        W17476   9.826   3.803  14.330  0.3881 -0.0906 -0.0889
 1668W        W17477  11.224   0.330  13.505  0.0578 -0.4149  0.0127
 1669W        W17478  11.599   1.991   0.984  0.1786 -0.0328 -0.0795
 1670W        W17479   3.003   4.548  15.358  0.2106  0.1789 -0.2381
 1671W        W17480  13.524   3.032   2.434 -0.0438 -0.0834  0.1288
 1672W        W17481   6.831   5.516   1.278  0.0771  0.1721 -0.0172
 1673W        W17482  14.416   1.182   2.220  0.2294  0.0020  0.1831
 1674W        W17483   2.769  16.340  12.844  0.3089  0.2114  0.3846
 1675W        W17484  12.958   9.370  15.430  0.0391 -0.1875  0.0541
 1676W        W17485  17.796   4.949  14.469  0.0326  0.1334 -0.0596
 1677W        W17486   3.815   2.481  13.494 -0.1704  0.2456 -0.2112
 1678W        W17487  16.039   8.143   0.609 -0.0467 -0.0199 -0.3136
 1679W        W17488  15.574   1.571  14.435 -0.1688 -0.1815 -0.2040
 1680W        W17489   6.894   4.174   2.102  0.1921 -0.1778  0.1055
 1681W        W17490  13.564   3.563   4.936  0.0527 -0.0592  0.1116
 1682W        W17491   7.549  11.141  11.246  0.2972 -0.0533 -0.0912
 1683W        W17492  13.554  16.254   2.320  0.2643 -0.2610 -0.1291
 1684W        W17493  16.923  17.974  12.731 -0.2848  0.0137 -0.0140
 1685W        W17494  15.546  17.968  11.614 -0.0390 -0.0081 -0.0491
 1686W        W17495  12.709  16.977   1.352  0.1783 -0.0271  0.0114
 1687W        W17496   8.284   3.483   4.126  0.1195  0.0128 -0.0977
 1688W        W17497   1.975  12.518  11.558  0.0205  0.2037 -0.2994
 1689W        W17498   2.669  14.252   3.308 -0.0736 -0.0257 -0.0044
 1690W        W17499   7.658  10.646   3.023  0.0621 -0.3721  0.1515
 1691W        W17500  11.097  12.336  14.033  0.0258  0.0165 -0.0778
 1692W        W17501   4.728   3.852   5.297 -0.2363  0.0829  0.2728
 1693W        W17502   7.392   9.256  14.479 -0.0248  0.3019 -0.0622
 1694W        W17503   8.043   6.916   3.062  0.1018 -0.0796 -0.1655
 1695W        W17504  12.955  15.542   1.018  0.1685 -0.1629  0.0710
 1696W        W17505   2.152  13.179   0.855  0.0349  0.3366  0.0454
 1697W        W17506  17.265   3.544   0.108  0.3869 -0.1143 -0.3812
 1698W        W17507   5.195  12.164  14.921  0.0683  0.2730 -0.2204
 1699W        W17508   6.896   3.727  12.616  0.0095  0.1750  0.2202
 1700W        W17509  10.374  17.836   4.381 -0.0210 -0.2367  0.1517
 1701W        W17510   0.690   2.791  11.135 -0.0841  0.0790  0.3252
 1702W        W17511   8.635   1.711  13.630  0.1023 -0.0266  0.0980
 1703W        W17512   5.509   3.184   0.359  0.0382  0.0091 -0.0138
 1704W        W17513  17.764   4.388   2.116  0.0491 -0.0283 -0.1997
 1705W        W17514   6.684   2.416   5.327  0.2473 -0.0762  0.1490
 1706W        W17515   4.265  14.198  15.379  0.1340 -0.0012 -0.3845
 1707W        W17516   4.043  12.930  15.447 -0.1246 -0.1319  0.1593
 1708W        W17517  18.131  13.714  16.050  0.0586 -0.2979  0.0150
 1709W        W17518  17.548  17.023   0.724 -0.0365 -0.0389 -0.0652
 1710W        W17519  11.441   9.386  14.086  0.1403  0.1591  0.0674
 1711W        W17520   4.011  14.622   2.203 -0.0903  0.1416 -0.1613
 1712W        W17521  15.699   0.148   3.884 -0.0244  0.0801  0.0750
 1713W        W17522  16.313  17.086  13.436 -0.0842  0.1551 -0.3020
 1714W        W17523   5.907   3.841   1.620  0.0237 -0.0874  0.0532
 1715W        W17524  13.858   6.046  11.419  0.2320 -0.1179  0.0432
 1716W        W17525   4.423   1.295   4.473 -0.0296  0.0891  0.1588
 1717W        W17526   7.396   2.251   5.960 -0.3710  0.0369 -0.0973
 1718W        W17527  17.089   2.337   3.919 -0.2254 -0.0115  0.0178
 1719W        W17528  10.811  10.286  10.982  0.2388 -0.1730  0.0021
 1720W        W17529  10.815  13.808  13.482 -0.2098 -0.2524 -0.0730
 1721W        W17530  15.217   3.161   1.146  0.0473 -0.3175  0.2459
 1722W        W17531  17.231   9.987   2.474  0.2063 -0.0711  0.0579
 1723W        W17532   9.627  14.349  14.582  0.0869 -0.0260  0.0558
 1724W        W17533   6.332  17.221   0.465  0.0637  0.2566 -0.0982
 1725W        W17534  11.256   7.865   3.178 -0.1635  0.0221 -0.0764
 1726W        W17535   1.245  14.186   5.502  0.0374  0.0769 -0.0935
 1727W        W17536   7.294   6.392   3.175  0.0313 -0.0525 -0.2536
 1728W        W17537  13.800  13.832  10.981  0.1732 -0.0073 -0.1008
 1729W        W17538   1.812  16.676   1.510 -0.0782 -0.0972  0.1964
 1730W        W17539  14.114   1.188  12.354 -0.2333  0.3353  0.2373
 1731W        W17540  18.227  17.209  13.049 -0.1819 -0.1976 -0.0034
 1732W        W17541   9.061  10.024  11.434 -0.2633  0.2297  0.1745
 1733W        W17542  14.993   6.306  15.820  0.0421  0.0997 -0.1707
 1734W        W17543  14.680  16.684  13.364  0.2769 -0.1026 -0.2997
 1735W        W17544   1.032  17.083  10.279  0.2259  0.0920  0.0475
 1736W        W17545   5.484   5.805  11.670 -0.1689  0.2971  0.4019
 1737W        W17546  12.541   2.731   2.858 -0.1716 -0.0391 -0.0999
 1738W        W17547  17.847   5.316   3.170 -0.2780  0.2870  0.1407
 1739W        W17548  10.404   3.406  14.883  0.0580 -0.0083 -0.1226
 1740W        W17549   0.645   6.265  15.920 -0.0155  0.0347  0.0587
 1741W        W17550  10.266   8.880  13.985  0.2908  0.0744  0.0603
 1742W        W17551   6.942   5.995   3.039  0.0220  0.0762  0.0320
 1743W        W17552   7.973   9.353  14.545 -0.0729 -0.0490  0.1359
 1744W        W17553  11.105  14.228  13.434 -0.0150 -0.2193 -0.2820
 1745W        W17554  11.415  14.996  16.029  0.0021  0.1630 -0.0466
 1746W        W17555   7.919  10.239  14.157 -0.2569 -0.0132  0.3461
 1747W        W17556  11.797   0.980  12.133  0.1061  0.5364 -0.1089
 1748W        W17557   7.162  15.890  12.733  0.1392 -0.1342 -0.0521
 1749W        W17558   4.110  13.383   0.087 -0.0840 -0.0090  0.1242
 1750W        W17559   0.458  12.843  11.782 -0.1504 -0.0386 -0.0458
 1751W        W17560  14.791  13.984  14.313  0.1160  0.0180 -0.0118
 1752W        W17561  18.043  16.042   0.071 -0.2109 -0.0429 -0.2294
 1753W        W17562  13.645   6.159  12.426  0.0004  0.1278  0.2770
 1754W        W17563  11.744  14.849   2.215 -0.0977  0.0677 -0.0412
 1755W        W17564  11.729   0.252   2.840  0.0079  0.2996 -0.0863
 1756W        W17565   4.259   4.111  14.337 -0.0874 -0.3563  0.0251
 1757W        W17566  14.013   1.068   2.846 -0.1552 -0.0716 -0.2703
 1758W        W17567  10.265  17.427   4.093  0.0962  0.0285  0.0160
 1759W        W17568  12.651   1.353   2.023 -0.1118 -0.0469  0.1291
 1760W        W17569   9.741   5.615  15.842  0.0132  0.1003 -0.1426
 1761W        W17570  14.860   2.020   0.472  0.4188  0.3902 -0.0753
 1762W        W17571   5.330  14.143   4.583  0.1799  0.4112 -0.0163
 1763W        W17572  14.097  13.543  11.787  0.0846 -0.1202  0.0485
 1764W        W17573  14.919   1.336  15.936 -0.0719  0.0067  0.0677
 1765W        W17574  11.818  15.190   3.793 -0.3846 -0.0714 -0.2838
 1766W        W17575  14.054  17.573   5.779  0.0910 -0.4760  0.0869
 1767W        W17576   2.757   4.613  14.841 -0.1634 -0.0377 -0.0085
 1768W        W17577  11.780  14.876  13.974 -0.1069  0.2062 -0.1078
 1769W        W17578   0.514   5.944   5.508  0.3756 -0.1697  0.1865
 1770W        W17579   7.662   9.019  12.819 -0.1224  0.0214 -0.1408
 1771W        W17580  12.177   9.516  13.659 -0.1776  0.0813  0.0773
 1772W        W17581  14.981  18.021  11.850 -0.0009 -0.0074  0.0750
 1773W        W17582   7.758  11.039   2.682 -0.0187 -0.1539  0.4281
 1774W        W17583   7.362  11.629  14.884 -0.0168 -0.0052 -0.1134
 1775W        W17584   0.353   4.082   2.399 -0.1276 -0.1356 -0.2192
 1776W        W17585  14.266   4.414   3.801  0.0795 -0.2371 -0.0084
 1777W        W17586   5.476   1.722   2.107  0.2873  0.0301 -0.0461
 1778W        W17587   9.230  11.102  15.995  0.1193  0.0882  0.0192
 1779W        W17588  17.745   5.346   1.802 -0.0594 -0.0073 -0.1621
 1780W        W17589  10.268   5.786   0.369  0.1880  0.0676  0.0663
 1781W        W17590  12.305   6.101  11.333 -0.2821 -0.1625 -0.1210
 1782W        W17591   1.284   9.997  12.390  0.0149  0.0744 -0.2096
 1783W        W17592   3.270  10.993  16.069  0.1612  0.2656 -0.0274
 1784W        W17593   5.856   1.682   4.877  0.0760  0.0671  0.2362
 1785W        W17594  11.760   6.619   5.357  0.3452 -0.0036 -0.2159
 1786W        W17595  12.400  12.346  11.930  0.3574  0.0413 -0.1670
 1787W        W17596   4.628   8.297   3.814 -0.2389  0.0853 -0.0339
 1788W        W17597  15.782   3.467   4.738  0.1631  0.1212  0.1359
 1789W        W17598  14.774   5.746  11.571 -0.2594 -0.5064 -0.0578
 1790W        W17599   5.309   7.121   2.788  0.1164 -0.1130 -0.0364
 1791W        W17600   2.308  12.352   3.928 -0.0486  0.2358  0.2744
 1792W        W17601   0.053  10.121   2.458 -0.2039  0.2462 -0.1275
 1793W        W17602   0.255   4.751   4.323 -0.1532 -0.0853 -0.1407
 1794W        W17603   4.834   4.405   0.501 -0.2324 -0.0665  0.1440
 1795W        W17604  13.304  17.571   1.860  0.0588 -0.0849 -0.0748
 1796W        W17605  18.216   1.321   2.800  0.0015 -0.2181 -0.2045
 1797W        W17606  17.274  16.781  15.108  0.1314 -0.1015 -0.0541
 1798W        W17607   3.863   0.958  13.940 -0.4682 -0.0234  0.0228
 1799W        W17608  17.020  12.999  15.395  0.5348  0.2878  0.0758
 1800W        W17609  17.670  12.406   2.038 -0.1390  0.1313  0.5510
 1801W        W17610   1.512  16.215   1.509 -0.0387  0.1482 -0.2671
 1802W        W17611  17.685   8.382  10.893 -0.0716  0.2159  0.1146
 1803W        W17612  11.485   9.781   3.868  0.0506 -0.2034 -0.0525
 1804W        W17613   1.652   2.287  13.463 -0.0636 -0.0856 -0.1609
 1805W        W17614   1.853   1.520  14.958 -0.0296  0.0598 -0.1068
 1806W        W17615   9.688  14.024   1.827 -0.5042  0.2401 -0.0189
 1807W        W17616   0.734  14.089  15.700 -0.1268  0.2989  0.1638
 1808W        W17617   5.732   6.250  11.687  0.1382  0.0704  0.2210
 1809W        W17618   1.023   7.032  15.522  0.0921 -0.2852  0.1075
 1810W        W17619  13.759   6.171   1.770  0.0411  0.0704 -0.2024
 1811W        W17620  17.638   4.835   1.841 -0.0445 -0.4355  0.0785
 1812W        W17621  10.867   2.237  13.222 -0.1125 -0.1866  0.0524
 1813W        W17622   6.756   2.878   5.304 -0.1632  0.0054 -0.0012
 1814W        W17623  17.593  14.027  14.890  0.2489  0.0869  0.0587
 1815W        W17624  15.459   8.215   0.449  0.0722  0.2292 -0.0093
 1816W        W17625   2.377   5.699   3.011 -0.0218 -0.0550  0.2528
 1817W        W17626   7.402   8.524   4.448  0.1138 -0.2112 -0.0953
 1818W        W17627  16.921   6.947  13.950 -0.0414  0.0044  0.1336
 1819W        W17628  14.820   7.750   4.868 -0.0394 -0.1325 -0.2027
 1820W        W17629   2.402  10.171   3.425 -0.0025 -0.1243 -0.0189
 1821W        W17630   4.397  11.429  12.543  0.1695  0.1057  0.4258
 1822W        W17631  13.605   7.061   0.273 -0.1968 -0.0846  0.0196
 1823W        W17632   7.231   2.684  14.759 -0.2400 -0.0394 -0.0531
 1824W        W17633  15.456   3.588   0.515  0.2005 -0.4094  0.0611
 1825W        W17634  10.381   2.021   5.539 -0.0365 -0.0111  0.0584
 1826W        W17635  14.146   9.639   6.021 -0.2542 -0.0436  0.0039
 1827W        W17636   7.863   2.320  16.035  0.0121 -0.1262  0.0078
 1828W        W17637  10.179   7.780  12.328  0.3798 -0.0280 -0.0474
 1829W        W17638   3.838  10.624  13.386 -0.0545 -0.1479 -0.0708
 1830W        W17639  10.841  12.046  15.613  0.1504  0.2615  0.0805
 1831W        W17640  14.869   0.317  12.806  0.2068  0.1564 -0.0243
 1832W        W17641   0.908  15.130  12.945  0.0696 -0.1774  0.1342
 1833W        W17642   0.760  15.400  14.344  0.0764 -0.0138 -0.1050
 1834W        W17643  10.416   9.158   4.879  0.0547  0.3917 -0.0142
 1835W        W17644  14.266  14.028  13.269 -0.0483  0.2991 -0.1160
 1836W        W17645   6.962   7.494   0.454  0.0657  0.2487  0.0219
 1837W        W17646  14.654   6.185  14.468 -0.0481 -0.0218  0.0469
 1838W        W17647   0.852  14.148   3.102 -0.0142 -0.1710  0.1441
 1839W        W17648   3.575  15.162  12.001  0.2205 -0.3092  0.1220
 1840W        W17649  17.292  14.331  15.272  0.0547  0.1793  0.1566
 1841W        W17650   5.529   4.628  10.033 -0.1683  0.2300  0.2396
 1842W        W17651  16.740   8.859  15.500 -0.3655  0.1062  0.0273
 1843W        W17652  13.271   5.630  15.837  0.0593 -0.2158 -0.1284
 1844W        W17653  15.845   9.726  15.601  0.2403 -0.2118 -0.1091
 1845W        W17654  15.975  14.676   4.460  0.0167  0.0701 -0.0223
 1846W        W17655   1.988   0.041  11.537  0.0429 -0.4656 -0.1001
 1847W        W17656  15.796  11.564  14.344  0.1722 -0.0518 -0.1374
 1848W        W17657  11.577   2.956   4.623  0.0305 -0.1154 -0.0894
 1849W        W17658   0.576  14.495  11.982  0.1410  0.1582 -0.0173
 1850W        W17659   1.208  13.334  13.751  0.0187 -0.0575 -0.0682
 1851W        W17660   5.606   6.047  12.119  0.1296  0.1568 -0.1650
 1852W        W17661  18.107  13.896   1.300  0.0163  0.1401 -0.0747
 1853W        W17662  15.345   6.359  14.973  0.0756  0.1102 -0.1538
 1854W        W17663   2.365  13.149  13.142  0.1856 -0.0234  0.0970
 1855W        W17664  17.928   8.041  14.420 -0.0279 -0.1240 -0.1234
 1856W        W17665   9.725   4.153   3.878 -0.0237  0.0263  0.1106
 1857W        W17666  13.059   2.376   6.024 -0.1917  0.1406 -0.0613
 1858W        W17667  16.499  15.887   1.598 -0.2756 -0.2119  0.4322
 1859W        W17668   9.708  12.928  14.424 -0.2571 -0.0420 -0.0390
 1860W        W17669  11.430  12.048   2.566  0.3517 -0.1298  0.1811
 1861W        W17670   6.677  13.295  14.530  0.0038  0.2673  0.3133
 1862W        W17671  15.378   6.473  14.455 -0.1178  0.0864 -0.0208
 1863W        W17672  16.307  11.682   2.618  0.0396  0.1005  0.1843
 1864W        W17673   8.712   0.839   0.998 -0.0337  0.2813  0.3028
 1865W        W17674  17.972  15.870   4.961 -0.1754  0.1402  0.1143
 1866W        W17675  15.201  18.119   6.007  0.0541 -0.3378 -0.0160
 1867W        W17676   3.534   7.785  11.830  0.0217  0.2080  0.2686
 1868W        W17677   5.245   0.267   4.539  0.1465  0.3675 -0.1285
 1869W        W17678   5.043  13.133   1.934 -0.0067  0.1927 -0.1376
 1870W        W17679  12.996   1.613   6.484 -0.0533 -0.0140  0.1311
 1871W        W17680  12.905  17.648  14.665 -0.0701 -0.0642 -0.0335
 1872W        W17681   8.529  11.325  13.031 -0.1220 -0.0071 -0.1414
 1873W        W17682   2.620   3.486  11.793 -0.1157  0.3093 -0.1090
 1874W        W17683  14.655  10.439   5.839 -0.0986 -0.1392  0.0721
 1875W        W17684  11.596   3.015   3.756  0.0838 -0.1853  0.1750
 1876W        W17685   2.837   2.242   3.901  0.1173  0.1992 -0.0954
 1877W        W17686  12.416   4.099  12.332 -0.0778  0.0452 -0.0746
 1878W        W17687   2.790  14.558   1.361 -0.0230 -0.1430 -0.1496
 1879W        W17688   1.054  16.568  11.144 -0.0544  0.0260  0.2324
 1880W        W17689   9.896  14.635  13.675  0.1316 -0.1624  0.3531
 1881W        W17690   1.623   9.287   3.196 -0.0979  0.0267 -0.2348
 1882W        W17691   0.246  13.473   3.518 -0.0973  0.0619  0.0237
 1883W        W17692  12.464   0.167   4.223 -0.1435 -0.2220 -0.0230
 1884W        W17693   7.296  15.731   4.430  0.0808  0.1054  0.0905
 1885W        W17694  11.322   9.973  12.982 -0.0347 -0.0697  0.0070
 1886W        W17695  18.113   0.796  14.003 -0.0296 -0.0507 -0.3040
 1887W        W17696  12.193  15.202  13.647  0.1976 -0.1506  0.2120
 1888W        W17697   8.851   2.864   1.897  0.1024  0.0133  0.0437
 1889W        W17698   4.559  18.131  15.522 -0.0779  0.2320 -0.1490
 1890W        W17699  16.409   4.517  13.129  0.0640 -0.0677 -0.2476
 1891W        W17700  17.425  15.502   4.231  0.1361  0.0845  0.1437
 1892W        W17701   7.215  15.153   1.580  0.0865 -0.4219  0.2915
 1893W        W17702   9.741   9.393   3.746 -0.2462  0.0274 -0.3643
 1894W        W17703   0.635   8.306   0.876  0.0843 -0.1875 -0.1825
 1895W        W17704   9.709  12.285  15.414  0.1133  0.2087  0.0502
 1896W        W17705  12.476   0.445   2.012 -0.0347 -0.1431  0.2523
 1897W        W17706  15.897  14.506  15.775 -0.1737  0.1001  0.0978
 1898W        W17707   6.977  15.997  10.604  0.3422 -0.3541  0.3045
 1899W        W17708   2.247  13.334  15.182  0.0887  0.0088 -0.1348
 1900W        W17709  15.204   7.516  13.050  0.2699 -0.0546 -0.0324
 1901W        W17710   7.768   6.304   3.890 -0.3909  0.0830 -0.4082
 1902W        W17711   5.895   6.805  10.466  0.0489  0.0796 -0.0156
 1903W        W17712   2.379   3.202   0.577  0.1501 -0.0732 -0.0353
 1904W        W17713   4.007   4.674   1.705 -0.1352  0.0859  0.1761
 1905W        W17714  17.031   8.699   5.146  0.0074  0.0600  0.2199
 1906W        W17715  16.955  13.072  13.353  0.0398  0.4259 -0.1431
 1907W        W17716   4.217   1.129   4.900  0.2151 -0.2282  0.0547
 1908W        W17717  15.067   2.651  12.889 -0.2833 -0.1842 -0.3262
 1909W        W17718   0.299  11.960   4.133 -0.0466 -0.1667 -0.1340
 1910W        W17719   4.120   1.157  15.566 -0.4261  0.1261  0.2751
 1911W        W17720  11.604   5.303   5.364 -0.1990  0.2305  0.0668
 1912W        W17721   6.561  12.985   2.869  0.0370 -0.0154  0.3544
 1913W        W17722  13.659  13.387  14.020 -0.3386  0.2352  0.0489
 1914W        W17723  12.959  11.123  15.724 -0.0256 -0.1369 -0.0724
 1915W        W17724  16.743  13.512  13.478  0.0727  0.3066  0.1857
 1916W        W17725   7.378   0.329  12.275  0.1900 -0.1087 -0.0429
 1917W        W17726   0.162   2.864   5.229  0.1910  0.0475 -0.2609
 1918W        W17727   8.302   3.182   1.405 -0.0031 -0.2137 -0.0305
 1919W        W17728   3.504   1.225   2.071 -0.0319 -0.0394 -0.0044
 1920W        W17729  17.581  12.758  13.720  0.0818  0.1060 -0.0325
 1921W        W17730  11.483  13.266   3.644  0.1269  0.1034 -0.1618
 1922W        W17731  13.551   4.731  13.281  0.2947 -0.0245  0.0555
 1923W        W17732  12.632   5.987   4.138 -0.0921 -0.2613 -0.2632
 1924W        W17733  14.985  11.604  13.525 -0.0783  0.0230 -0.1871
 1925W        W17734  16.563   3.751   5.012 -0.3106  0.1416  0.0425
 1926W        W17735  17.296   7.054  15.214 -0.0926  0.0702  0.1536
 1927W        W17736   5.444  16.457  12.537 -0.0185 -0.4861 -0.0220
 1928W        W17737  11.039   6.480   3.367  0.0928  0.2409  0.2999
 1929W        W17738  13.715  12.788  15.791 -0.0115  0.0026  0.3320
 1930W        W17739  15.212  13.669   1.369  0.1603 -0.0936  0.0368
 1931W        W17740   1.617   0.399   2.567  0.0049  0.1631  0.2548
 1932W        W17741   5.876  12.331  15.710 -0.2258  0.0579 -0.0807
 1933W        W17742  17.351  10.387  13.872 -0.3638  0.3419  0.0890
 1934W        W17743  15.144   8.707   3.605 -0.0140 -0.1372  0.0744
 1935W        W17744  12.079   5.443   2.598  0.1166 -0.2291  0.2281
 1936W        W17745   7.526   2.173   2.249 -0.2097  0.0544 -0.0424
 1937W        W17746   2.653   0.089  13.118  0.1357  0.0102  0.0545
 1938W        W17747  12.181  11.560  11.962  0.0462  0.1624  0.0004
 1939W        W17748   1.358   1.471  14.808  0.3483 -0.2214  0.2166
 1940W        W17749  13.944   8.456  10.527 -0.1659  0.0039 -0.0225
 1941W        W17750  15.902  10.201  13.577 -0.1280 -0.2342 -0.0364
 1942W        W17751   1.609  14.031   3.306  0.2167 -0.1811  0.0329
 1943W        W17752   6.719  11.703  13.471 -0.0094 -0.0329 -0.2097
 1944W        W17753   9.326   5.423  15.766 -0.0076  0.3694 -0.1587
 1945W        W17754  11.282   3.479  12.927  0.1720 -0.0468  0.2445
 1946W        W17755  14.681  15.071  14.827  0.0828 -0.0544 -0.1491
 1947W        W17756  10.336  18.161   1.316 -0.4151 -0.2137 -0.0379
 1948W        W17757  16.843  17.491  12.370 -0.0969  0.2493 -0.1324
 1949W        W17758   7.279  15.895   2.751 -0.1950  0.2270 -0.1242
 1950W        W17759  15.811   2.132  13.981 -0.3364 -0.1501  0.0395
 1951W        W17760  15.691   3.000  11.768 -0.1275 -0.0990  0.2840
 1952W        W17761  10.787   6.732   5.172  0.1983 -0.0186  0.1227
 1953W        W17762   3.415  14.458  15.901 -0.1807 -0.3431 -0.0783
 1954W        W17763   5.922  14.648   4.052 -0.0341 -0.1880 -0.2062
 1955W        W17764  11.431   2.166  15.497  0.1364  0.2406 -0.2884
 1956W        W17765  10.018  15.356   4.870 -0.2131  0.2718 -0.1792
 1957W        W17766  14.875   9.976  12.493 -0.0495  0.1005  0.1580
 1958W        W17767  10.741   7.343   0.299 -0.2063  0.1018  0.1183
 1959W        W17768   8.888   6.020  14.895  0.0407  0.0997 -0.0143
 1960W        W17769  12.969  10.421   4.492 -0.0192  0.0683  0.2055
 1961W        W17770   7.736   9.059  11.843  0.0642 -0.2141  0.0042
 1962W        W17771  15.054   3.491  15.755 -0.0337  0.1269  0.0599
 1963W        W17772   4.742   4.962  13.381  0.2185  0.1720 -0.1485
 1964W        W17773   5.911  17.121   0.222 -0.4775 -0.0016 -0.1712
 1965W        W17774  11.255  13.216  14.997  0.1121  0.0326  0.1658
 1966W        W17775   1.701   7.915   1.805 -0.0923 -0.2433  0.1871
 1967W        W17776   5.171   2.450   0.085  0.0605 -0.2910 -0.0290
 1968W        W17777  11.087  17.155   2.790 -0.0261  0.0580  0.0871
 1969W        W17778  13.250  14.673  12.911  0.0796 -0.0851  0.0110
 1970W        W17779  14.510   8.560   3.033  0.0027  0.1106  0.0145
 1971W        W17780   4.297  16.786  13.068  0.0617  0.0154  0.1737
 1972W        W17781   8.853   0.677  13.929  0.0742  0.0394 -0.0878
 1973W        W17782  11.615   6.294  14.141 -0.1625  0.1948  0.4194
 1974W        W17783  18.072   4.211  11.265  0.3348  0.0084 -0.3826
 1975W        W17784  11.314   0.243   0.830  0.1458  0.0547  0.0934
 1976W        W17785   2.313   0.666   4.501 -0.0668  0.0702 -0.1755
 1977W        W17786  13.483   3.144  11.291  0.2423 -0.0437  0.2205
 1978W        W17787  15.974   3.031  14.162 -0.1257 -0.1135  0.3008
 1979W        W17788  15.622  16.402  13.676 -0.0379 -0.2093 -0.0080
 1980W        W17789   4.888   4.649  15.120 -0.2435  0.0971  0.2765
 1981W        W17790  12.488   4.644   2.922 -0.0087 -0.0581  0.0901
 1982W        W17791  13.346   6.406   3.632 -0.0076  0.1074 -0.2258
 1983W        W17792   1.417  17.268   3.983  0.2280 -0.1538  0.2110
 1984W        W17793  15.566  15.777  12.813 -0.1788  0.2168 -0.2587
 1985W        W17794  10.756  10.681  15.966 -0.0926  0.2335 -0.2659
 1986W        W17795  15.121   1.742   2.223  0.1199  0.2024  0.1265
 1987W        W17796  11.282   0.156  11.670  0.1356  0.0177 -0.3048
 1988W        W17797  17.061   5.723   3.402 -0.1323  0.3368 -0.0623
 1989W        W17798   9.418   6.147   0.435  0.1701  0.2377  0.0616
 1990W        W17799   9.746   9.315   5.797  0.0074  0.0090  0.0891
 1991W        W17800   8.428   2.692   1.579  0.1194 -0.1109  0.1858
 1992W        W17801  14.375   0.787   2.606  0.0376  0.0915 -0.0081
 1993W        W17802  10.888  11.222  12.447 -0.1127  0.0085  0.5114
 1994W        W17803  15.729   1.020   1.759  0.1215  0.1272 -0.0708
 1995W        W17804   7.369  10.275  10.977  0.2125 -0.1704 -0.0029
 1996W        W17805   0.850  12.390   2.642  0.4417  0.0472  0.2406
 1997W        W17806  12.448  14.414  14.347  0.0269 -0.3605 -0.1308
 1998W        W17807  11.168   7.425   2.988 -0.0798 -0.1635  0.0667
 1999W        W17808   9.184   0.182   2.176 -0.0831  0.0370 -0.2125
 2000W        W17809  17.762   6.585  14.955  0.0356 -0.1512  0.2034
 2001W        W17810   8.141  13.223  12.736 -0.0968  0.1419  0.1207
 2002W        W17811   4.436  10.128   0.170 -0.3315  0.1518  0.0246
 2003W        W17812   7.116   1.770  11.566  0.1170 -0.2759 -0.2087
 2004W        W17813   3.823  16.523   5.310  0.1332 -0.0527  0.1755
 2005W        W17814   8.928   2.527  14.103 -0.0209 -0.0458  0.1340
 2006W        W17815  13.153   4.693   5.792  0.0682  0.1996  0.0970
 2007W        W17816   6.459   1.224   0.224 -0.2714 -0.3445 -0.2416
 2008W        W17817   0.632  11.704  15.225 -0.0972 -0.0107  0.2547
 2009W        W17818  15.062  17.888   0.422  0.0538 -0.4924  0.0193
 2010W        W17819   6.815   6.002   1.956  0.0470  0.0182  0.1405
 2011W        W17820  12.876   3.806   4.605 -0.0943  0.4661 -0.1211
 2012W        W17821   3.850   9.084  10.783  0.1219  0.1678  0.1302
 2013W        W17822  12.266  15.110   3.436 -0.1256 -0.1087  0.1269
 2014W        W17823   1.292  12.130  15.750 -0.0782  0.0005 -0.2107
 2015W        W17824  17.664  14.351   3.018 -0.0704 -0.0670 -0.0865
 2016W        W17825   4.994  17.323  12.789  0.0943 -0.1636 -0.1084
 2017W        W17826  10.315  11.347  15.341  0.2599 -0.1494  0.1469
 2018W        W17827  18.258   3.865  12.689  0.1719 -0.1483  0.6584
 2019W        W17828  16.283   9.299  14.832 -0.5257  0.0370 -0.1350
 2020W        W17829  15.104   3.988  14.364 -0.0402  0.6036 -0.1250
 2021W        W17830  16.528   3.607  13.659 -0.0905 -0.1174  0.1565
 2022W        W17831   5.197   3.174  11.310  0.0562 -0.3336  0.0025
 2023W        W17832   5.675  11.063  14.298 -0.1150 -0.0745 -0.1001
 2024W        W17833  12.570   0.634  15.188 -0.0372  0.2270 -0.2386
 2025W        W17834   4.595  17.607  14.141 -0.0060  0.1497 -0.2821
 2026W        W17835  13.306   5.305   2.949 -0.1080 -0.0431 -0.1429
 2027W        W17836  14.032   9.224   0.030 -0.1440  0.2402  0.0145
 2028W        W17837  12.363   9.408  14.221  0.2882 -0.1232  0.2344
 2029W        W17838  11.814   3.571  13.966 -0.2201  0.0848 -0.1363
 2030W        W17839  17.412  12.734   9.878 -0.2207 -0.2083  0.1485
 2031W        W17840  17.279  13.717  14.593 -0.0704  0.1102  0.0400
 2032W        W17841   5.049   2.024   1.728  0.1760  0.0527 -0.0996
 2033W        W17842  13.285   3.517  12.340  0.0736 -0.2455 -0.0610
 2034W        W17843  11.260   2.717  11.833 -0.1633 -0.0071  0.1148
 2035W        W17844  14.928  14.249   3.624  0.0186  0.3306 -0.0760
 2036W        W17845  10.701   0.377   3.711  0.0103 -0.0859 -0.3503
 2037W        W17846   6.335  15.228  13.158  0.0338 -0.2690 -0.0573
 2038W        W17847   5.641   1.707   0.216  0.0360  0.1597 -0.1834
 2039W        W17848   8.396  13.241   1.769  0.0651 -0.3031 -0.0149
 2040W        W17849   5.668  18.157   4.849 -0.2668 -0.0266 -0.0460
 2041W        W17850  15.575   7.071   4.078 -0.0924 -0.0983  0.1314
 2042W        W17851  11.182   4.809   4.849  0.0778 -0.0547  0.1661
 2043W        W17852   4.218   9.464  15.967  0.2776  0.1499 -0.1359
 2044W        W17853   2.152  11.372   2.596 -0.2090 -0.0819  0.1648
 2045W        W17854   3.246   4.524   4.536 -0.2594 -0.1300  0.0597
 2046W        W17855  10.543   4.313   3.782 -0.0514 -0.2010 -0.2517
 2047W        W17856  14.474   1.091  15.876  0.3469 -0.0015 -0.1434
 2048W        W17857   5.725  10.201  14.065  0.0832 -0.1761 -0.3071
 2049W        W17858  18.187   2.300   1.969  0.0012 -0.0324 -0.0774
 2050W        W17859  15.711   9.734   5.679  0.0612 -0.1983  0.0273
 2051W        W17860   5.557  13.067   4.560  0.0348 -0.1658  0.1807
 2052W        W17861  16.251   7.254   4.637 -0.2362 -0.0822 -0.2503
 2053W        W17862   4.918  15.450   2.561 -0.2268  0.1643 -0.2028
 2054W        W17863  15.578   3.281  14.161 -0.0571 -0.1655 -0.1242
 2055W        W17864   6.803  16.725   5.052 -0.0686 -0.0378  0.0386
 2056W        W17865   7.938  17.634   0.632 -0.2622  0.0036 -0.1411
 2057W        W17866   2.534   7.668   1.812 -0.1330 -0.1967  0.0185
 2058W        W17867   4.850   3.421  11.658  0.2688  0.0575  0.4401
 2059W        W17868   7.927   0.950   5.533 -0.1232  0.3568 -0.1045
 2060W        W17869   3.519   4.589   3.790  0.2182 -0.3354 -0.2686
 2061W        W17870  14.913  12.825   3.493  0.2569  0.5033  0.1501
 2062W        W17871  12.614   9.636   0.474 -0.2279  0.1245 -0.2450
 2063W        W17872  14.034   9.776   3.684 -0.1404  0.2234 -0.0083
 2064W        W17873   8.565  17.204   1.429 -0.1974 -0.3274  0.2586
 2065W        W17874   0.044  12.960   2.489 -0.4613 -0.0775  0.0076
 2066W        W17875   8.746  16.108  14.163 -0.0730  0.2230  0.1461
 2067W        W17876   7.977   6.704  14.690 -0.0273 -0.0646 -0.1054
 2068W        W17877   4.565   9.941   0.811  0.0513 -0.0764  0.1776
 2069W        W17878  10.955   3.819  13.507  0.0110 -0.2395  0.1593
 2070W        W17879   0.193  15.962   1.807 -0.3297 -0.1149 -0.1893
 2071W        W17880  13.096  11.520  14.778  0.2259 -0.2420  0.0309
 2072W        W17881   1.264   3.822   2.719  0.0254  0.1212  0.5119
 2073W        W17882   5.906  11.205   2.648 -0.0907  0.0613  0.0256
 2074W        W17883   3.842   0.669   5.539 -0.0882 -0.1229  0.0285
 2075W        W17884  10.723   4.926   2.540  0.2664 -0.1948 -0.0066
 2076W        W17885   2.829   8.499  12.422 -0.4330 -0.3755 -0.0397
 2077W        W17886   5.683  16.932   3.837 -0.0520  0.0266  0.0988
 2078W        W17887   7.536  17.656   4.508 -0.0130 -0.0708  0.0178
 2079W        W17888   6.280   2.096   2.238  0.1559  0.1484 -0.1313
 2080W        W17889   3.430  10.471  11.292 -0.0604  0.1082  0.2869
 2081W        W17890   9.063   4.896   4.501  0.2473 -0.4078  0.0379
 2082W        W17891  13.721  13.199  11.772 -0.0592 -0.0332 -0.2510
 2083W        W17892  11.367   1.159  14.809  0.0657 -0.1380 -0.1090
 2084W        W17893   9.681   4.440  12.592  0.0185  0.0599 -0.0165
 2085W        W17894  17.731   9.352   1.277 -0.0796 -0.0742  0.2765
 2086W        W17895  16.905  15.105   1.302 -0.0066  0.0536 -0.0663
 2087W        W17896   8.291  10.795  14.854 -0.2394  0.0585 -0.0604
 2088W        W17897  11.428  14.255   3.545 -0.1534 -0.0501  0.1215
 2089W        W17898   8.478  17.694   1.708 -0.1309  0.1263  0.1146
 2090W        W17899   7.986  10.220  13.392 -0.0941  0.4032 -0.1925
 2091W        W17900   6.470   1.953   3.718 -0.1867  0.1206 -0.0010
 2092W        W17901  17.348   3.500   6.061  0.0870 -0.0279  0.0438
 2093W        W17902  16.715   6.588   0.438 -0.0819 -0.0010 -0.1677
 2094W        W17903   9.573   8.492   2.410  0.1490  0.0060  0.0574
 2095W        W17904   7.878  14.133  11.205 -0.2344  0.0718 -0.2113
 2096W        W17905   7.254  15.032   3.809  0.2183  0.1330  0.3004
 2097W        W17906   7.076   8.294   3.538  0.0616 -0.0362 -0.0787
 2098W        W17907   2.209   9.258  15.212  0.3334  0.0369 -0.1098
 2099W        W17908  11.658  15.544   4.440  0.0582  0.1897  0.0559
 2100W        W17909  14.218   0.690   2.123  0.1112 -0.0703  0.1471
 2101W        W17910  13.268   5.521   1.071  0.1351  0.1429 -0.0352
 2102W        W17911   9.063  16.207   2.306 -0.0095  0.1065 -0.0071
 2103W        W17912  14.819   1.797  15.596  0.1938 -0.1423  0.1825
 2104W        W17913   5.584   7.205  15.239  0.0205  0.1247 -0.0740
 2105W        W17914   5.513   2.444  14.939  0.1933  0.1646  0.1919
 2106W        W17915   1.190   1.675   4.960  0.1315  0.1098 -0.1819
 2107W        W17916  17.833  12.505  15.646  0.0463 -0.2976 -0.0307
 2108W        W17917   1.961   1.361  12.498  0.1086  0.1959  0.1136
 2109W        W17918  13.062  10.170  13.210 -0.0065 -0.0064  0.2282
 2110W        W17919   3.684  12.389   3.244  0.0409  0.0612  0.2779
 2111W        W17920   8.980  16.875  12.356 -0.2457  0.1396  0.0149
 2112W        W17921  15.385  15.917   2.895  0.0675 -0.1563 -0.2338
 2113W        W17922  15.572  18.186  14.586  0.1871  0.1083 -0.1196
 2114W        W17923   7.413   0.164   2.005 -0.0240  0.0049 -0.1897
 2115W        W17924   9.971   0.924   3.502  0.0514  0.0992 -0.2520
 2116W        W17925   0.865   8.921   2.666 -0.2843 -0.0022  0.0315
 2117W        W17926   1.651  16.072   0.195 -0.0727  0.1895  0.2104
 2118W        W17927   3.577   9.677   4.003 -0.1662  0.3057 -0.1252
 2119W        W17928  17.268   3.438   1.256 -0.1298  0.1121  0.2048
 2120W        W17929   2.803   5.087   3.451 -0.0433  0.1593 -0.2292
 2121W        W17930  13.527  17.334  11.237  0.0127  0.1356 -0.0086
 2122W        W17931   2.899   8.979   0.029  0.0281  0.1491  0.1323
 2123W        W17932  15.761  18.185  14.083  0.0277 -0.1042  0.1580
 2124W        W17933   0.082  11.900  11.808  0.0328 -0.0072  0.0271
 2125W        W17934   6.439   9.303   0.023 -0.1183  0.0962 -0.1892
 2126W        W17935   2.254  15.819  11.684 -0.2511  0.0134  0.2116
 2127W        W17936   4.568  17.218   1.903  0.2765  0.1719  0.1060
 2128W        W17937   8.809   3.002   1.431  0.1863  0.0202 -0.2385
 2129W        W17938  12.932   1.507   3.654 -0.1428  0.2147 -0.3659
 2130W        W17939   2.458   1.623   1.737  0.1112 -0.2853 -0.2419
 2131W        W17940  10.248   9.171   1.345  0.0650  0.3299  0.2934
 2132W        W17941   6.579   6.651  14.800  0.0054 -0.0853 -0.0580
 2133W        W17942  12.640  12.801   0.117 -0.1413  0.1014  0.4029
 2134W        W17943  13.544   4.530   1.097 -0.0195 -0.0345  0.0950
 2135W        W17944   9.182  13.547  15.541  0.1261  0.3070 -0.1580
 2136W        W17945  11.790  13.915  12.686  0.1706 -0.0486 -0.2023
 2137W        W17946   1.282   5.345  12.704  0.1663  0.1018 -0.0743
 2138W        W17947   0.758   6.713  14.155 -0.2320  0.1573  0.2801
 2139W        W17948  12.522  17.938  11.587 -0.2964  0.0544 -0.0297
 2140W        W17949  16.680   4.815   4.683  0.0346  0.0898 -0.1945
 2141W        W17950  11.062  10.748   0.307  0.1671  0.0139  0.1379
 2142W        W17951   1.989  17.768  14.636 -0.0692  0.0247 -0.0599
 2143W        W17952   5.254  16.659  14.868 -0.3423 -0.2421  0.0698
 2144W        W17953   1.111  14.571   3.108  0.0984  0.1789  0.3261
 2145W        W17954   1.531  11.279  12.717  0.0165  0.0420  0.1770
 2146W        W17955   8.875  10.371   3.166  0.1069 -0.0522  0.1895
 2147W        W17956   0.659  15.334  11.329 -0.1602  0.0801 -0.0442
 2148W        W17957   1.689   7.995  14.495  0.0468  0.2287 -0.1067
 2149W        W17958   9.405   3.798   3.959 -0.0511  0.0914  0.0798
 2150W        W17959   8.440   3.249   4.893 -0.0482  0.4091 -0.3361
 2151W        W17960  12.172  14.814   1.314 -0.1871  0.0207  0.2853
 2152W        W17961  14.023  15.358   0.761 -0.0549 -0.1398  0.0535
 2153W        W17962   5.451   1.201  12.552  0.5167  0.1387  0.2561
 2154W        W17963  11.449  14.109  15.216 -0.0483 -0.0177 -0.1808
 2155W        W17964  14.883   0.166  10.635 -0.3573 -0.2858  0.1357
 2156W        W17965   0.620   5.045   0.058  0.1808 -0.2017 -0.0421
 2157W        W17966   5.576   3.041  15.002 -0.1233 -0.2567 -0.1476
 2158W        W17967  14.333   5.453  14.934  0.2888  0.0611 -0.1078
 2159W        W17968  14.459   1.071   1.126 -0.1553 -0.0825  0.1687
 2160W        W17969   8.010   6.918  10.954  0.0256  0.0628 -0.0116
 2161W        W17970  14.925   4.432  14.107  0.1693  0.1471 -0.0704
 2162W        W17971  16.875  10.618  13.805  0.0906  0.0169  0.0257
 2163W        W17972   1.242   7.145  11.429 -0.0601  0.0349  0.0260
 2164W        W17973  12.664  10.464  11.137  0.0138 -0.1944 -0.0761
 2165W        W17974   9.717   7.490  15.414 -0.0471 -0.0459 -0.0734
 2166W        W17975   0.407   6.158   2.937  0.0576  0.0714 -0.4537
 2167W        W17976  15.639  14.224  13.309  0.0131  0.3457  0.0878
 2168W        W17977  15.903   2.524  14.338  0.2516 -0.1238  0.0867
 2169W        W17978  16.235   1.966  13.633 -0.0652  0.1148 -0.0612
 2170W        W17979   4.995   1.546   3.706  0.0403  0.0864  0.0972
 2171W        W17980   8.479   3.293   2.427  0.1625 -0.1979  0.2841
 2172W        W17981   6.208  14.647   3.628  0.0505  0.2914 -0.1874
 2173W        W17982   3.711   4.423  13.760 -0.0433 -0.0608  0.0298
 2174W        W17983   8.418   0.286   0.588  0.0448 -0.2364 -0.1434
 2175W        W17984  16.702   4.284  13.538  0.0053  0.1004 -0.0208
 2176W        W17985  17.518  11.763   0.997 -0.3796 -0.1636  0.4683
 2177W        W17986  14.484  14.473  14.190 -0.0171 -0.0904  0.0464
 2178W        W17987  17.753   3.212  11.816 -0.0182 -0.1048 -0.1665
 2179W        W17988  10.122   9.570  12.955 -0.1936 -0.0849  0.3058
 2180W        W17989   7.773  11.778   0.692 -0.2250 -0.0725 -0.1114
 2181W        W17990  15.273   3.291  13.579  0.1464 -0.0882 -0.2427
 2182W        W17991   0.525  13.864   2.702 -0.0557  0.1074  0.2162
 2183W        W17992  16.161  11.732   3.617  0.0144  0.3646  0.1413
 2184W        W17993   9.863   5.256   0.903 -0.0468  0.0765 -0.0325
 2185W        W17994  14.244   5.472   0.632  0.0606 -0.1181 -0.2661
 2186W        W17995   2.624   7.286  10.963 -0.1248  0.0395  0.0023
 2187W        W17996  15.056   7.329  12.131  0.0694 -0.2620  0.1702
 2188W        W17997  10.359   5.228   2.797 -0.0585 -0.0887 -0.0258
 2189W        W17998  18.159  15.359   3.864  0.0227  0.2843  0.1709
 2190W        W17999   9.601  14.953  12.010  0.3441 -0.1965 -0.3464
 2191W        W18000   1.865  16.102  15.788  0.0073  0.0421  0.1974
 2192W        W18001   2.971  10.270   2.627  0.0766  0.2036 -0.4081
 2193W        W18002   1.454   9.537  12.515  0.0702 -0.0034 -0.1917
 2194W        W18003   1.045  15.371   5.434  0.1065  0.0749  0.0272
 2195W        W18004  15.603  13.723  10.575  0.0984 -0.2413  0.0404
 2196W        W18005   0.794  11.890   4.846 -0.1003  0.4050  0.2317
 2197W        W18006  18.161   2.275  11.617  0.1020  0.2182 -0.0943
 2198W        W18007   1.907  11.506   0.608  0.2571  0.0377 -0.1469
 2199W        W18008  15.645   5.548   0.376  0.0901 -0.0265 -0.2371
 2200W        W18009  14.762  14.967  14.263 -0.0566  0.3598  0.0625
 2201W        W18010  18.221   4.662  11.415 -0.0994 -0.0105 -0.0684
 2202W        W18011  16.039  17.053  12.472 -0.1961 -0.0651  0.0496
 2203W        W18012   6.978   6.032  15.578 -0.0483 -0.3669 -0.0990
 2204W        W18013  16.573  18.155   3.351  0.0532 -0.1386 -0.1518
 2205W        W18014   4.405   3.026   2.999  0.0516  0.3021  0.2992
 2206W        W18015  10.314   0.898   6.376 -0.0826 -0.0556 -0.1923
 2207W        W18016   4.635   3.299   2.609 -0.0203  0.2629 -0.1155
 2208W        W18017  16.393   1.399  13.721  0.0765 -0.0553 -0.0321
 2209W        W18018  17.691   4.644   2.685  0.2263  0.1223  0.1179
 2210W        W18019   7.376  15.727  13.691 -0.2222  0.0963 -0.1664
 2211W        W18020  17.622  10.117   1.719 -0.0214 -0.2818 -0.1787
 2212W        W18021   7.781  12.153   3.197 -0.0789 -0.2276  0.1727
 2213W        W18022   9.062   1.021   0.298 -0.0967  0.1272 -0.1685
 2214W        W18023  17.225   0.184   0.840 -0.0358  0.2684 -0.1894
 2215W        W18024  16.909  15.251  13.302 -0.0007  0.1461  0.0604
 2216W        W18025   9.359   6.293  11.965 -0.0657  0.1536 -0.1024
 2217W        W18026  11.893  16.943   2.450 -0.0030  0.0113  0.0080
 2218W        W18027  14.622   7.716   2.762  0.0991 -0.1311 -0.2060
 2219W        W18028  11.922   0.537  11.866 -0.1272 -0.2299 -0.2018
 2220W        W18029  16.405   7.585   4.289  0.3031  0.0453 -0.0336
 2221W        W18030  12.935   4.582   3.842  0.1092  0.1341 -0.1777
 2222W        W18031   0.532   3.744   3.541  0.0346  0.1491 -0.0918
 2223W        W18032   4.571   1.286   0.759  0.1624  0.2322  0.2559
 2224W        W18033  13.227  13.236   4.574  0.2623 -0.1266 -0.0945
 2225W        W18034  10.929  13.320   3.667 -0.0715 -0.2520 -0.0664
 2226W        W18035  16.940   4.480  13.998 -0.1106  0.2088  0.0072
 2227W        W18036  11.895   2.210   4.308 -0.2324  0.0140 -0.2193
 2228W        W18037  14.502   0.340  12.480  0.0416  0.3015 -0.2567
 2229W        W18038  12.289   3.315   6.046 -0.0064 -0.1657 -0.0050
 2230W        W18039  15.367   9.851  11.618 -0.0585 -0.1685  0.1698
 2231W        W18040   3.274   7.466   2.086  0.0804  0.1644  0.2037
 2232W        W18041   3.944   0.299  12.017 -0.0381 -0.0620 -0.1308
 2233W        W18042  15.521   0.130   1.965 -0.1259  0.2252 -0.1859
 2234W        W18043  17.578  15.111   1.251  0.0749  0.4002  0.3560
 2235W        W18044  14.799  14.592   1.204 -0.1618 -0.1210  0.0417
 2236W        W18045   5.750   5.295  11.654 -0.1541 -0.7284  0.1708
 2237W        W18046   5.942   0.520  12.024 -0.0380 -0.3447 -0.1644
 2238W        W18047  16.633  10.154  15.127  0.1561  0.0571  0.4047
 2239W        W18048  12.765  17.136   0.628 -0.2447 -0.0911  0.2306
 2240W        W18049   0.912  11.718   0.058 -0.1509  0.0958 -0.1771
 2241W        W18050   6.209   7.473  13.809  0.2951  0.1118  0.2093
 2242W        W18051   3.567   5.695  12.433 -0.1345  0.0293  0.0030
 2243W        W18052  10.885  17.892   4.705  0.0890  0.0847 -0.1563
 2244W        W18053  18.033  11.049  13.885 -0.2081  0.1811 -0.2039
 2245W        W18054  14.595  15.320   2.455  0.1014 -0.1493 -0.1885
 2246W        W18055  16.324  14.457   0.987  0.0831  0.0386  0.0066
 2247W        W18056  11.831   7.338  11.796 -0.0694  0.1191 -0.1178
 2248W        W18057  14.796  11.817   4.519  0.0669 -0.1995  0.2535
 2249W        W18058   5.003   6.122  15.362 -0.2039  0.2340  0.2609
 2250W        W18059   9.240   7.010   0.407 -0.0381  0.2592  0.1060
 2251W        W18060   4.398  10.347  11.738 -0.1151 -0.0471 -0.0950
 2252W        W18061   9.938   9.318   1.751  0.1615 -0.1220  0.2835
 2253W        W18062  17.640   2.374   0.164  0.1265  0.0784 -0.0526
 2254W        W18063   1.136  14.379   1.655  0.2811  0.1645 -0.4841
 2255W        W18064   8.923   2.109  12.581 -0.1298  0.1431  0.0829
 2256W        W18065  12.922  15.087  11.048 -0.0624 -0.2738 -0.0423
 2257W        W18066   7.726  10.474   2.528 -0.0908  0.2787 -0.1071
 2258W        W18067   1.929   9.655   0.799  0.0739  0.0943  0.1503
 2259W        W18068   8.942   6.997   4.009 -0.1961 -0.2398 -0.1264
 2260W        W18069   7.298   9.207   5.154 -0.1022  0.0065  0.2392
 2261W        W18070   3.931  14.119  13.082  0.1771 -0.0494 -0.0101
 2262W        W18071   5.172  14.025   4.143  0.0424 -0.1279  0.0827
 2263W        W18072  17.851  10.631   1.529  0.2776  0.1069 -0.1467
 2264W        W18073  16.351   6.900  11.876 -0.0387 -0.1630  0.2694
 2265W        W18074   1.750  13.819   2.794  0.0967  0.0115 -0.1658
 2266W        W18075  15.366   5.791  13.208  0.0344  0.0256 -0.5033
 2267W        W18076  13.227   9.915   0.996 -0.1773  0.2155 -0.0473
 2268W        W18077   8.424  10.914   5.022  0.0544 -0.1194  0.0530
 2269W        W18078   3.583   4.719   0.783 -0.3181  0.1288  0.1608
 2270W        W18079  14.698   3.899   3.545 -0.1677  0.1656 -0.2436
 2271W        W18080  12.661   8.988  15.194  0.1823  0.1053 -0.3882
 2272W        W18081  16.281  13.601  14.413 -0.1814  0.0391  0.0077
 2273W        W18082   3.742   9.018  14.822  0.0843  0.4429 -0.0703
 2274W        W18083   2.896  12.266   9.968 -0.1051  0.0057 -0.1233
 2275W        W18084  15.254  10.955  15.318 -0.1196 -0.2480  0.1471
 2276W        W18085   1.508  17.125  13.133  0.0896  0.0385 -0.3078
 2277W        W18086  13.463   2.431   2.357  0.0969  0.0077  0.0978
 2278W        W18087  12.253  13.197   1.293  0.1449 -0.1517  0.1295
 2279W        W18088   6.404  16.455   5.535 -0.1445  0.2914  0.2155
 2280W        W18089  16.198   9.476  13.450  0.0320  0.0689  0.0410
 2281W        W18090   6.490   3.247  14.543 -0.1825 -0.0389 -0.1273
 2282W        W18091  13.782   1.707   0.440 -0.0874 -0.0814  0.0594
 2283W        W18092  10.869  12.630   4.291  0.2283 -0.0137  0.0362
 2284W        W18093  17.930   1.121  11.044  0.1852  0.1333 -0.0060
 2285W        W18094  13.459   6.833  14.782 -0.0424 -0.3397 -0.0889
 2286W        W18095   4.656  11.963   9.995  0.1379 -0.0317 -0.1428
 2287W        W18096  11.505  17.417  14.103  0.1330 -0.2126  0.0211
 2288W        W18097  10.516  18.169   1.986 -0.0668 -0.3229  0.0863
 2289W        W18098  14.144   4.656  14.507 -0.2172 -0.1528 -0.1682
 2290W        W18099   8.285   8.504   4.879  0.2155 -0.0614 -0.1659
 2291W        W18100   5.066  17.192   0.137 -0.2067 -0.0714 -0.0367
 2292W        W18101  16.724   0.336  14.018 -0.0340  0.0031 -0.2742
 2293W        W18102  15.429  12.166   3.087  0.0106  0.3003  0.3045
 2294W        W18103   4.355   0.491  14.900 -0.2315 -0.3795 -0.1984
 2295W        W18104  14.098  16.341   4.823 -0.3744  0.1089  0.2523
 2296W        W18105  10.383  14.974   2.990 -0.1159  0.0024 -0.0972
 2297W        W18106   5.916  16.745   1.645 -0.3531  0.1775  0.3459
 2298W        W18107   9.797  11.528  11.096  0.1795 -0.0230  0.2768
 2299W        W18108   1.725  12.284   3.981 -0.0778 -0.1604  0.1924
 2300W        W18109   6.708   4.097  14.397  0.1084  0.0484 -0.2519
 2301W        W18110  10.790  17.593  14.235 -0.1913  0.4027 -0.1543
 2302W        W18111   8.025   0.891   3.921 -0.2572 -0.1037  0.0926
 2303W        W18112  12.546   6.764  11.462 -0.1123 -0.4867  0.1633
 2304W        W18113   7.803  10.446   0.461 -0.0577  0.0862  0.0966
 2305W        W18114  16.961  10.439   4.646  0.2103  0.2083  0.1357
 2306W        W18115  11.148   9.946  12.026 -0.1749 -0.5944  0.3011
 2307W        W18116  14.635  16.524  12.573  0.0054  0.1301 -0.2442
 2308W        W18117  15.436   2.024   1.927  0.1510  0.1682 -0.2573
 2309W        W18118   6.544   8.546  15.305 -0.1133  0.1064 -0.1610
 2310W        W18119   2.067  11.303   5.343 -0.0691  0.1769  0.2811
 2311W        W18120  11.430   1.829  11.903  0.3773 -0.1202 -0.0342
 2312W        W18121   5.245   3.520   5.363  0.1960  0.1774 -0.1676
 2313W        W18122   7.011  12.098  11.832  0.2827 -0.3073 -0.0420
 2314W        W18123   2.426  12.840   1.940 -0.0193  0.0686  0.0358
 2315W        W18124   0.611   8.094  11.531  0.1350  0.1153 -0.1072
 2316W        W18125   1.429   1.084  12.489 -0.0153 -0.1391 -0.0075
 2317W        W18126   0.799   3.623   2.474 -0.3829  0.1301 -0.1121
 2318W        W18127   4.860  10.904  15.689  0.1485  0.0608  0.2424
 2319W        W18128   1.256   0.863   2.039  0.1042 -0.1607 -0.0458
 2320W        W18129   0.458  15.019  11.786 -0.0542  0.1415  0.0406
 2321W        W18130  13.276  14.205   0.826 -0.1552  0.1960  0.1750
 2322W        W18131  11.600   5.723  13.514 -0.0943 -0.2098  0.3720
 2323W        W18132  17.679   2.639   5.257  0.2134  0.0792  0.0284
 2324W        W18133   7.881   2.646  10.196 -0.3124 -0.0172  0.2145
 2325W        W18134   5.554   2.114  14.569 -0.0969  0.0794 -0.0913
 2326W        W18135   8.917   8.328  15.636  0.0628  0.0497  0.0342
 2327W        W18136   0.411   9.872  13.332 -0.1262  0.0830 -0.2141
 2328W        W18137  11.139   2.102  14.588  0.0266  0.0265  0.2416
 2329W        W18138  16.928   0.447  11.846  0.2564 -0.1269  0.1660
 2330W        W18139  11.136  16.603  14.218 -0.1942  0.0760  0.0371
 2331W        W18140   0.712   1.380  13.621  0.2324 -0.0600  0.0173
 2332W        W18141  11.787   4.931   0.524  0.0939 -0.1960 -0.0023
 2333W        W18142  10.115  14.272   2.803  0.3017 -0.1319  0.1468
 2334W        W18143   5.016  12.929   0.801  0.1517 -0.1437 -0.2772
 2335W        W18144   8.681   2.822   4.971  0.0634  0.0204 -0.0860
 2336W        W18145   0.558  11.830   0.422  0.1557 -0.0544 -0.1385
 2337W        W18146  10.080   6.206  13.364 -0.0196 -0.0531  0.0680
 2338W        W18147   2.429  16.657   2.152 -0.1260 -0.3105  0.0097
 2339W        W18148   2.763   5.695   0.992 -0.0880  0.0789 -0.1371
 2340W        W18149   5.797  11.071   9.959 -0.0244 -0.1205 -0.1236
 2341W        W18150   5.549   6.001  13.785 -0.0711  0.2661  0.0636
 2342W        W18151  17.808  14.908  15.413  0.0234  0.0707  0.0344
 2343W        W18152  10.393   9.104  14.899 -0.2722  0.1060  0.0330
 2344W        W18153   7.579   4.081  11.069  0.2229  0.0563  0.4007
 2345W        W18154  15.689  13.742   3.626  0.1969 -0.0268  0.0429
 2346W        W18155   3.007   0.366  14.751 -0.1562 -0.0180 -0.0731
 2347W        W18156   7.542  16.032   0.408 -0.0337  0.0854 -0.0502
 2348W        W18157  16.185  12.729  11.998 -0.2529  0.0533 -0.1149
 2349W        W18158   6.017  11.319   2.172 -0.0320 -0.0614 -0.3153
 2350W        W18159   3.271  12.811   5.587 -0.0327 -0.0608 -0.0537
 2351W        W18160   4.720  14.088   4.421  0.0838 -0.2637 -0.3334
 2352W        W18161  10.907   3.553  11.445 -0.0461 -0.1021  0.0645
 2353W        W18162   7.316  15.278   4.801  0.0771 -0.3650  0.0605
 2354W        W18163  11.053  17.938   1.913  0.1544 -0.2783  0.0114
 2355W        W18164   7.599   1.907   5.605 -0.2101 -0.1554  0.2269
 2356W        W18165   8.867   2.040   2.534 -0.0382 -0.0550  0.4497
 2357W        W18166  12.425  14.681   0.313 -0.0607  0.1301 -0.1473
 2358W        W18167  12.280   1.853   0.380  0.0517  0.2137  0.2747
 2359W        W18168  17.758   4.621   4.964 -0.2524 -0.0222 -0.1666
 2360W        W18169  17.837  14.826   4.641 -0.0711 -0.0013 -0.1906
 2361W        W18170   3.591  18.180  10.774 -0.2208  0.1826 -0.1182
 2362W        W18171   5.683   4.855  15.677  0.1251  0.0114 -0.0862
 2363W        W18172  18.042   7.204   3.803  0.0934 -0.3500 -0.0550
 2364W        W18173   9.759  17.926  15.223 -0.0509  0.2297 -0.1692
 2365W        W18174  15.199  17.380   2.788  0.1823  0.1281  0.1373
 2366W        W18175   3.023  13.884   3.353 -0.1703  0.3883  0.1704
 2367W        W18176   4.512  15.610   5.581  0.1250  0.0490  0.2626
 2368W        W18177   6.035  14.153  11.353 -0.1086 -0.0225 -0.2779
 2369W        W18178  16.872  10.998  12.491  0.1125  0.0588 -0.0530
 2370W        W18179  15.339  12.846   1.932  0.2134 -0.1556 -0.0855
 2371W        W18180  15.766  14.438   2.115 -0.3720  0.0343 -0.1956
 2372W        W18181  12.359   8.636  13.436  0.0317 -0.0258 -0.2030
 2373W        W18182  14.865   8.816  10.957  0.0963  0.5904 -0.1048
 2374W        W18183   1.936   3.378  14.532 -0.1975  0.2958 -0.3853
 2375W        W18184   8.442   5.580  11.017 -0.0263  0.1486  0.0536
 2376W        W18185   6.163   5.368  15.349 -0.1396  0.0407 -0.1917
 2377W        W18186  16.481   8.545  15.868 -0.0725  0.0107  0.1866
 2378W        W18187  18.129  11.459  14.633  0.0075 -0.0809  0.1041
 2379W        W18188  15.403   7.949   3.421  0.1752 -0.2177 -0.1213
 2380W        W18189  11.977   1.893  14.418  0.1031  0.1930  0.0363
 2381W        W18190   8.430   2.262   4.420 -0.0115 -0.2982 -0.1921
 2382W        W18191  13.235   2.958  12.784  0.1842 -0.1486  0.2032
 2383W        W18192   8.685   9.445  13.997  0.0802 -0.0357 -0.3370
 2384W        W18193   1.140   7.438  15.118  0.0227 -0.0755 -0.2561
 2385W        W18194   2.721  14.161  14.991  0.0943  0.1559 -0.1186
 2386W        W18195  15.626  18.063  12.717  0.0020 -0.2183 -0.0150
 2387W        W18196   5.889  16.283   0.463 -0.0508 -0.0129 -0.1503
 2388W        W18197   1.819   2.761  12.536 -0.1192  0.4818 -0.3474
 2389W        W18198  12.811   8.895  15.773 -0.0716  0.1405 -0.0321
 2390W        W18199  12.720  10.943  12.720 -0.1056  0.1231 -0.1412
 2391W        W18200   5.939   8.448   4.276  0.1755 -0.1440 -0.1854
 2392W        W18201  16.990   9.004   3.333 -0.2771 -0.0521 -0.0285
 2393W        W18202   5.380   0.661  14.747  0.2682  0.2307 -0.1128
 2394W        W18203  14.132   8.312   2.258  0.1015 -0.0360  0.1299
 2395W        W18204   8.836  12.056   4.370 -0.2855  0.2224 -0.2419
 2396W        W18205  10.415  17.474  11.069 -0.0785  0.1001  0.1500
 2397W        W18206   0.581  10.755  13.584  0.1331  0.1436 -0.0742
 2398W        W18207   7.061  14.070  15.674  0.1881 -0.1515 -0.2222
 2399W        W18208   7.365   6.676  14.139  0.1294 -0.0951 -0.0722
 2400W        W18209   3.887   3.112  11.737  0.1374 -0.0141 -0.1662
 2401W        W18210  16.292   6.018  11.143  0.0032 -0.0665  0.2494
 2402W        W18211   2.768  11.065   5.190 -0.3170 -0.0986 -0.1109
 2403W        W18212  10.044  18.061  14.822 -0.3799 -0.0563 -0.0299
 2404W        W18213   1.213   4.668  10.296 -0.2635  0.2928 -0.1510
 2405W        W18214   6.387   0.708   3.875  0.2703 -0.0387 -0.0219
 2406W        W18215   2.196   4.253   0.996 -0.3048  0.3575 -0.1414
 2407W        W18216  10.935  10.869  11.041 -0.2535 -0.0001 -0.3809
 2408W        W18217  11.160   4.594   1.286  0.0983 -0.3764  0.3606
 2409W        W18218   4.936  14.519   2.861 -0.2171 -0.1019 -0.2309
 2410W        W18219  16.566  13.933  12.249  0.2494  0.0026  0.1827
 2411W        W18220  11.695   8.028  13.377  0.2182 -0.1728  0.0705
 2412W        W18221   1.047   3.883   3.598 -0.2479  0.2014  0.3134
 2413W        W18222  10.942  10.832   1.231 -0.0827 -0.3873 -0.0314
 2414W        W18223  13.523  18.037  15.063  0.1642  0.1041 -0.0561
 2415W        W18224   1.950   8.000  10.798  0.0612  0.0140  0.1538
 2416W        W18225  11.357  15.997   3.067  0.1900  0.0376  0.0709
 2417W        W18226   6.692  13.032  11.820  0.2224  0.0622 -0.2918
 2418W        W18227   0.882  11.220  12.375 -0.1424  0.3525  0.0515
 2419W        W18228   1.507   4.071   3.768 -0.0381 -0.0670 -0.0833
 2420W        W18229   4.283  16.280  13.265 -0.0027 -0.1911  0.1086
 2421W        W18230  11.604   8.519  11.050  0.0515  0.2676 -0.0859
 2422W        W18231  13.135  17.120   2.779 -0.1789 -0.1872 -0.0474
 2423W        W18232  11.241   8.290   4.271  0.0154 -0.0396 -0.2817
 2424W        W18233  14.540  13.686  10.576 -0.1481  0.1607  0.0035
 2425W        W18234  17.888   1.465  12.706  0.2028  0.1301  0.2412
 2426W        W18235   1.501  13.765   1.582 -0.1789 -0.1522 -0.3335
 2427W        W18236   5.691   2.313   0.921  0.1703 -0.0127  0.1554
 2428W        W18237   6.089   8.847   4.523  0.1537 -0.4238  0.1642
 2429W        W18238   0.672   5.152   5.215  0.3655 -0.0116 -0.0763
 2430W        W18239  15.837  12.065   1.833  0.4024  0.1940 -0.0515
 2431W        W18240  14.427   6.856   2.995 -0.0542  0.3067  0.1069
 2432W        W18241  12.271   3.815   3.815  0.0839  0.2322 -0.0117
 2433W        W18242  17.072   8.033  15.957 -0.1755  0.1864  0.1698
 2434W        W18243   5.030  11.973   6.137 -0.1233  0.0171  0.2558
 2435W        W18244   0.736  16.971  13.607 -0.3572 -0.2352 -0.1199
 2436W        W18245  13.763   4.146   5.677  0.3205  0.0857 -0.2521
 2437W        W18246  14.891   6.088   0.237 -0.1701 -0.2074 -0.0164
 2438W        W18247   6.225  12.627   2.513  0.1320 -0.1341 -0.1632
 2439W        W18248   1.126  15.975   4.164 -0.0023 -0.1752  0.0846
 2440W        W18249  16.105  10.732   2.025  0.0165  0.0371 -0.1872
 2441W        W18250  17.007  12.543  13.524  0.0163 -0.0034  0.1476
 2442W        W18251  11.774   5.288  14.049  0.2364  0.0272  0.0901
 2443W        W18252   0.170   2.441   0.603 -0.2878 -0.1208  0.3202
 2444W        W18253   6.986  11.422  12.683  0.2290  0.1774 -0.0329
 2445W        W18254   8.554  12.952  15.548  0.0836 -0.1208 -0.1442
 2446W        W18255   9.392  14.671  14.962  0.0895 -0.1713  0.2193
 2447W        W18256  12.098  14.309   4.322 -0.1636  0.4049  0.1938
 2448W        W18257  15.071   5.539  13.622  0.1324  0.0999  0.1448
 2449W        W18258   4.753  12.120   1.979 -0.2407  0.1658  0.2055
 2450W        W18259  11.428   7.304   3.913 -0.0630  0.0195 -0.1581
 2451W        W18260  13.099   0.830   1.342 -0.2754  0.2066  0.2297
 2452W        W18261   6.724   7.826   4.430 -0.0458 -0.2284  0.1198
 2453W        W18262  12.854   8.694  13.590 -0.2218 -0.1215 -0.2647
 2454W        W18263  10.293  15.775  11.062 -0.0160  0.3083  0.1572
 2455W        W18264  16.335  16.254  13.566 -0.2004  0.3323 -0.1471
 2456W        W18265  14.791   5.567   2.770 -0.1372 -0.1222  0.1422
 2457W        W18266   2.968   3.252   1.190  0.0762  0.1154  0.0318
 2458W        W18267   9.871   0.642  13.377 -0.0250 -0.0948  0.0631
 2459W        W18268  16.612   6.267   4.354 -0.0942 -0.1919 -0.3004
 2460W        W18269   9.727  14.547   2.021  0.1643  0.0707  0.1192
 2461W        W18270  10.878  12.759   3.146 -0.0287 -0.1509 -0.1793
 2462W        W18271   3.033   4.043   5.698 -0.4820 -0.0873  0.2506
 2463W        W18272  14.266  18.258  13.339  0.0818 -0.1033 -0.1713
 2464W        W18273  11.535  12.674  11.428  0.0942  0.2396  0.0600
 2465W        W18274  14.442  11.250   3.221  0.1162  0.0062  0.1321
 2466W        W18275   2.484   2.765   0.423 -0.2435 -0.0449 -0.1414
 2467W        W18276   0.219   2.329   5.374 -0.1022 -0.1199 -0.0444
 2468W        W18277   9.586   0.000  14.853 -0.1335 -0.1143  0.0906
 2469W        W18278   4.839  16.348   2.911  0.1576 -0.3360 -0.0503
 2470W        W18279  11.818   9.807   3.061 -0.2607  0.0451 -0.2823
 2471W        W18280   1.666   7.162  11.105 -0.2323 -0.0654 -0.2063
 2472W        W18281   8.367   5.844   0.297  0.3877  0.1352  0.0944
 2473W        W18282   3.357   5.947   2.623  0.1499  0.1117  0.0799
 2474W        W18283   2.805   2.494  11.827 -0.2609  0.2540  0.3766
 2475W        W18284  11.942  12.223  15.271 -0.1159 -0.1444 -0.0711
 2476W        W18285  10.300   0.675  13.146 -0.2899  0.3251 -0.0692
 2477W        W18286   6.329  15.432   2.159 -0.0810  0.2055  0.1060
 2478W        W18287  17.970   5.206   0.314 -0.0837 -0.0918 -0.1791
 2479W        W18288   1.554  10.108  14.979  0.3128  0.1253  0.0372
 2480W        W18289   2.378   4.789  14.001 -0.2380 -0.2515 -0.4232
 2481W        W18290   1.807   8.397  11.632 -0.1363  0.2276  0.0259
 2482W        W18291  11.835   3.107   0.554  0.0829  0.2146 -0.1220
 2483W        W18292  10.453  17.470  14.605 -0.0484  0.0729  0.1905
 2484W        W18293   8.666  16.568  15.328  0.0440 -0.1564 -0.2307
 2485W        W18294   8.580   6.522  14.831 -0.1206 -0.1471 -0.0605
 2486W        W18295   6.289   6.206   9.710 -0.3727  0.0533  0.0189
 2487W        W18296  16.005   7.293   1.873 -0.0735 -0.2848  0.2094
 2488W        W18297  15.526   4.901  14.523 -0.0947 -0.2929  0.1035
 2489W        W18298   8.206   8.462  11.053  0.0041 -0.3015 -0.0541
 2490W        W18299   3.447   6.135  15.939  0.0640 -0.3289 -0.3565
 2491W        W18300  11.972   0.937   5.648 -0.3468  0.1092  0.2591
 2492W        W18301   9.916  11.093  12.794  0.1342  0.0367 -0.3254
 2493W        W18302  15.927  11.137  14.063  0.1442 -0.0137  0.2654
 2494W        W18303   1.300  18.097   2.549 -0.1362 -0.2669  0.2161
 2495W        W18304   4.391   7.708   5.385  0.1356  0.2075  0.3694
 2496W        W18305   7.427  14.559  13.049 -0.1255  0.2161  0.2994
 2497W        W18306   9.480  13.525   0.508 -0.0771 -0.1919  0.1753
 2498W        W18307   5.194  12.581   3.127  0.0736  0.0411  0.1219
 2499W        W18308  14.561  15.124   4.030 -0.1544 -0.2428 -0.1363
 2500W        W18309   3.107   6.322   4.068  0.3289  0.3182  0.2796
 2501W        W18310  13.444  10.335  13.962  0.2520  0.1627 -0.0357
 2502W        W18311   4.589   0.756  15.347  0.1987 -0.1494  0.2743
 2503W        W18312   7.258  18.128  13.556 -0.0818  0.0847 -0.1607
 2504W        W18313  10.719   6.478  15.165  0.1897 -0.4283 -0.1174
 2505W        W18314   0.093   3.562   3.069  0.0224 -0.0907 -0.0007
 2506W        W18315  14.035   9.793   0.608  0.2768  0.2378 -0.0727
 2507W        W18316   7.683  14.341   5.017 -0.0175 -0.0411 -0.0097
 2508W        W18317   1.114   5.754   3.169 -0.2715 -0.0805 -0.0026
 2509W        W18318   7.067   7.989  11.049  0.0039 -0.1715  0.1201
 2510W        W18319   0.535   4.818  13.875 -0.1275  0.1125  0.0773
 2511W        W18320  13.589  11.741   0.889  0.3378 -0.0644 -0.1682
 2512W        W18321  15.248  10.776   2.571  0.0308 -0.3020  0.2197
 2513W        W18322   5.343   9.154  15.932  0.0280 -0.1990 -0.0859
 2514W        W18323  14.416  13.117  15.948 -0.0076 -0.1289  0.0530
 2515W        W18324   7.594   4.611  14.578  0.3410 -0.0573  0.0282
 2516W        W18325   1.967   7.271   6.126  0.0058 -0.2988  0.0481
 2517W        W18326  12.386  13.506   1.631  0.0406 -0.0898 -0.0832
 2518W        W18327   1.309   5.234   2.296  0.0367 -0.2522  0.3876
 2519W        W18328   8.430   4.059   2.100 -0.1137 -0.2753 -0.3641
 2520W        W18329   3.441  13.860   0.532  0.3232  0.0863 -0.2449
 2521W        W18330  15.368   5.823  11.692 -0.1879  0.0111  0.3051
 2522W        W18331   5.297   9.370  12.043  0.1398 -0.3318  0.1356
 2523W        W18332   7.832   4.028  14.050  0.4150  0.0421  0.0112
 2524W        W18333   0.386  15.850  11.366 -0.0647 -0.0333 -0.3145
 2525W        W18334  14.126   2.114  10.288  0.1267  0.2038  0.1366
 2526W        W18335  18.035  14.346   4.637 -0.0799 -0.0596 -0.4927
 2527W        W18336   5.203   9.261  14.154 -0.1687  0.2394 -0.0316
 2528W        W18337   9.399  15.710   0.677 -0.2451 -0.1849  0.0673
 2529W        W18338  15.255   7.053   3.590 -0.1816  0.1101  0.0091
 2530W        W18339  17.838  14.713  12.721 -0.1778 -0.1472 -0.1006
 2531W        W18340  14.575   6.622  12.503 -0.0164 -0.1251 -0.0069
 2532W        W18341  16.379  14.593  11.256 -0.0334 -0.3840 -0.0537
 2533W        W18342   3.894  17.912  14.749  0.0672  0.0340  0.1380
 2534W        W18343   2.476   8.930  10.621  0.0107 -0.3010 -0.0654
 2535W        W18344   4.168   4.751   4.089 -0.0617  0.1252  0.1371
 2536W        W18345  17.363  13.580  11.139 -0.0055 -0.3106 -0.1203
 2537W        W18346   3.152  16.375  13.804 -0.3853  0.0222  0.0987
 2538W        W18347   2.085  11.025  15.498 -0.2405 -0.1252 -0.0904
 2539W        W18348   0.174   7.445   3.605 -0.3729  0.2875  0.2692
 2540W        W18349  15.296   1.838   0.716  0.0033 -0.0847 -0.1912
 2541W        W18350  10.319   2.563   0.402  0.0402  0.0904 -0.0161
 2542W        W18351   1.297   3.464   1.270  0.1194 -0.0774  0.1919
 2543W        W18352   9.538   7.808  15.076  0.0495 -0.0737  0.1851
 2544W        W18353  16.703   0.586   0.159  0.3513  0.0203 -0.1058
 2545W        W18354  14.002  12.316  12.568  0.1251 -0.0777  0.1110
 2546W        W18355   2.647   9.564   3.617  0.1524  0.1276 -0.2065
 2547W        W18356   9.200  10.539  11.425  0.3518  0.1704  0.3126
 2548W        W18357  16.897   2.467   1.179  0.1923  0.3405  0.2204
 2549W        W18358  15.093  14.238   1.000 -0.2772  0.2357  0.0655
 2550W        W18359  14.869   6.178   3.259  0.1464  0.1321  0.1512
 2551W        W18360  10.269   2.649  12.237  0.2974 -0.2223  0.0661
 2552W        W18361  15.380   6.992  11.925  0.2015  0.2225  0.1614
 2553W        W18362   2.653  11.029  11.085  0.0143  0.1601  0.1802
 2554W        W18363   2.891  10.005   0.101  0.1497  0.0059 -0.2445
 2555W        W18364   9.842   9.859  15.335 -0.0776  0.0475 -0.0693
 2556W        W18365   6.820  10.083  12.802  0.1872 -0.1665  0.0563
 2557W        W18366  11.289  10.864  12.334 -0.1541 -0.4462  0.4110
 2558W        W18367   6.632  17.420  15.618  0.0071  0.1042  0.3567
 2559W        W18368   2.396   6.476  11.162  0.3048  0.0717  0.0798
 2560W        W18369  17.590   2.740  13.382 -0.0184  0.3537  0.0892
 2561W        W18370   0.624  15.293   1.808  0.0818  0.2047  0.1157
 2562W        W18371   2.838  11.272  15.890  0.0274  0.0596  0.2691
 2563W        W18372   6.203  10.396  13.399  0.1562  0.1674  0.1511
 2564W        W18373  14.238   3.307   4.384 -0.0139  0.1034  0.0096
 2565W        W18374   2.053   8.925  14.868  0.1814 -0.0578  0.0255
 2566W        W18375  13.932   3.402  13.812  0.0413 -0.0095 -0.0754
 2567W        W18376   3.962  13.496   3.021 -0.0475 -0.0364 -0.1213
 2568W        W18377   2.266  17.989  14.302  0.1656  0.1690  0.1993
 2569W        W18378  14.969  14.694   5.055  0.0929 -0.2473 -0.1128
 2570W        W18379  12.044  10.690   5.127 -0.0614 -0.0476  0.1597
 2571W        W18380  17.727  17.854  14.169  0.1327  0.1167 -0.1184
 2572W        W18381   6.920  17.933  11.999  0.0238 -0.2711 -0.1203
 2573W        W18382   5.381   8.955   5.817  0.0904 -0.4348  0.3606
 2574W        W18383   8.808  16.185   5.532  0.0322  0.0781 -0.0740
 2575W        W18384  15.662  15.876  15.622 -0.1011 -0.2196  0.1418
 2576W        W18385   9.241   4.262   3.732  0.0526 -0.1927  0.1778
 2577W        W18386  11.017  15.821  12.760 -0.0154  0.1079 -0.0393
 2578W        W18387  16.388  16.813   2.811  0.1067  0.0578 -0.1409
 2579W        W18388   2.969   1.648   2.516  0.2882  0.0237 -0.0072
 2580W        W18389   6.161  11.785   2.338 -0.1950  0.0477  0.0072
 2581W        W18390   2.340  12.758   0.012 -0.1040  0.1530 -0.2083
 2582W        W18391   5.187   2.437   1.092 -0.0325  0.2015 -0.0568
 2583W        W18392   6.331   0.977  11.079  0.2368 -0.1362  0.0056
 2584W        W18393   1.422   6.375   5.422  0.0823 -0.2300 -0.0619
 2585W        W18394  13.620  11.664  14.827  0.0091 -0.0310  0.0943
 2586W        W18395   3.132   2.733  14.954 -0.0595  0.1308 -0.0532
 2587W        W18396  11.475   9.207   3.795  0.5345  0.0937  0.1459
 2588W        W18397   9.688   6.844   1.485  0.1165 -0.1301  0.2298
 2589W        W18398   6.948  16.984  11.119 -0.2688  0.2148  0.1310
 2590W        W18399  11.137   3.913   1.385  0.0940  0.0388 -0.0038
 2591W        W18400   2.440   5.221  13.702  0.4418  0.1367  0.2180
 2592W        W18401   5.086   9.436  14.730 -0.1963 -0.1449 -0.1493
 2593W        W18402  10.495   1.172  15.131  0.1377 -0.2187  0.2666
 2594W        W18403  16.022   4.312   1.997 -0.1789 -0.0743  0.0934
 2595W        W18404  10.424  14.448   1.390  0.1555 -0.1041  0.1072
 2596W        W18405   5.558   1.290  14.146 -0.0134  0.0649  0.1355
 2597W        W18406   9.256   9.672   3.676  0.3270  0.0468  0.4035
 2598W        W18407  15.734   8.779  13.393  0.3744 -0.0886 -0.0363
 2599W        W18408  12.157   3.422  15.785 -0.2990  0.1185 -0.2757
 2600W        W18409  13.520  15.319  12.369 -0.0429  0.2781  0.3175
 2601W        W18410  14.882   1.615   0.819  0.0812 -0.1368  0.3499
 2602W        W18411   2.889   2.750   4.288  0.1952  0.3916  0.1187
 2603W        W18412   9.770   5.812   0.286  0.3236  0.2322 -0.2692
 2604W        W18413  14.311  12.418   1.750 -0.2437  0.2788  0.2319
 2605W        W18414  13.412   0.293  14.330  0.1215  0.0636  0.3202
 2606W        W18415   2.870  14.544   4.595 -0.0909 -0.0434 -0.1449
 2607W        W18416   3.656  10.828   0.281 -0.0745  0.0458  0.2764
 2608W        W18417  13.691   4.514   3.941 -0.1599  0.1211 -0.2561
 2609W        W18418   1.880  15.187  14.204  0.3857 -0.0219  0.0368
 2610W        W18419  15.566  17.854   3.195 -0.0237 -0.0600 -0.0441
 2611W        W18420   0.757  10.479   2.267  0.2285 -0.2021 -0.0535
 2612W        W18421   2.038  11.142   0.987 -0.0871  0.2383  0.3160
 2613W        W18422  17.698   0.575   2.983  0.0923 -0.1476 -0.0647
 2614W        W18423   7.485   0.007  11.906  0.2817 -0.4277 -0.1634
 2615W        W18424   8.119  16.261  12.294  0.3003  0.1358  0.1413
 2616W        W18425   8.206   9.711   5.747  0.2275  0.0482 -0.1986
 2617W        W18426   5.185   5.517  15.488  0.1525 -0.0952  0.0186
 2618W        W18427  16.776  15.792   4.992 -0.0372  0.3811  0.0041
 2619W        W18428   5.683   3.899  12.072 -0.1179 -0.1554 -0.1344
 2620W        W18429   9.998  10.361   0.209 -0.3219 -0.2692  0.1101
 2621W        W18430   1.058   6.404  12.314  0.1193  0.1124  0.0433
 2622W        W18431  13.125  12.937  12.503  0.1425  0.0311 -0.2268
 2623W        W18432  13.996  10.285   4.822  0.0772  0.0755 -0.2818
 2624W        W18433   4.904   4.712   2.017 -0.1038  0.0314 -0.2203
 2625W        W18434   0.299   4.346   1.780 -0.3707 -0.0078  0.0655
 2626W        W18435  13.509   8.929   6.069 -0.0224  0.0447 -0.1832
 2627W        W18436  15.599   7.377  13.358  0.1515 -0.1601  0.0192
 2628W        W18437   9.042   9.016  15.720  0.4806 -0.2256  0.1249
 2629W        W18438   5.726  13.039   1.733  0.3816 -0.0513  0.0773
 2630W        W18439  12.795   0.983  14.956 -0.2607 -0.3016  0.0508
 2631W        W18440   6.063   8.468  15.319  0.2855 -0.0545  0.1388
 2632W        W18441  11.757  16.018   0.722  0.2297 -0.3370 -0.2672
 2633W        W18442  17.748   3.584  13.408 -0.1595 -0.0859 -0.0821
 2634W        W18443   6.005   3.235  14.737 -0.0597 -0.1661 -0.0586
 2635W        W18444   0.428  16.860  13.942  0.3141 -0.1136  0.0243
 2636W        W18445   0.176   7.933  10.458  0.0894 -0.0842  0.1282
 2637W        W18446  16.392   6.113   0.794 -0.1092  0.4307 -0.0094
 2638W        W18447   2.931   3.174  14.731 -0.1931 -0.3683 -0.1731
 2639W        W18448   4.394   6.437   1.421  0.0314 -0.1960 -0.0694
 2640W        W18449  14.956  10.559   0.742 -0.0797 -0.1242  0.1005
 2641W        W18450  14.564   6.969   4.532 -0.2908  0.3215 -0.2377
 2642W        W18451  17.629  11.300   5.542  0.1283  0.1785 -0.1731
 2643W        W18452  12.388   7.933   3.005 -0.1965 -0.2018 -0.1683
 2644W        W18453   0.676   0.011  14.053  0.0052 -0.1684  0.0874
 2645W        W18454  13.655  18.010   2.096  0.0981  0.1836 -0.1230
 2646W        W18455   7.798   9.405   4.096  0.3232  0.1535  0.0120
 2647W        W18456   3.404  12.386  11.711 -0.0810  0.0870 -0.0176
 2648W        W18457   4.290  12.549   1.055  0.0708 -0.1901  0.1741
 2649W        W18458   7.406  15.487  11.676 -0.1258 -0.2215  0.4131
 2650W        W18459   4.679   2.550  11.854 -0.1233  0.2070  0.3189
 2651W        W18460   0.716  15.510   5.774  0.1618 -0.1665  0.0901
 2652W        W18461  14.080   0.244  12.166 -0.0599 -0.1372  0.1244
 2653W        W18462   9.524  10.789  12.846 -0.0437  0.1289  0.2061
 2654W        W18463   1.664   2.515  14.745  0.0998 -0.2444 -0.2667
 2655W        W18464   6.759   3.567  14.270  0.0586 -0.1350  0.2388
 2656W        W18465   2.882   0.794   2.924 -0.2034 -0.0468 -0.1073
 2657W        W18466  12.888  14.552   1.758 -0.1389 -0.0026 -0.2754
 2658W        W18467  13.621   9.618  14.120 -0.1891  0.0378 -0.1165
 2659W        W18468  12.355  17.638   4.743  0.1079  0.2235 -0.2286
 2660W        W18469  13.873   7.581   3.402  0.3079 -0.0163  0.0297
 2661W        W18470   8.833  13.684   5.131 -0.0341 -0.0812 -0.0705
 2662W        W18471   4.286  15.890   3.971 -0.0163  0.0497 -0.1422
 2663W        W18472  16.634  10.126   0.115 -0.0556 -0.3166  0.1526
 2664W        W18473   2.470   5.446  11.376 -0.0376 -0.0246  0.3619
 2665W        W18474  10.159  12.317  13.909  0.4310  0.0143 -0.2898
 2666W        W18475   6.018  14.455  14.324 -0.4377 -0.1384 -0.0073
 2667W        W18476   6.062  11.931   4.349 -0.0116 -0.1692 -0.1590
 2668W        W18477  14.944  17.336  16.038  0.1460 -0.3371  0.1336
 2669W        W18478   4.521  14.721   2.554 -0.1386  0.2947 -0.1281
 2670W        W18479   6.928  11.320   2.636  0.0950 -0.0418  0.1692
 2671W        W18480   7.414   4.107   4.079  0.0231  0.1548  0.1517
 2672W        W18481   6.700  12.326   3.985  0.0215 -0.1881 -0.0673
 2673W        W18482  10.549   0.442   2.784 -0.0978  0.2502 -0.0090
 2674W        W18483  10.033   8.010   2.649  0.0336  0.0219 -0.4129
 2675W        W18484   8.945  17.483   1.671 -0.0455  0.0141  0.0634
 2676W        W18485   0.751  15.728  13.125 -0.1815 -0.0167  0.2300
 2677W        W18486  10.291  15.689   2.678  0.1518 -0.0102  0.0223
 2678W        W18487  16.317   7.811   0.306 -0.0442  0.2841  0.1819
 2679W        W18488  14.789   7.330   3.126 -0.1673  0.3120 -0.3023
 2680W        W18489  14.107   3.819   1.579  0.1683 -0.3761  0.0004
 2681W        W18490   4.951   7.024   1.100  0.3024  0.2209 -0.1933
 2682W        W18491  17.057  10.914  11.684 -0.3191  0.3473 -0.0857
 2683W        W18492  17.036   5.635  11.600  0.2764 -0.1085  0.1048
 2684W        W18493   6.774  12.088   3.044  0.1513  0.0606 -0.1513
 2685W        W18494   0.717   2.905  14.685 -0.0174  0.2780 -0.2848
 2686W        W18495   2.784  17.365   4.163  0.3314 -0.0738 -0.3622
 2687W        W18496  11.974   2.252  14.776 -0.0374 -0.0499  0.0014
 2688W        W18497  10.155  11.361  12.391  0.0490  0.1541  0.1099
 2689W        W18498   9.372   5.277   4.633  0.1126  0.2653 -0.0574
 2690W        W18499  14.899  12.876   2.689  0.1605  0.2669 -0.0719
 2691W        W18500  10.443   2.538  13.355  0.4548 -0.1576  0.1811
 2692W        W18501   2.872   8.769   3.909 -0.0329  0.0405 -0.3525
 2693W        W18502   9.873   5.438   5.334  0.3528 -0.0708 -0.4580
 2694W        W18503   1.721   8.251  12.594  0.0538  0.2422 -0.1207
 2695W        W18504   6.356   4.517  12.703 -0.2814  0.1866 -0.0053
 2696W        W18505   0.259  12.387  11.842  0.1500 -0.1257 -0.0900
 2697W        W18506   8.943   0.878   3.175  0.0692 -0.0570  0.0745
 2698W        W18507  14.946   9.889  11.211 -0.1587  0.0994 -0.1778
 2699W        W18508   7.889   6.476   1.214 -0.0594 -0.0365  0.3507
 2700W        W18509  16.732  10.062   4.425 -0.1718 -0.0653  0.1790
 2701W        W18510  10.148  14.188  10.921 -0.1347  0.1235 -0.0978
 2702W        W18511   4.600   6.869   0.324 -0.0450  0.0559 -0.1690
 2703W        W18512   1.501   0.243   4.352 -0.1272 -0.1109 -0.4507
 2704W        W18513   8.698  12.398   1.815 -0.1246 -0.2128  0.0070
 2705W        W18514  12.791   9.024   1.093  0.0563 -0.1001  0.0893
 2706W        W18515   9.508   0.876  14.221 -0.0114  0.3391 -0.1051
 2707W        W18516   4.307  12.965   1.281  0.3049  0.1178  0.0010
 2708W        W18517   5.872  14.594  12.023 -0.0951 -0.0869  0.4992
 2709W        W18518   6.871  13.448  16.039  0.3202 -0.0950  0.1620
 2710W        W18519   2.975   9.533   3.217 -0.3373 -0.1761  0.0788
 2711W        W18520   5.850   7.505   4.070  0.3260  0.0241  0.0539
 2712W        W18521  15.481  15.468   0.361 -0.3544  0.0794 -0.2512
 2713W        W18522  10.725   2.519  12.751  0.2082  0.2302  0.1369
 2714W        W18523   1.290  15.347  14.222  0.2757 -0.1871 -0.0148
 2715W        W18524   9.084  12.774   4.820  0.1024  0.0689  0.0155
 2716W        W18525   5.041   4.322  15.978 -0.1423  0.1136  0.2362
 2717W        W18526  14.847  15.315  15.304 -0.3705 -0.0590 -0.0945
 2718W        W18527   2.429   8.434   0.977  0.0344 -0.1312 -0.0917
 2719W        W18528  12.995   1.263  11.482 -0.0459  0.3029 -0.0730
 2720W        W18529  13.394   8.491  13.576 -0.3556  0.1034  0.4209
 2721W        W18530  10.860  16.536  11.533  0.1479 -0.3933  0.0411
 2722W        W18531   7.389   7.149   3.399 -0.0001  0.1149 -0.0032
 2723W        W18532  10.093   5.412  12.651  0.1664  0.1047 -0.0738
 2724W        W18533  11.539  17.921  13.949 -0.0641  0.2517 -0.1045
 2725W        W18534  17.407   5.229   3.292  0.2689  0.1419  0.1863
 2726W        W18535  17.465   2.053  13.947 -0.0831  0.2741 -0.0119
 2727W        W18536   7.746   7.777  13.619 -0.0142 -0.0581  0.0162
 2728W        W18537   2.114   5.934  14.797 -0.2246  0.4426  0.4462
 2729W        W18538  14.694   7.787  14.629  0.0855 -0.3248  0.0469
 2730W        W18539   8.740  17.738  13.849 -0.2339  0.2030  0.0892
 2731W        W18540  10.170  10.838  15.576  0.2570 -0.0799  0.0348
 2732W        W18541  12.794   8.469  11.345  0.1465 -0.0360  0.1413
 2733W        W18542   8.594   8.830   2.582 -0.1499 -0.2188  0.0875
 2734W        W18543   9.348   1.744  14.641  0.1214  0.0774 -0.0239
 2735W        W18544   7.013  14.969  12.394 -0.0930  0.2534 -0.1212
 2736W        W18545  12.987  16.662   2.729 -0.0676 -0.1386  0.0321
 2737W        W18546  13.995  13.389   1.784 -0.1700 -0.0098 -0.0746
 2738W        W18547   0.939  17.309  11.256  0.1318 -0.0550 -0.1652
 2739W        W18548  15.611   6.167  11.006  0.2782  0.0503  0.1812
 2740W        W18549   5.898  15.086   2.039  0.2147  0.1326  0.1064
 2741W        W18550   4.203  12.503  15.286  0.0024  0.1033  0.0872
 2742W        W18551   1.316   0.792   1.556 -0.1479  0.0782  0.0608
 2743W        W18552  16.785   1.701  14.542  0.1087  0.2949 -0.0488
 2744W        W18553   3.491   5.183   0.197  0.2920  0.1203  0.1750
 2745W        W18554  12.517   0.694  14.658 -0.1755  0.1057 -0.0671
 2746W        W18555  14.166  15.402   2.128  0.0472 -0.2329  0.1299
 2747W        W18556   6.743   6.292  11.733 -0.0538 -0.1632 -0.3536
 2748W        W18557   4.233   4.964   2.744  0.1591  0.3900  0.2716
 2749W        W18558   6.639  12.805   4.177  0.0473  0.0238  0.0207
 2750W        W18559   5.081   7.860   1.282 -0.1162 -0.3281 -0.5777
 2751W        W18560  13.272  10.966   5.148 -0.1679 -0.0604  0.0096
 2752W        W18561   4.433   8.207  14.248  0.0354  0.0743 -0.1992
 2753W        W18562  14.687   5.243   3.234 -0.2062  0.1939 -0.3180
 2754W        W18563   5.028  13.962   1.292 -0.3180 -0.2374 -0.0413
 2755W        W18564  18.052   7.190  12.618 -0.2558 -0.1092 -0.2565
 2756W        W18565   9.546   1.469   5.514 -0.0960  0.0866 -0.0729
 2757W        W18566   1.869   2.883   3.425 -0.0062 -0.0110  0.2735
 2758W        W18567   4.789   2.551   4.708 -0.0810  0.0197  0.2378
 2759W        W18568   7.546  15.508   2.966  0.2398 -0.2355 -0.2142
 2760W        W18569   1.954  13.969   1.436  0.2053 -0.0232  0.1245
 2761W        W18570  11.681  17.895   3.903  0.0291 -0.1269 -0.4458
 2762W        W18571  17.400   8.659   4.789  0.0939  0.0365  0.2453
 2763W        W18572  18.028   9.156  13.567  0.0843 -0.0597  0.0152
 2764W        W18573   8.434   4.629   2.192  0.0296 -0.0107  0.1373
 2765W        W18574  16.148  15.723   4.187 -0.0902  0.1058 -0.0567
 2766W        W18575  14.484   9.533  11.391 -0.0878 -0.0341  0.0999
 2767W        W18576   2.246   8.313  12.341 -0.1266  0.1484 -0.1012
 2768W        W18577   8.249  10.967   1.154 -0.2432  0.1444 -0.1017
 2769W        W18578  14.939   8.922  15.319  0.2155  0.2326 -0.2944
 2770W        W18579   3.533   0.747  11.930 -0.0928  0.0172  0.2720
 2771W        W18580   3.214  11.817   1.610 -0.0345 -0.1514 -0.0092
 2772W        W18581   4.650  18.236  13.591 -0.0615 -0.2351  0.0137
 2773W        W18582   3.704   7.980   4.802  0.2141 -0.0960  0.0556
 2774W        W18583   8.668   4.830   1.672  0.1611 -0.4194  0.4544
 2775W        W18584   8.810   9.920   1.837 -0.1048  0.2143  0.1886
 2776W        W18585   0.989   8.667   1.539 -0.0411 -0.1774  0.1235
 2777W        W18586   4.661  16.815   2.550  0.0398 -0.1384  0.0546
 2778W        W18587  13.703   3.932  13.793 -0.3385  0.2681 -0.1078
 2779W        W18588   0.885  12.470   1.721 -0.2487 -0.0061 -0.0624
 2780W        W18589   8.019   0.530   2.050 -0.0615  0.3727 -0.1730
 2781W        W18590   0.988   2.001  13.978 -0.0283  0.0471 -0.0284
 2782W        W18591   9.506  13.437  12.582  0.1189  0.6716 -0.2655
 2783W        W18592   0.230  11.928  15.493 -0.0363 -0.1749 -0.3354
 2784W        W18593  11.544   4.512  14.265 -0.3909  0.1302 -0.0440
 2785W        W18594  13.607   3.119   3.662 -0.2644  0.1353  0.2161
 2786W        W18595   6.414   2.183  13.189  0.0339 -0.1214 -0.1876
 2787W        W18596   3.048  10.599  13.649  0.2155  0.1090 -0.1150
 2788W        W18597  15.716   6.878   1.799  0.0988  0.3577  0.0793
 2789W        W18598   3.657  10.745   5.584  0.4046 -0.0954  0.0145
 2790W        W18599   0.806  14.564  10.623  0.0322 -0.1976  0.1462
 2791W        W18600   6.583  15.635   3.099 -0.2029  0.1511  0.1476
 2792W        W18601   1.096   2.067   0.026 -0.2924 -0.1127 -0.0542
 2793W        W18602   3.238   5.429   2.308 -0.1456 -0.1885 -0.0830
 2794W        W18603   7.880   2.070   3.644 -0.1015  0.1206  0.1019
 2795W        W18604   0.461   6.658   1.739  0.1120  0.1799  0.1249
 2796W        W18605   6.538  10.040  13.550  0.1050 -0.0973  0.2130
 2797W        W18606  14.859   4.744  14.936 -0.0086  0.1620 -0.1020
 2798W        W18607  15.065  10.739  15.837  0.0373  0.2857 -0.0532
 2799W        W18608  16.867   2.432  15.801  0.0156 -0.1169  0.0180
 2800W        W18609  11.064  12.321   3.395 -0.0724  0.0375 -0.0877
 2801W        W18610   9.566  15.531   0.130 -0.0737 -0.2287  0.2744
 2802W        W18611  15.959   4.431  15.197  0.1428  0.2086 -0.1183
 2803W        W18612  11.806   6.136   4.565  0.0027 -0.3439 -0.1021
 2804W        W18613  11.996   4.038   0.313 -0.2609 -0.3196 -0.0096
 2805W        W18614  12.765  15.400  12.639  0.1325  0.3478 -0.1399
 2806W        W18615   3.412   5.171  11.468  0.0002  0.0341  0.0740
 2807W        W18616   5.997   2.931   2.686  0.1445  0.0249  0.0722
 2808W        W18617  13.111   0.247  10.392 -0.1730 -0.0108 -0.0888
 2809W        W18618  15.673   1.614   0.525  0.0346 -0.1914 -0.1217
 2810W        W18619   0.213   8.059   2.091 -0.0490 -0.2173 -0.0833
 2811W        W18620  17.116   5.175  13.392  0.2867 -0.2097 -0.1725
 2812W        W18621   9.028   5.585  14.803 -0.1215 -0.1614 -0.0894
 2813W        W18622   3.201  12.086   2.044 -0.2091  0.2756  0.0813
 2814W        W18623  14.204   9.268   3.761 -0.3493 -0.2324  0.0187
 2815W        W18624  12.195   9.875  14.043  0.2921 -0.0020 -0.2366
 2816W        W18625  11.744  11.834  11.504 -0.0824 -0.1623  0.1428
 2817W        W18626   5.603   3.845   5.450  0.0466 -0.0669  0.1262
 2818W        W18627  13.150   4.656   1.805 -0.1597 -0.2153 -0.1173
 2819W        W18628  17.437  11.352  15.531  0.4013  0.1328  0.4161
 2820W        W18629   7.183  12.597  13.361 -0.2940  0.0541  0.0454
 2821W        W18630  12.302  16.715   2.202  0.2005  0.3857  0.0623
 2822W        W18631   5.359   1.233   1.927 -0.0039  0.0865  0.0087
 2823W        W18632   7.143   7.852   4.158  0.1094  0.0195 -0.2955
 2824W        W18633   7.362  14.051   2.521 -0.0623 -0.0806 -0.0626
 2825W        W18634   9.610   5.684   1.128  0.1632 -0.2466 -0.1218
 2826W        W18635   9.907  10.000  15.838 -0.1544 -0.0135  0.0701
 2827W        W18636  13.782  14.638  14.548 -0.5026 -0.2988 -0.0688
 2828W        W18637   7.516   8.683   1.751 -0.0580  0.0900  0.1131
 2829W        W18638   1.931  14.257  14.649  0.0317  0.3318 -0.2779
 2830W        W18639   0.884   9.301   5.797 -0.0481 -0.1523 -0.3624
 2831W        W18640  15.572   5.735  15.663  0.1488  0.1361  0.2818
 2832W        W18641   4.825   7.087   2.853  0.0918 -0.1193  0.0357
 2833W        W18642   0.918   8.114  12.948  0.0388 -0.1073 -0.0916
 2834W        W18643   2.182   5.943   4.976  0.1186 -0.1084  0.0666
 2835W        W18644  17.292   1.289   4.396 -0.0783  0.1605  0.0857
 2836W        W18645  14.764  10.838  15.353 -0.0151 -0.0401  0.1673
 2837W        W18646  15.161   5.906   4.702  0.0772  0.0728  0.1102
 2838W        W18647  11.605   8.257  12.013 -0.2005 -0.1255  0.1264
 2839W        W18648   9.024   9.272  13.675  0.0828 -0.1446  0.1394
 2840W        W18649   6.951   9.047  13.656  0.1979 -0.0905  0.2859
 2841W        W18650   3.164   9.589   3.709  0.1647 -0.1073 -0.0029
 2842W        W18651  16.653  17.295  11.238  0.1513  0.0150 -0.2002
 2843W        W18652   4.539  11.407   4.964  0.1583 -0.0313  0.1100
 2844W        W18653  17.998  15.359  13.696 -0.2305 -0.0942 -0.0728
 2845W        W18654  10.396  16.634  14.805  0.2412 -0.1994 -0.1403
 2846W        W18655  14.290  10.958   2.384  0.0203 -0.0254  0.0866
 2847W        W18656   7.033   4.130   0.883 -0.0405  0.1795 -0.0791
 2848W        W18657   6.618   1.232  14.592  0.2526  0.0767 -0.0549
 2849W        W18658  13.983  11.060   1.196  0.0103  0.0105 -0.0599
 2850W        W18659  14.994   6.847  12.295  0.1612  0.1348 -0.1204
 2851W        W18660  12.578   2.077   5.506 -0.2049  0.1147 -0.0981
 2852W        W18661   0.827  12.188   0.032  0.1936  0.1676  0.0502
 2853W        W18662   1.556   2.615   1.851  0.1163 -0.2535  0.0802
 2854W        W18663   8.222   4.040   0.762 -0.3020  0.0951  0.1162
 2855W        W18664   1.721  15.105   2.641 -0.1061 -0.1478 -0.0087
 2856W        W18665   6.808   1.883  12.357 -0.0440 -0.1001  0.3357
 2857W        W18666   7.243   1.954   1.521 -0.0911  0.1856 -0.3474
 2858W        W18667   9.172   8.823  12.061 -0.0607 -0.0756  0.2644
 2859W        W18668   4.844   9.678   4.600  0.2548  0.0731  0.0839
 2860W        W18669   1.725  13.896  12.449 -0.0169 -0.1521 -0.0145
 2861W        W18670  10.667  14.119   4.760 -0.0984 -0.0207  0.1409
 2862W        W18671  16.529   0.254  15.476 -0.1281 -0.2039 -0.2428
 2863W        W18672   4.020  11.782  12.784 -0.0210  0.0065  0.2456
 2864W        W18673  12.216  15.282   4.977 -0.1861 -0.1573 -0.1919
 2865W        W18674  13.324   1.131   0.851 -0.3307  0.1037 -0.0073
 2866W        W18675   4.842  12.629  15.678 -0.1235 -0.4305 -0.2130
 2867W        W18676  16.935  15.867   0.323 -0.2587 -0.1953 -0.2658
 2868W        W18677   5.861   9.414  12.892 -0.1703 -0.5247 -0.1744
 2869W        W18678   4.637   8.317   3.335 -0.2206 -0.2354 -0.2694
 2870W        W18679  15.781  14.564   1.095  0.0361 -0.1412 -0.0603
 2871W        W18680   9.917   0.916  10.316  0.1124  0.0673  0.1218
 2872W        W18681   2.998   2.204  12.974 -0.3375 -0.1471 -0.4428
 2873W        W18682  13.529   3.823  12.959  0.1384  0.0224 -0.0085
 2874W        W18683   2.827   0.212  11.229 -0.0016 -0.1963  0.1849
 2875W        W18684  15.995  11.584   1.863 -0.1201 -0.0692 -0.0513
 2876W        W18685   4.535   9.518  13.173 -0.0077  0.2740 -0.1672
 2877W        W18686  14.850   3.526   5.440  0.2663  0.0744  0.2289
 2878W        W18687  10.859  12.500  13.496  0.2059 -0.3143  0.1633
 2879W        W18688  11.694  11.329   1.650 -0.1295  0.2778 -0.0224
 2880W        W18689  13.472   2.092  11.434 -0.0323 -0.2230  0.7085
 2881W        W18690  12.575  15.339   3.099 -0.0716 -0.0920 -0.0372
 2882W        W18691   3.146  10.070  14.023  0.1727  0.0875 -0.1179
 2883W        W18692  11.353  15.588   1.269 -0.1706  0.1220 -0.0738
 2884W        W18693   6.650   1.804   4.564 -0.0912  0.0899 -0.0239
 2885W        W18694   6.190  17.721   4.066 -0.0982  0.0799  0.1144
 2886W        W18695  17.276  10.296   5.163  0.2453  0.0579  0.2532
 2887W        W18696   3.859   0.666   6.043 -0.0569  0.0673  0.1982
 2888W        W18697  11.926   7.159   0.468 -0.3411  0.1241  0.0556
 2889W        W18698  13.068  10.491   2.277  0.2442 -0.0282  0.0567
 2890W        W18699  12.444   7.638  14.940 -0.1562  0.0934  0.0457
 2891W        W18700   3.523   8.198  15.200 -0.0705 -0.1868  0.0617
 2892W        W18701  10.480  12.684   1.672  0.1564  0.2512  0.0032
 2893W        W18702   6.488  11.515  12.595  0.0260  0.2685 -0.4502
 2894W        W18703  18.250  18.261   1.809  0.1123  0.3607  0.2690
 2895W        W18704   2.797  10.028  14.397  0.1237  0.0346  0.0020
 2896W        W18705   3.714   5.301   2.294  0.1287  0.1571  0.0877
 2897W        W18706   6.758   2.966   0.881 -0.0100 -0.2509 -0.0408
 2898W        W18707   0.016  17.814   0.280  0.0933 -0.0609  0.5208
 2899W        W18708   9.433  11.323  10.837  0.1005 -0.2006  0.1297
 2900W        W18709   6.273   2.347   3.456  0.1267 -0.0204  0.1538
 2901W        W18710   6.578   6.896   1.109 -0.1818  0.1130  0.1146
 2902W        W18711  12.358  15.384  15.481 -0.1858  0.2167  0.2670
 2903W        W18712  18.063   3.246   0.515  0.0431  0.1839  0.1540
 2904W        W18713  11.229  13.715  12.846 -0.0799  0.1456 -0.1860
 2905W        W18714   7.504   2.209   4.742  0.2763  0.1122 -0.0096
 2906W        W18715   7.641  18.140  15.579 -0.1365 -0.1545 -0.2240
 2907W        W18716   7.499  15.126  15.654 -0.1555 -0.0641 -0.1137
 2908W        W18717   5.902   6.516  11.263  0.2232  0.1547 -0.1043
 2909W        W18718  10.153   2.992  14.947 -0.3231  0.2900 -0.0205
 2910W        W18719   8.977  15.694   1.588  0.0984 -0.0137 -0.0372
 2911W        W18720  18.150  15.512  15.835 -0.0410 -0.3022  0.1319
 2912W        W18721  17.821   6.836  14.253  0.1749  0.0696 -0.0051
 2913W        W18722  15.293   5.238   1.245 -0.2160 -0.0761 -0.2181
 2914W        W18723  12.900   5.412   4.428  0.1543  0.2115  0.2965
 2915W        W18724  11.964   0.239  11.081 -0.1157  0.0593  0.0833
 2916W        W18725   4.083   9.552   2.017  0.3094 -0.1237  0.0683
 2917W        W18726  11.702   7.877   1.461 -0.0851 -0.0304  0.1673
 2918W        W18727   7.652   9.992   0.580  0.2238 -0.0535  0.3239
 2919W        W18728  13.863  12.150  14.436  0.0966  0.0653 -0.0535
 2920W        W18729   0.321  12.752  12.376 -0.3254 -0.2596  0.3503
 2921W        W18730   3.537  16.721   6.085 -0.1142  0.0862 -0.1542
 2922W        W18731   0.256   0.542   3.191 -0.0701 -0.1683  0.1423
 2923W        W18732  16.689  12.666   2.120  0.1918 -0.0616  0.1562
 2924W        W18733   3.947   4.460   0.567  0.2615  0.0730  0.0602
 2925W        W18734  14.871  16.473   0.953 -0.1145 -0.2548 -0.2326
 2926W        W18735  15.044  12.961  12.584  0.1833  0.2087 -0.0795
 2927W        W18736  17.759   7.534  14.491  0.2892  0.0393 -0.0641
 2928W        W18737   0.571   5.588   4.170  0.0709  0.1281  0.0574
 2929W        W18738   4.798   1.357  13.476  0.0332  0.0302 -0.0192
 2930W        W18739   3.624  18.157  13.029 -0.3822  0.0972  0.0382
 2931W        W18740   2.237  14.072   2.123  0.2008  0.1050  0.1229
 2932W        W18741   3.080  16.256  12.475  0.0007 -0.4100  0.2631
 2933W        W18742  12.169  11.468   9.966 -0.0215  0.0234  0.1358
 2934W        W18743  13.259   7.493  15.913  0.1005  0.2114 -0.0201
 2935W        W18744   9.323   9.223  12.367  0.1030  0.0150  0.2707
 2936W        W18745   9.071  18.159   2.968  0.0411 -0.1145  0.2199
 2937W        W18746   5.771   9.495  12.384 -0.1823  0.1872 -0.0427
 2938W        W18747  10.750  14.321  11.647 -0.3605 -0.0415 -0.0364
 2939W        W18748  17.071   5.770  15.781  0.4421 -0.2418 -0.0963
 2940W        W18749   6.536  17.697  10.501 -0.1751 -0.2392  0.0799
 2941W        W18750   0.931   9.461  11.328 -0.0553  0.0348 -0.1962
 2942W        W18751   6.030   0.601   4.305 -0.0464  0.0695 -0.0901
 2943W        W18752   2.696   8.153   1.627  0.0833 -0.0541 -0.1181
 2944W        W18753  12.079   1.561  15.060 -0.0362  0.0662 -0.2068
 2945W        W18754   0.399   9.295   5.897  0.1795 -0.2750 -0.0380
 2946W        W18755   9.804  16.047  15.207 -0.0980 -0.1674  0.1668
 2947W        W18756   5.651  13.084  12.427  0.3509 -0.3299  0.0249
 2948W        W18757   9.899  15.745  13.534  0.1255  0.3346 -0.0561
 2949W        W18758  10.179  13.858   4.709  0.2635 -0.1276 -0.1596
 2950W        W18759   6.864   7.615  15.317  0.5461 -0.0042 -0.1718
 2951W        W18760   4.823  12.991  12.157 -0.0447  0.0876  0.1677
 2952W        W18761   5.152   5.789   2.468 -0.0453  0.1057 -0.3443
 2953W        W18762   0.583   9.289  15.360 -0.1446  0.0015 -0.0841
 2954W        W18763   4.310   1.724   5.073  0.0805 -0.1183 -0.1484
 2955W        W18764  13.467   8.194  14.098 -0.0174 -0.2828  0.0036
 2956W        W18765   4.932  12.527   2.683  0.0926  0.1135 -0.0197
 2957W        W18766   5.865  14.578  15.750 -0.0944  0.0084  0.0354
 2958W        W18767   2.757  17.238  11.681  0.0543  0.0894  0.0754
 2959W        W18768  13.081   3.343   4.943  0.0897 -0.0886  0.1750
 2960W        W18769   9.982   1.306  12.673 -0.2528 -0.0033 -0.0391
 2961W        W18770   9.879   5.771   3.180  0.0410  0.0009 -0.1352
 2962W        W18771  11.255  13.003  11.651  0.1314  0.0541 -0.1824
 2963W        W18772   7.220  17.880   5.019  0.1488  0.3247  0.1029
 2964W        W18773   1.910  15.221   0.314 -0.1295  0.0005  0.3084
 2965W        W18774   9.772   4.039   1.776  0.2637 -0.0622 -0.0845
 2966W        W18775  11.073  14.116  13.969  0.2057 -0.1500  0.2826
 2967W        W18776  12.061   7.840   4.334  0.0088  0.0506  0.0847
 2968W        W18777  16.719   1.294  14.092  0.4424  0.0937  0.0045
 2969W        W18778  11.936  13.366  10.961 -0.1932 -0.2229 -0.2069
 2970W        W18779   4.592  17.893  12.343 -0.0758 -0.0149  0.3042
 2971W        W18780  16.608   3.248  11.732 -0.0355  0.1218  0.0686
 2972W        W18781   1.542   1.793   3.490 -0.1523 -0.1343  0.1791
 2973W        W18782   7.697   7.695  12.333 -0.2815 -0.0604 -0.1194
 2974W        W18783   9.307   0.716  12.471 -0.1082 -0.3232 -0.2486
 2975W        W18784   2.321  17.097   3.252  0.1951 -0.3392 -0.3009
 2976W        W18785  13.504   1.774   3.397 -0.4187  0.1781  0.0165
 2977W        W18786  16.889   3.279  13.481  0.0400 -0.3360 -0.0937
 2978W        W18787   7.500   5.147  14.668  0.0118 -0.1131 -0.1702
 2979W        W18788  15.849   7.603  14.337 -0.0476  0.0852  0.2021
 2980W        W18789  12.942  15.326  14.362 -0.2119  0.0564  0.2548
 2981W        W18790   4.576  14.515  13.398  0.1128 -0.0685  0.1100
 2982W        W18791  12.217   4.086  10.651 -0.2318  0.1233  0.3648
 2983W        W18792  14.911  17.802   5.092 -0.0972 -0.1977 -0.0908
 2984W        W18793  15.638   7.657   5.227  0.2917  0.1868  0.1495
 2985W        W18794   5.222   5.172   2.323  0.3978  0.2703 -0.0559
 2986W        W18795   5.254  16.887  12.658  0.1211 -0.0016  0.0873
 2987W        W18796  13.873  15.141  12.639  0.2340  0.1657 -0.0287
 2988W        W18797   6.039   3.616   5.128  0.0795  0.0557  0.1012
 2989W        W18798  13.504   3.652   1.474  0.2216  0.2599  0.0759
 2990W        W18799   5.120   6.229  12.995  0.1423  0.0484 -0.2464
 2991W        W18800  10.681   7.544  14.493  0.0098 -0.3080  0.1425
 2992W        W18801   8.548   9.654   5.386  0.1029  0.0123 -0.0957
 2993W        W18802   1.127   4.458  11.296 -0.1662 -0.1149 -0.2098
 2994W        W18803   9.881  14.039  11.949 -0.2096 -0.1526 -0.0992
 2995W        W18804   4.968   7.747  10.968 -0.0144  0.1578 -0.1925
 2996W        W18805  17.445   7.859   2.586  0.0694 -0.0261 -0.1547
 2997W        W18806   2.962   5.238  11.728 -0.1459 -0.0427 -0.0381
 2998W        W18807   3.210   1.707   3.616  0.1694  0.1926 -0.2060
 2999W        W18808   4.979   3.893  10.946  0.0566  0.1493  0.0713
 3000W        W18809  13.020  11.474   0.109 -0.1628 -0.1463  0.0793
 3001W        W18810   1.665   3.472  14.133 -0.0627 -0.0937  0.0913
 3002W        W18811   6.698   1.510  13.475 -0.0402 -0.1619  0.2849
 3003W        W18812  11.803  17.833   1.099 -0.1158 -0.2055 -0.1619
 3004W        W18813  17.242   7.804   1.842  0.1019 -0.1305  0.1591
 3005W        W18814  14.423  17.572  15.309 -0.0235 -0.0847 -0.2170
 3006W        W18815   6.318   8.272  14.893 -0.0488  0.0592  0.0549
 3007W        W18816  13.497  11.211  15.050  0.2195  0.3057  0.2123
 3008W        W18817   0.798   8.585   0.461 -0.0334  0.3351 -0.1605
 3009W        W18818  11.609   7.723   2.008 -0.3266 -0.1570  0.0995
 3010W        W18819  15.944   2.551   4.032  0.0663  0.5891 -0.0352
 3011W        W18820   9.097   3.083   2.259 -0.2906  0.0465  0.0853
 3012W        W18821   7.070   0.395   5.438  0.1548  0.0294  0.2860
 3013W        W18822  13.821   8.524   1.376  0.1932 -0.1883  0.1140
 3014W        W18823   5.592   5.177   0.665 -0.1726 -0.3075  0.0437
 3015W        W18824  10.839   7.089   2.282  0.0090 -0.1692  0.2740
 3016W        W18825  16.633  13.882  12.836 -0.1738  0.0143 -0.0841
 3017W        W18826  11.470  16.371  11.253 -0.0026  0.0924  0.2635
 3018W        W18827  17.571   3.909  15.977  0.1431  0.0215 -0.0252
 3019W        W18828   7.520  15.567  14.112 -0.0085  0.0611  0.0745
 3020W        W18829   9.091  14.028   3.153  0.1717 -0.6172  0.0570
 3021W        W18830  16.993   5.017   2.406  0.0700  0.0202  0.0227
 3022W        W18831  13.069   1.894   4.048 -0.3640 -0.0784 -0.2366
 3023W        W18832  11.454  10.285   0.735 -0.0892  0.1987  0.2087
 3024W        W18833   1.262   6.278   4.084  0.0065 -0.2583 -0.0857
 3025W        W18834   7.735   1.650  11.314 -0.0053  0.0946  0.0221
 3026W        W18835  16.447  15.072   3.065  0.0988 -0.0354  0.2677
 3027W        W18836  12.767  17.015   5.698  0.1411 -0.0353 -0.3325
 3028W        W18837   9.287   3.655   5.017  0.2231  0.0503  0.1217
 3029W        W18838   7.683   1.098   3.559  0.0757 -0.1751  0.0831
 3030W        W18839   0.151  14.869   3.991  0.2274  0.3255 -0.0397
 3031W        W18840   9.859   7.971  12.642  0.0449 -0.0749 -0.0775
 3032W        W18841   8.919  14.390  12.200 -0.1278  0.0303  0.1978
 3033W        W18842   8.357   7.273  10.715 -0.1107 -0.4037 -0.5428
 3034W        W18843   5.105   7.033   3.348 -0.0427  0.0358 -0.1946
 3035W        W18844   9.795   5.281   2.930 -0.5485  0.1713  0.3410
 3036W        W18845   3.495  14.686   3.427 -0.0325  0.0307 -0.1462
 3037W        W18846  15.314   6.598   4.018 -0.1083  0.4414  0.0555
 3038W        W18847  17.427  10.896  15.767 -0.1097  0.0759 -0.1072
 3039W        W18848  17.865   1.250   1.686  0.4317 -0.0761 -0.1791
 3040W        W18849   5.398   1.628   4.646  0.0499  0.1778 -0.1289
 3041W        W18850  12.705   1.660   0.226 -0.0458 -0.0435 -0.0356
 3042W        W18851   4.058   2.325  11.127 -0.0763 -0.1522  0.1955
 3043W        W18852   1.304   6.394  15.959  0.1047  0.0393 -0.0203
 3044W        W18853   4.246   4.981  11.395 -0.0481  0.3058  0.2923
 3045W        W18854  18.037   3.780   5.248 -0.1638  0.1343 -0.3778
 3046W        W18855   3.209   3.251   3.888 -0.0066 -0.1217 -0.2140
 3047W        W18856  12.575  17.022  15.803  0.2030  0.0940 -0.0954
 3048W        W18857  15.034  15.141   3.343  0.0424  0.2868  0.0115
 3049W        W18858  10.171  15.814  15.454  0.0300  0.2567  0.0406
 3050W        W18859   2.996   5.264   3.929  0.0858 -0.1095 -0.0679
 3051W        W18860  12.818   3.667   3.650 -0.1127  0.4351 -0.1583
 3052W        W18861   6.731   1.476  11.253 -0.3652  0.3323 -0.0359
 3053W        W18862  11.573   9.331   1.142 -0.0882 -0.1605  0.0044
 3054W        W18863   9.683  17.455   3.948 -0.0484 -0.1886 -0.2370
 3055W        W18864  11.631   5.736   5.147 -0.0854 -0.0760  0.1509
 3056W        W18865   6.176   9.725  14.949 -0.0693  0.3161  0.0653
 3057W        W18866  14.731  10.024  13.580  0.0528 -0.0060 -0.0111
 3058W        W18867  10.142   9.139   0.290 -0.1099 -0.0026  0.0510
 3059W        W18868   0.876   0.658  11.225 -0.0889  0.0530  0.1137
 3060W        W18869  16.923  18.172  15.444 -0.4207  0.2425  0.0054
 3061W        W18870   6.230  14.998  14.432  0.2080  0.0028  0.0195
 3062W        W18871   0.609   1.261  11.490 -0.1329 -0.1996 -0.1650
 3063W        W18872  15.943  17.801   1.033 -0.0782 -0.0722 -0.1314
 3064W        W18873   8.840   0.937  11.292  0.1236  0.2153  0.4257
 3065W        W18874  15.717   4.566  13.720  0.0929  0.0642  0.0852
 3066W        W18875  12.325  13.027  14.353 -0.0707 -0.0520  0.1306
 3067W        W18876  14.674  15.510   1.944  0.1531 -0.0829 -0.2550
 3068W        W18877   0.503   9.938  14.793 -0.0642  0.0896 -0.1712
 3069W        W18878  17.216  12.860  10.331  0.2921 -0.1128  0.1915
 3070W        W18879  12.668  16.183   1.138 -0.0002  0.1035 -0.3890
 3071W        W18880   8.694   8.884  12.007  0.2490 -0.0009 -0.1567
 3072W        W18881  14.983  16.107  14.993  0.1331  0.0131  0.1536
 3073W        W18882   7.220  17.754   4.124  0.0492  0.0039  0.0301
 3074W        W18883   7.514  16.262   2.505 -0.3590 -0.0762 -0.2154
 3075W        W18884   5.525  12.473   1.419 -0.1296  0.0354 -0.2031
 3076W        W18885   1.228  12.448   1.335  0.2913  0.1431 -0.0420
 3077W        W18886   8.664  16.839   4.190  0.0138 -0.5977  0.1731
 3078W        W18887   4.275  16.459   1.363 -0.4440  0.1985  0.1584
 3079W        W18888   1.844   0.689   4.413  0.3480 -0.0839 -0.0496
 3080W        W18889  11.688  16.926   5.014 -0.1408  0.0690  0.1419
 3081W        W18890   6.375  15.938   0.512 -0.0114  0.0770 -0.2662
 3082W        W18891  13.288  16.481  15.845  0.0858 -0.2145  0.0182
 3083W        W18892  17.488  14.041  13.278  0.0159 -0.2489  0.0826
 3084W        W18893   5.813   4.108   5.862 -0.2785  0.0103  0.0984
 3085W        W18894  15.406  12.896   3.768  0.3401 -0.1143  0.0630
 3086W        W18895   8.722   1.937  13.031 -0.0307  0.0136 -0.0468
 3087W        W18896  14.177  10.471  15.561 -0.4363 -0.0807  0.0479
 3088W        W18897  18.086   7.174  14.985 -0.1406  0.1242  0.2812
 3089W        W18898   6.670  15.638  10.848  0.2446 -0.1103  0.4110
 3090W        W18899   8.999   7.623  12.676  0.1136 -0.0047 -0.3127
 3091W        W18900  10.114  10.528  12.982 -0.0477  0.2188 -0.0291
 3092W        W18901  15.017   8.751   2.884 -0.0768  0.0445  0.1183
 3093W        W18902  12.774  18.158   3.986  0.1339  0.0653  0.0005
 3094W        W18903   7.787   0.674   1.278 -0.0753  0.2125 -0.3813
 3095W        W18904  11.818  10.357  12.594 -0.2296  0.3082 -0.3391
 3096W        W18905   6.304  16.141  13.068  0.0869  0.1500 -0.1250
 3097W        W18906  12.273   8.450  15.431  0.0051  0.1989 -0.0252
 3098W        W18907   3.131   4.191  10.237  0.5712 -0.2311 -0.0289
 3099W        W18908   6.230  14.896  11.850  0.1083 -0.1673 -0.1591
 3100W        W18909  13.668   5.228   3.412  0.0505  0.0017 -0.3321
 3101W        W18910   0.949   0.928  12.179 -0.4366  0.1446  0.0454
 3102W        W18911  14.790   2.749   4.208  0.3878  0.2382  0.0249
 3103W        W18912  17.583   4.829   1.000  0.0212 -0.3751 -0.1516
 3104W        W18913   7.811  13.799   1.814 -0.1084 -0.3087  0.0705
 3105W        W18914   1.147  14.114   4.382 -0.1394 -0.3036  0.2009
 3106W        W18915  14.807  17.066   4.934 -0.1253 -0.1715 -0.0451
 3107W        W18916   6.342   0.486   4.947 -0.1817 -0.2130 -0.1598
 3108W        W18917  13.611  16.251  11.641 -0.0857  0.1723  0.0081
 3109W        W18918   0.931  13.896   0.040  0.2929  0.0311  0.2676
 3110W        W18919   9.267   8.159   1.637 -0.0153  0.0325  0.1449
 3111W        W18920   6.450  10.462  13.861 -0.0183 -0.0749  0.2313
 3112W        W18921  16.108  14.151  13.611  0.0992  0.1177 -0.0804
 3113W        W18922  13.006  11.271   3.952 -0.0851 -0.1511  0.1912
 3114W        W18923   9.378   8.983  13.239  0.0807 -0.3645  0.0133
 3115W        W18924  15.588  14.023  14.323 -0.1377  0.0524  0.1313
 3116W        W18925   3.525   7.924  14.103  0.0356 -0.1529 -0.2410
 3117W        W18926   6.808   6.687   4.820 -0.0506 -0.2192  0.0511
 3118W        W18927   9.071   5.591  14.269  0.1901 -0.0229  0.0562
 3119W        W18928   4.643   6.506  13.798  0.1215  0.2890  0.1094
 3120W        W18929  11.358  12.722   2.119  0.0541  0.2146 -0.1427
 3121W        W18930   6.986  11.830   4.788 -0.1186 -0.0351 -0.0204
 3122W        W18931   0.946  12.827  10.761  0.0725 -0.2439  0.2286
 3123W        W18932   2.709   4.390   5.812 -0.0317  0.3566  0.0099
 3124W        W18933  13.426   1.365   4.743 -0.0202  0.0961 -0.1741
 3125W        W18934   7.744   6.676   3.431 -0.1256 -0.1557  0.2776
 3126W        W18935   0.721  16.288   3.740 -0.0072  0.2675 -0.2985
 3127W        W18936  17.523   0.169  13.695 -0.3032 -0.1184 -0.1659
 3128W        W18937  12.292  16.423  13.540 -0.2286  0.0204  0.2428
 3129W        W18938  12.299  14.477  15.953  0.0166 -0.2504  0.3134
 3130W        W18939   8.061  13.121  12.209 -0.0257 -0.0993 -0.0067
 3131W        W18940   2.005   0.753   2.844 -0.1491 -0.0325 -0.1989
 3132W        W18941   9.111   2.101   1.667 -0.1233  0.2787  0.0887
 3133W        W18942  10.287   4.484   5.022  0.0836 -0.0704 -0.1273
 3134W        W18943   8.433  11.458   4.791  0.1140  0.1230 -0.2578
 3135W        W18944  17.905   8.672  15.565  0.1603  0.2457  0.0366
 3136W        W18945  16.462  10.581  14.874  0.0491 -0.2916  0.1030
 3137W        W18946   5.622   4.505  15.128 -0.0854 -0.4347 -0.0690
 3138W        W18947   7.362   0.319   2.745  0.0128 -0.0636  0.0417
 3139W        W18948   5.630  16.557   2.299  0.1521 -0.1938 -0.0152
 3140W        W18949  17.996   4.577   0.917 -0.1247  0.0870  0.1659
 3141W        W18950   7.650  10.653  15.081  0.0132 -0.3996 -0.1086
 3142W        W18951   5.466   8.080  13.954 -0.0140  0.0110  0.1232
 3143W        W18952  12.682   5.195  13.281 -0.1929 -0.2404  0.3049
 3144W        W18953  13.233   3.602  15.057 -0.1442  0.2763  0.1110
 3145W        W18954  14.854  13.897  13.332 -0.0495  0.2078  0.0883
 3146W        W18955  12.352  12.716  13.882  0.2937 -0.0856  0.0969
 3147W        W18956   4.360   2.917  14.232 -0.1453  0.1099  0.0476
 3148W        W18957  12.181   6.244   3.619 -0.0562  0.1928  0.2410
 3149W        W18958   4.143   8.760  11.004 -0.1928 -0.1630  0.0103
 3150W        W18959  13.789   0.916  13.904  0.2370 -0.0168  0.0572
 3151W        W18960   4.453  18.250  11.831  0.0286 -0.0604  0.0929
 3152W        W18961   6.474  17.322   1.710  0.0629  0.0633  0.0238
 3153W        W18962  15.689   7.954  12.319  0.1770  0.3722 -0.1329
 3154W        W18963   0.396   2.423  14.592 -0.4186  0.0296  0.0295
 3155W        W18964   3.576   4.072  10.677 -0.0787 -0.1235  0.2986
 3156W        W18965   3.684   8.627   1.031 -0.0369  0.0604 -0.0416
 3157W        W18966   0.796  12.647   0.224 -0.0597  0.0009 -0.2885
 3158W        W18967   4.218   8.125   1.155 -0.0586  0.2343 -0.2120
 3159W        W18968   3.725  12.351  14.202 -0.0937  0.0287  0.0594
 3160W        W18969   2.044  12.054  13.999  0.0681  0.0066 -0.0874
 3161W        W18970  11.259  10.290   5.210 -0.2737 -0.0973 -0.2670
 3162W        W18971  11.874  11.178  10.930 -0.1773 -0.1382  0.1106
 3163W        W18972  13.646   0.818   2.586 -0.0210 -0.0464 -0.2296
 3164W        W18973   3.678   4.652   4.319 -0.1658 -0.1910  0.0396
 3165W        W18974  12.321  16.469   4.017 -0.0029  0.0928 -0.0046
 3166W        W18975  18.002   0.319  10.593 -0.0250 -0.1401 -0.1372
 3167W        W18976  12.202   1.070  13.835  0.2192  0.1445  0.3174
 3168W        W18977   8.107   9.178  10.409  0.2671  0.3007 -0.0234
 3169W        W18978  15.825   9.501  12.420 -0.2436 -0.1597 -0.0373
 3170W        W18979  15.544  13.984   3.188  0.1117  0.1158  0.4640
 3171W        W18980   2.058   4.982  10.218  0.1876 -0.0293  0.0321
 3172W        W18981  17.158  10.901   3.536 -0.1101 -0.0097 -0.0036
 3173W        W18982  15.487   1.978  11.447  0.0923 -0.1173 -0.0869
 3174W        W18983  15.961   9.379  11.963  0.0554  0.2701 -0.2190
 3175W        W18984   6.970  16.125  14.872 -0.0123 -0.1749  0.2005
 3176W        W18985   2.953   9.636  15.384  0.1709  0.2220  0.0642
 3177W        W18986  11.911  14.634   0.875  0.2077  0.2588 -0.1606
 3178W        W18987  14.063  15.641  15.749  0.0194  0.2776 -0.2074
 3179W        W18988   5.519   2.825  11.150  0.1907 -0.1648  0.0256
 3180W        W18989   7.214   7.530  11.256 -0.1357  0.0959 -0.1157
 3181W        W18990   1.180  12.207   3.616 -0.1189  0.2520  0.3164
 3182W        W18991  11.044   4.524   3.872 -0.1639  0.2212  0.2056
 3183W        W18992  10.777   4.492  15.279 -0.1092  0.1158  0.0064
 3184W        W18993   7.370   6.153   5.308 -0.0840 -0.1900 -0.0372
 3185W        W18994   2.005   2.755  11.392  0.0554  0.0187 -0.0066
 3186W        W18995   4.668  12.179  11.818  0.0895 -0.1739  0.0616
 3187W        W18996  15.760   7.733  12.811 -0.2571  0.1148 -0.0175
 3188W        W18997   8.128  16.944   4.022  0.1921 -0.0874 -0.1983
 3189W        W18998   8.021  12.267  10.142  0.0847 -0.1544  0.2219
 3190W        W18999   6.662   9.072  10.034  0.2444 -0.1587 -0.1134
 3191W        W19000  16.712   6.458  11.818  0.0087  0.0362  0.3336
 3192W        W19001   2.452   4.582   1.939  0.1991 -0.3798  0.1407
 3193W        W19002  16.706  14.381   1.931 -0.0226 -0.1037 -0.0948
 3194W        W19003   5.180  12.227  11.728  0.0880  0.0928  0.0119
 3195W        W19004  12.130   1.845  15.623 -0.1065  0.0840  0.1024
 3196W        W19005  12.206  13.043   2.910  0.1899  0.2034  0.1244
 3197W        W19006   9.910  16.995  12.332 -0.0505  0.2599 -0.1057
 3198W        W19007   6.612   5.217  12.181 -0.2678  0.2552 -0.1129
 3199W        W19008  17.374   4.756   2.321 -0.2137  0.1600 -0.0434
 3200W        W19009   4.687  14.014   5.385 -0.1679 -0.1990 -0.0155
 3201W        W19010   5.220   9.364  10.820 -0.1927 -0.0697  0.2583
 3202W        W19011  13.476  10.663   5.498  0.0096  0.0683 -0.0040
 3203W        W19012  12.444   5.438   5.333 -0.0676  0.0732 -0.0300
 3204W        W19013  12.382  10.400   3.374 -0.2998  0.0629  0.0194
 3205W        W19014   7.563   1.889  12.788  0.2807  0.1575  0.1501
 3206W        W19015   0.533   1.025   0.580  0.0559  0.0733 -0.1006
 3207W        W19016   4.468  12.499   1.565  0.0515 -0.0075  0.0780
 3208W        W19017  15.828   5.896   5.251  0.3201 -0.0976  0.1598
 3209W        W19018   1.769   5.169  12.649 -0.1155  0.1604  0.1885
 3210W        W19019   4.685  10.688  14.526  0.2626 -0.2659 -0.0309
 3211W        W19020   4.343  14.887  13.747  0.0320  0.0665 -0.2646
 3212W        W19021  17.125   2.981   0.958  0.0180 -0.0645 -0.1993
 3213W        W19022   3.265  12.312   1.038 -0.0510 -0.3252 -0.2911
 3214W        W19023   2.516   5.551   2.328 -0.0172  0.2169 -0.0877
 3215W        W19024  14.223   8.798   1.581  0.0389  0.0547  0.2071
 3216W        W19025   7.218   7.678  13.803  0.2059 -0.1537 -0.0570
 3217W        W19026  17.447   4.059   3.294 -0.0414  0.2077  0.1353
 3218W        W19027  17.019  10.052  14.738 -0.3652  0.2103  0.1936
 3219W        W19028   3.808   0.736   1.036 -0.1030  0.1922  0.3700
 3220W        W19029  12.540   0.416  15.759 -0.0680 -0.0537  0.0024
 3221W        W19030  14.890   1.185   5.518 -0.0514 -0.2669 -0.1453
 3222W        W19031   4.682  11.150  14.194 -0.0320  0.0395  0.1651
 3223W        W19032   4.118  16.390   6.569 -0.0351  0.2939 -0.1075
 3224W        W19033   9.558  17.481   3.419 -0.5491  0.0172  0.2244
 3225W        W19034  17.438   6.048   4.759  0.2892  0.1355 -0.1403
 3226W        W19035  10.728   9.708   2.779  0.5341  0.0372  0.3004
 3227W        W19036   3.251   3.189   0.227 -0.0219 -0.0440 -0.0000
 3228W        W19037  14.466   4.094   1.317 -0.1924  0.1183  0.0139
 3229W        W19038   6.097  16.247  11.753 -0.0963  0.2673 -0.0865
 3230W        W19039   4.234   1.359  16.046 -0.1524 -0.0820  0.0473
 3231W        W19040  12.775  15.555   2.010 -0.0005 -0.0615  0.0384
 3232W        W19041   7.834   0.374   4.734 -0.2040 -0.0821  0.0389
 3233W        W19042  14.160   0.539   0.450  0.0498 -0.0600  0.3441
 3234W        W19043  14.487   5.530   1.791  0.4688  0.0646 -0.0570
 3235W        W19044   0.896   9.909   4.047 -0.2005 -0.1725 -0.0667
 3236W        W19045  16.229  15.701  12.101 -0.0205 -0.4346  0.1452
 3237W        W19046   8.732  17.323   0.917  0.3031  0.0201  0.0623
 3238W        W19047  14.887  10.307  10.826  0.0780  0.6320 -0.2004
 3239W        W19048  16.295   8.913   0.236 -0.0024  0.0056  0.0912
 3240W        W19049  15.971  16.204  11.742  0.0285 -0.0837  0.0973
 3241W        W19050   0.619   4.169   5.024 -0.0731 -0.0359  0.1371
 3242W        W19051  16.422  15.191  14.517 -0.0431  0.2263 -0.2326
 3243W        W19052  10.902  16.353   5.222 -0.2565  0.2234 -0.2939
 3244W        W19053   9.066  13.765  11.339  0.2087 -0.1542 -0.0351
 3245W        W19054  10.133   6.982  12.032  0.2761  0.0980  0.3096
 3246W        W19055  13.608   1.425   2.100 -0.0105  0.0960  0.2320
 3247W        W19056   6.969   6.001  14.576  0.1195 -0.2178 -0.2185
 3248W        W19057   3.321   5.470   2.855  0.0113  0.1683  0.3252
 3249W        W19058   4.013   9.403  11.685  0.1550 -0.0145  0.0002
 3250W        W19059  14.360   7.226  13.148 -0.0257  0.0318  0.0418
 3251W        W19060   6.947   5.584   4.440 -0.4111 -0.0443  0.3090
 3252W        W19061  15.591  14.017  13.787 -0.2347  0.4944 -0.1016
 3253W        W19062   4.212   3.793  12.011  0.3665  0.0675 -0.2440
 3254W        W19063   4.296   5.922   2.419  0.0397  0.0586  0.0535
 3255W        W19064   7.276   9.503   1.021  0.2292  0.1746  0.2272
 3256W        W19065   6.949   1.288   0.338  0.2249  0.1615  0.0548
 3257W        W19066   8.653   1.846  11.935  0.0940 -0.1921  0.1302
 3258W        W19067   3.947   9.586  15.521  0.1351 -0.1823 -0.2909
 3259W        W19068   9.940  13.373   1.432 -0.2032  0.2557 -0.0594
 3260W        W19069  14.604  18.043   0.475  0.3336 -0.0956  0.1546
 3261W        W19070  13.228  14.063  15.619 -0.3127 -0.3130  0.2254
 3262W        W19071  10.588   6.952   1.658 -0.1135  0.2358 -0.0674
 3263W        W19072   3.030   5.862  11.084  0.3011 -0.0222  0.2230
 3264W        W19073  16.313   0.981   4.607 -0.2002  0.1158  0.2094
 3265W        W19074  14.337  10.354  14.562 -0.1048 -0.0125  0.1356
 3266W        W19075   0.469  18.078  11.182 -0.1536  0.0158 -0.0240
 3267W        W19076   4.165   3.967  11.532  0.0485 -0.2010  0.1248
 3268W        W19077   7.420  14.552   0.690 -0.4071 -0.0055 -0.3601
 3269W        W19078   1.009  13.460   5.517 -0.0709  0.2296 -0.0396
 3270W        W19079  12.596  13.211  14.964 -0.2542  0.0225  0.1743
 3271W        W19080  13.627   4.398  13.801  0.1810  0.0992  0.1559
 3272W        W19081   2.431   0.061   1.065  0.1909 -0.1125  0.0073
 3273W        W19082  13.238  12.459   0.326 -0.3923 -0.2249 -0.0582
 3274W        W19083   5.148   1.182  15.577 -0.0130 -0.2013  0.1997
 3275W        W19084  15.794   3.578  11.568  0.1090 -0.2318 -0.0510
 3276W        W19085   7.984   7.216  11.666 -0.0134 -0.3276 -0.0154
 3277W        W19086  13.350  14.394   2.918 -0.0981  0.1280  0.1970
 3278W        W19087  11.555   4.603  13.747 -0.1546 -0.0501 -0.2876
 3279W        W19088   7.544   9.408  11.278 -0.1681  0.1625  0.0940
 3280W        W19089   8.041   3.616   2.663  0.0468 -0.0229  0.0561
 3281W        W19090   5.555   3.517   1.372  0.1772  0.0039  0.2557
 3282W        W19091  11.080  15.889  14.991  0.2525 -0.1021  0.2476
 3283W        W19092   9.125   0.772  14.548 -0.0240  0.0314 -0.0867
 3284W        W19093  12.332  10.641  12.101 -0.0265  0.2511  0.0092
 3285W        W19094  13.839  13.133   0.653  0.1693 -0.1169  0.1069
 3286W        W19095   3.979   6.027   0.612 -0.0455 -0.0977 -0.1703
 3287W        W19096   5.392   3.266   4.336 -0.1897 -0.0481 -0.2737
 3288W        W19097   5.544  14.404   0.406 -0.1425 -0.1124  0.2203
 3289W        W19098  15.418  18.074   1.677 -0.2570 -0.1700 -0.2378
 3290W        W19099   6.427   7.257   0.315  0.1270  0.1859 -0.3048
 3291W        W19100  15.129   6.026  13.781  0.1317 -0.0277  0.1901
 3292W        W19101   9.944   1.202  14.426 -0.0059  0.3087 -0.0299
 3293W        W19102   8.386   5.631   1.178 -0.0437  0.4179  0.1499
 3294W        W19103  18.083  17.824   1.984  0.1218  0.1078 -0.0162
 3295W        W19104  11.449  12.540  14.396  0.0819 -0.0313  0.2372
 3296W        W19105   3.725   0.069   4.266  0.1408 -0.0431  0.3170
 3297W        W19106   7.979   7.794  14.538  0.2267 -0.0893  0.2209
 3298W        W19107   4.891   1.674   2.724 -0.0906  0.0508 -0.0348
 3299W        W19108  14.023  10.672  13.327 -0.2268 -0.2924 -0.2449
 3300W        W19109   8.575  13.408  12.923 -0.5326 -0.2261  0.2279
 3301W        W19110   0.612   7.703   2.012  0.0899 -0.0523 -0.1985
 3302W        W19111   3.922  11.747  11.237 -0.0461  0.0618 -0.2609
 3303W        W19112  10.542  14.628   5.505 -0.1142  0.5188  0.0701
 3304W        W19113  11.241  15.593   2.726 -0.0173  0.0111  0.1650
 3305W        W19114  13.877  14.480   3.811  0.0060 -0.2437  0.0623
 3306W        W19115   7.375   4.150   1.263 -0.0557 -0.0736  0.1791
 3307W        W19116   9.891  10.053  14.528 -0.0151 -0.0551 -0.1393
 3308W        W19117   3.171   1.956  15.586 -0.0892 -0.2310 -0.3377
 3309W        W19118  11.203  17.077   4.252  0.3027  0.1430 -0.3127
 3310W        W19119   2.524   2.042   2.577 -0.0985  0.3073  0.0117
 3311W        W19120  10.130   9.368  10.614  0.1950 -0.0375  0.4156
 3312W        W19121  12.401   3.752  11.020 -0.4229  0.1261  0.2603
 3313W        W19122  11.286  11.474  14.418 -0.2107  0.2219 -0.1884
 3314W        W19123  11.613   1.902   5.803  0.1480 -0.1831  0.1293
 3315W        W19124  12.994  11.998  10.045 -0.0825 -0.1553  0.3412
 3316W        W19125  12.060   5.032   2.381 -0.0952  0.1567  0.2808
 3317W        W19126  13.902  17.257  12.413 -0.1136  0.2006  0.2641
 3318W        W19127   2.455   2.043   1.025 -0.1434 -0.1619  0.1842
 3319W        W19128  17.854  12.856  11.662 -0.2316 -0.0512 -0.0738
 3320W        W19129   2.253  12.935   3.341  0.0386  0.2531  0.0307
 3321W        W19130  14.678   4.455  15.846  0.0976 -0.1541  0.2482
 3322W        W19131   2.757   1.311   3.393 -0.0854 -0.0600  0.2719
 3323W        W19132   9.145  10.706   0.272  0.0947  0.2119  0.1848
 3324W        W19133   0.708   0.469  13.850  0.0762 -0.1104 -0.1013
 3325W        W19134  11.458   9.507  13.084 -0.1019  0.0086 -0.2081
 3326W        W19135   1.448  10.587  14.190  0.3246 -0.2194  0.1191
 3327W        W19136  12.545  14.779   3.772  0.1023 -0.0373  0.2102
 3328W        W19137   0.044   0.075   0.977 -0.0933 -0.0464  0.2551
 3329W        W19138   7.098  15.665   3.196  0.4066  0.2223 -0.2708
 3330W        W19139   5.694  18.188   3.037  0.0300  0.1533  0.4144
 3331W        W19140   4.446  13.550   3.577 -0.0370 -0.2347  0.0718
 3332W        W19141  10.614   1.233   1.589  0.1968 -0.1555  0.4172
 3333W        W19142  13.423   8.432  12.506 -0.0282  0.0038  0.0621
 3334W        W19143  12.118  10.979   4.249 -0.1155  0.0378  0.3141
 3335W        W19144   9.347   3.585  15.093  0.0037 -0.1075 -0.1584
 3336W        W19145  15.398   1.562  11.099  0.0832  0.0420  0.0417
 3337W        W19146   8.082   0.527   2.993  0.0439  0.1270 -0.1129
 3338W        W19147   4.605  16.333   0.255 -0.1265  0.2413 -0.2070
 3339W        W19148  16.690  11.671  13.198 -0.1517  0.0741 -0.2924
 3340W        W19149   2.337   1.154  12.260 -0.0767  0.0890 -0.1085
 3341W        W19150   3.669   9.476   5.110 -0.0401  0.4096 -0.0637
 3342W        W19151  11.140   7.818  10.144 -0.0401  0.1344 -0.1537
 3343W        W19152  10.971  11.111  14.524 -0.0502 -0.1137  0.1845
 3344W        W19153   3.669  10.546   5.097  0.0720 -0.0121 -0.2989
 3345W        W19154  12.858   4.006  10.132  0.0774 -0.1762 -0.0138
 3346W        W19155  15.490  10.063  10.939  0.0334  0.1195  0.0788
 3347W        W19156   1.486  10.782   3.605 -0.2053 -0.0974  0.0817
 3348W        W19157   4.035   8.435   4.867  0.0644  0.0615 -0.0075
 3349W        W19158  11.155  10.769   3.876 -0.1664 -0.1356 -0.2285
 3350W        W19159   1.780  16.899   3.296 -0.2906 -0.0385  0.0507
 3351W        W19160   3.931   7.433  12.991  0.1012  0.1111  0.0927
 3352W        W19161  14.617   7.888  15.568 -0.0267 -0.0541  0.0140
 3353W        W19162  13.507  12.685   4.589  0.0718  0.3096 -0.2292
 3354W        W19163  10.021  16.256  11.720 -0.0843 -0.3211  0.1610
 3355W        W19164  16.544   3.633  12.669  0.3418 -0.1140  0.2247
 3356W        W19165   9.673  14.731   3.412  0.1981 -0.4354  0.0541
 3357W        W19166  16.548   6.705  14.265 -0.1819 -0.1159 -0.0629
 3358W        W19167   8.379   2.101  13.406 -0.2971  0.3253  0.2366
 3359W        W19168   8.119   4.128   3.348 -0.0641 -0.2140  0.0302
 3360W        W19169   7.210   4.343  10.707  0.1687 -0.0948 -0.0808
 3361W        W19170   7.725   1.422   5.422 -0.0197 -0.2073  0.0548
 3362W        W19171   4.680   1.318   4.921  0.2584 -0.0073 -0.0412
 3363W        W19172   3.420  14.895   0.478 -0.0445  0.1890 -0.2017
 3364W        W19173  14.052  13.652  12.267 -0.0277 -0.1456  0.0431
 3365W        W19174   8.231  15.251  15.536  0.0755 -0.3348 -0.1265
 3366W        W19175   0.342  11.482  15.650 -0.0955 -0.0294  0.2242
 3367W        W19176   3.810   1.329   1.668 -0.1918  0.0972 -0.1110
 3368W        W19177   9.685   5.524  12.964 -0.1412  0.1131 -0.3014
 3369W        W19178  14.089  11.190  13.405 -0.2206  0.0273  0.0662
 3370W        W19179   5.640   0.044   4.379 -0.3789  0.1618 -0.0081
 3371W        W19180   0.402   3.787  11.392 -0.0461  0.2558 -0.2128
 3372W        W19181  10.156  12.417  10.855  0.2331  0.1362  0.3614
 3373W        W19182  12.203   3.364   4.059 -0.0488 -0.1898 -0.2297
 3374W        W19183   4.580   3.352  14.430 -0.0092  0.3519 -0.0163
 3375W        W19184   8.005   9.745  11.112 -0.1793  0.0490  0.1344
 3376W        W19185   3.749  16.472  15.805  0.2479  0.1797 -0.0296
 3377W        W19186   0.547  12.909   4.317  0.2034 -0.1625 -0.0668
 3378W        W19187  16.386  10.551  15.346  0.2468  0.1139 -0.0951
 3379W        W19188  12.848  12.368  16.060  0.0056 -0.2988 -0.0731
 3380W        W19189   5.936   4.207  11.055 -0.1905 -0.1075  0.2013
 3381W        W19190   7.369   1.042   3.149  0.1417  0.2593 -0.2119
 3382W        W19191  14.593   0.566   0.823 -0.0878 -0.5359  0.2864
 3383W        W19192   6.069   6.359   2.518 -0.0086  0.1226  0.1777
 3384W        W19193  16.511  11.577   1.701  0.0463  0.3187 -0.0041
 3385W        W19194   1.394  16.699   2.064 -0.0053  0.1194  0.2036
 3386W        W19195  15.912   0.233   3.084  0.0611 -0.0535  0.1071
 3387W        W19196  13.570  13.898   4.738 -0.2935 -0.1080 -0.1748
 3388W        W19197  17.186  12.708   2.203  0.1174  0.0552  0.2077
 3389W        W19198  11.631   0.409  11.438 -0.0518 -0.1012 -0.3129
 3390W        W19199   1.352   4.565  13.821  0.0984 -0.0918 -0.1853
 3391W        W19200   0.934   4.565  14.098 -0.1459  0.0129  0.1832
 3392W        W19201  13.275  11.714  14.343 -0.0507 -0.0938 -0.0060
 3393W        W19202   9.235   3.869   1.703  0.2628 -0.3316 -0.2572
 3394W        W19203  17.217   8.017  15.469 -0.0691 -0.0236 -0.0738
 3395W        W19204   0.100   6.362  14.959 -0.0907  0.1606 -0.2245
 3396W        W19205  10.898  10.617  10.028  0.1072 -0.2767  0.1227
 3397W        W19206  13.062  16.939  13.501  0.3757  0.0607  0.0281
 3398W        W19207   8.963   3.312   3.504  0.1479 -0.1499  0.0363
 3399W        W19208  10.575  12.772   0.642 -0.1383  0.0657 -0.3227
 3400W        W19209   5.003   7.332  10.656 -0.1248  0.0904 -0.0964
 3401W        W19210  14.814   9.635   1.235  0.0648 -0.0587 -0.1512
 3402W        W19211   6.653  15.376  11.878 -0.0867  0.0447 -0.0305
 3403W        W19212   9.294   6.577   1.184  0.0731  0.1392 -0.0814
 3404W        W19213   2.778  17.122  12.265 -0.0413 -0.0877  0.0332
 3405W        W19214  11.986  10.396  14.797  0.2184  0.1959 -0.0226
 3406W        W19215   6.886   2.996  16.071  0.1077  0.3354  0.2303
 3407W        W19216   4.507   3.866   3.212 -0.0631 -0.1498  0.1699
 3408W        W19217   5.739   6.507  13.784  0.0863  0.2215  0.0164
 3409W        W19218   4.225   7.366  12.482 -0.2477  0.1369 -0.1935
 3410W        W19219   7.822  11.171  11.728  0.1914 -0.1517  0.0739
 3411W        W19220  10.071   7.115   1.665 -0.2014 -0.0194  0.1218
 3412W        W19221   9.435   2.634  13.421  0.1463  0.0793 -0.1909
 3413W        W19222  13.947  15.707  14.771 -0.0294  0.0208 -0.2670
 3414W        W19223  17.451   3.309  13.675 -0.1321 -0.3992  0.0014
 3415W        W19224   0.431   4.895  11.408  0.2962  0.1580  0.3200
 3416W        W19225  17.650  17.720  13.175 -0.0311 -0.1691  0.1719
 3417W        W19226   9.075   7.261   3.568  0.2849 -0.2054 -0.2487
 3418W        W19227  13.645   4.551  11.778  0.0129  0.2166 -0.1209
 3419W        W19228  10.994   3.306   2.906 -0.0120 -0.0503  0.1419
 3420W        W19229   0.326  11.132   1.033 -0.2173 -0.3146 -0.1292
 3421W        W19230   4.488   0.067  12.628 -0.5943  0.0285  0.1400
 3422W        W19231   4.550   7.714   1.404 -0.1133 -0.1814  0.0298
 3423W        W19232  16.439   1.582  12.811 -0.3421 -0.0193 -0.0224
 3424W        W19233   2.741  12.697   1.534  0.1635 -0.0365 -0.1097
 3425W        W19234   3.130   4.997   3.003 -0.1474 -0.2548  0.0123
 3426W        W19235   2.581   8.505   2.887  0.2847  0.0999  0.1806
 3427W        W19236   9.905   3.052  12.987 -0.1792 -0.0135  0.0793
 3428W        W19237  17.567   6.084  15.007  0.2829 -0.1288  0.0648
 3429W        W19238   8.751   0.373   0.918  0.1951  0.4469  0.0132
 3430W        W19239   5.135   3.009   0.134  0.1472  0.0504 -0.1788
 3431W        W19240  10.122   0.836   2.355 -0.1235  0.2270 -0.2835
 3432W        W19241   7.755   6.406   3.001  0.2272  0.0811 -0.2029
 3433W        W19242   0.743  14.204   4.665 -0.0807  0.0292  0.0488
 3434W        W19243  13.325  14.820   1.918 -0.1356 -0.1688 -0.1983
 3435W        W19244  10.048   3.223  13.894 -0.3742 -0.1228  0.4738
 3436W        W19245  15.911  15.488   3.830  0.0656 -0.2570  0.0063
 3437W        W19246   9.976  18.050   4.918  0.1025 -0.1154 -0.1860
 3438W        W19247   3.111   1.882   4.110 -0.1068  0.0012  0.0319
 3439W        W19248   7.759  10.305  12.553 -0.2215 -0.0959  0.0190
 3440W        W19249  12.116  10.591   2.065 -0.1629  0.0097 -0.0174
 3441W        W19250   7.989  14.521   3.915 -0.0651  0.0323 -0.2394
 3442W        W19251   6.630  14.961   0.886 -0.3724 -0.0897 -0.0120
 3443W        W19252   7.663  11.266   5.394  0.1097  0.3832 -0.0282
 3444W        W19253   9.774   0.524   0.226 -0.2745  0.2255  0.0438
 3445W        W19254  13.001   7.275   5.068 -0.0460 -0.3600 -0.4532
 3446W        W19255   7.025   7.043  11.193 -0.1863 -0.1877  0.0120
 3447W        W19256  11.048  14.621   5.449 -0.3564  0.1860 -0.0779
 3448W        W19257   4.576   8.467   0.822 -0.0476  0.2490  0.2118
 3449W        W19258   9.059  14.562   3.180 -0.5371 -0.1663  0.1410
 3450W        W19259  17.368   2.338  11.431 -0.3886 -0.1902 -0.0139
 3451W        W19260  15.575  10.442  13.898  0.0410 -0.1037  0.1547
 3452W        W19261  12.001  14.440  13.976  0.0080  0.1628  0.0709
 3453W        W19262   5.558  12.570  12.429  0.1529 -0.1835 -0.1902
 3454W        W19263  14.871   0.660  11.361 -0.0727  0.0554 -0.0461
 3455W        W19264  11.676   6.551   0.883  0.4268  0.1320 -0.1778
 3456W        W19265   2.249  15.351  15.259  0.0618  0.1616 -0.1002
 3457W        W19266  17.126   0.669   1.560 -0.2984  0.0855  0.0752
 3458W        W19267  12.833  10.560  14.570  0.0004 -0.1413 -0.0912
 3459W        W19268   6.854  16.503  14.044 -0.1129  0.0964 -0.2291
 3460W        W19269   9.228   4.285  13.023 -0.1416  0.3064 -0.1104
 3461W        W19270  12.420   7.308   1.589 -0.3248 -0.0339 -0.0059
 3462W        W19271   7.387  10.857  13.180 -0.1797 -0.2411  0.0279
 3463W        W19272  12.541   6.073   5.556 -0.0778 -0.0476 -0.3078
 3464W        W19273   3.042   0.321   3.170  0.2362  0.1290  0.1909
 3465W        W19274  16.754  10.305   1.210 -0.0309 -0.1507  0.0860
 3466W        W19275  15.673  11.287   4.151  0.1777 -0.2138 -0.1481
 3467W        W19276  11.865   0.121   4.917 -0.1193  0.3338  0.3200
 3468W        W19277   6.053   2.454   0.425 -0.1719  0.0165 -0.1750
 3469W        W19278  14.497   8.034   5.780  0.0655  0.0065  0.2059
 3470W        W19279  12.284   7.073  12.531 -0.1141 -0.0272 -0.0424
 3471W        W19280   9.338   0.648   2.266 -0.1335  0.0197  0.1589
 3472W        W19281   5.506   3.133  13.527 -0.2131  0.4792 -0.1708
 3473W        W19282  12.160  12.620  10.280 -0.0609 -0.0163 -0.0950
 3474W        W19283   2.036   3.761  15.853 -0.2196 -0.0993  0.0326
 3475W        W19284  16.467   5.667  12.855 -0.1829  0.2596 -0.0316
 3476W        W19285   1.890   9.270  10.809  0.1714  0.2532 -0.0552
 3477W        W19286   0.503  17.084   0.279 -0.0089  0.1252 -0.0553
 3478W        W19287  14.280   8.082   4.090  0.1637 -0.0545 -0.0081
 3479W        W19288  16.749   8.756   0.170 -0.3123 -0.0475  0.0257
 3480W        W19289  10.302  12.926  10.762 -0.0191 -0.0148 -0.1652
 3481W        W19290   8.826  11.985  10.976 -0.0722 -0.1235 -0.1217
 3482W        W19291   7.988   2.883   1.700  0.0898  0.2219 -0.1076
 3483W        W19292   1.112  11.714  12.631  0.0523  0.3222 -0.0488
 3484W        W19293  15.149   5.859   5.788 -0.0166  0.2459  0.1971
 3485W        W19294   3.622   8.188  15.705  0.3605 -0.1237 -0.2336
 3486W        W19295  10.666  16.988   2.260  0.2494 -0.0615  0.1791
 3487W        W19296  16.852   3.373  12.966  0.1070 -0.2754  0.2265
 3488W        W19297   0.983   8.050   0.374 -0.0480 -0.2750 -0.0230
 3489W        W19298  17.829  17.470  14.464  0.6608 -0.1162 -0.1751
 3490W        W19299  12.943   2.075   4.536  0.0504  0.3372  0.1614
 3491W        W19300  16.313   3.758   2.508 -0.0874  0.3453  0.1729
 3492W        W19301  17.646   7.327  11.259  0.1832 -0.0130 -0.0829
 3493W        W19302  10.833  10.671   2.823 -0.0271  0.1998  0.0925
 3494W        W19303  15.241   1.345  15.553 -0.2700  0.3096 -0.0364
 3495W        W19304  10.545  15.722   3.475  0.1005 -0.1109  0.0254
 3496W        W19305   0.406  13.622  14.833  0.0062  0.0953  0.0647
 3497W        W19306   0.480   8.416   3.327  0.1569  0.0258 -0.1077
 3498W        W19307  16.177   0.155   1.427  0.1702 -0.2750 -0.1869
 3499W        W19308  18.036   9.252  12.007 -0.2044  0.0279 -0.0765
 3500W        W19309  10.943   6.635  11.888  0.2926 -0.0871 -0.1103
 3501W        W19310   3.176   9.308  14.364  0.0830 -0.1328 -0.1401
 3502W        W19311  16.288  15.981   5.609 -0.0799 -0.2736 -0.0844
 3503W        W19312   6.008   4.650   9.792 -0.0756 -0.3019  0.2642
 3504W        W19313  16.223  14.776  11.756 -0.0032 -0.3478 -0.1141
 3505W        W19314  10.780  13.253  13.505 -0.1036 -0.1939  0.1985
 3506W        W19315  13.773   8.746  13.370  0.0872 -0.1922 -0.1802
 3507W        W19316  12.462  14.898   2.930  0.0547 -0.1957 -0.2745
 3508W        W19317   4.414   0.081  13.114  0.2673 -0.0165 -0.2060
 3509W        W19318  16.826   7.479  11.974 -0.2669  0.1877  0.1746
 3510W        W19319   4.369  15.097  11.383  0.1253 -0.0384 -0.0240
 3511W        W19320   7.263  16.942   2.079  0.1288 -0.0112  0.2603
 3512W        W19321   2.781   6.089  13.583  0.1385 -0.2842 -0.0406
 3513W        W19322   8.065  13.396   4.087  0.0299 -0.1322 -0.0133
 3514W        W19323  15.679  12.772  13.258 -0.0129 -0.0105  0.2264
 3515W        W19324  17.284   6.664  14.854 -0.0727  0.0826  0.2465
 3516W        W19325  14.971  12.090  15.840  0.0946 -0.1500 -0.0762
 3517W        W19326   3.191  14.827   5.523  0.0743  0.2770  0.0671
 3518W        W19327   6.053   7.225  12.136 -0.0685  0.0042  0.0762
 3519W        W19328  11.457   0.448  12.135  0.1251 -0.0140 -0.0007
 3520W        W19329   5.373  15.783   1.885 -0.2270 -0.3321 -0.0540
 3521W        W19330  10.692   4.510  12.330  0.1785 -0.0429  0.0133
 3522W        W19331  13.984   8.069  14.861  0.1717  0.0136  0.1272
 3523W        W19332   5.593  15.847  15.361 -0.1866  0.0207  0.5419
 3524W        W19333  17.979  11.936  14.385 -0.1538 -0.2913 -0.1136
 3525W        W19334   4.311   6.141  13.520 -0.0638  0.2409 -0.0003
 3526W        W19335  13.276   3.866  13.410 -0.0650 -0.0185 -0.0408
 3527W        W19336   3.498  13.520   1.725  0.0434  0.0273  0.1014
 3528W        W19337  11.216  11.392   1.871 -0.1565 -0.1827 -0.0344
 3529W        W19338  17.790  15.138   0.788 -0.0101  0.2186  0.0117
 3530W        W19339   2.381   8.906   4.074 -0.0183  0.2374 -0.0711
 3531W        W19340   8.180  15.564   1.133 -0.0443  0.0501 -0.2139
 3532W        W19341   6.603   0.784   4.435  0.1445 -0.0558 -0.1484
 3533W        W19342   2.783  10.929   1.475  0.1751 -0.1367  0.0758
 3534W        W19343   0.038   0.352  13.290  0.1279 -0.2073 -0.1403
 3535W        W19344  17.950  12.849  12.967 -0.2347  0.0326  0.2064
 3536W        W19345  10.003  12.886   3.870  0.1536 -0.1699 -0.2201
 3537W        W19346  14.251  17.173   5.505 -0.0865  0.1325 -0.2948
 3538W        W19347  13.810   2.878  13.908  0.0942 -0.1152 -0.0223
 3539W        W19348   0.002   2.532   2.858  0.0928 -0.1233  0.0583
 3540W        W19349  11.815  16.485  15.018  0.1307  0.0252  0.1901
 3541W        W19350   5.792   7.503  11.776  0.2306 -0.1750  0.0273
 3542W        W19351   6.841  15.739  15.879 -0.2370  0.2133 -0.0640
 3543W        W19352  13.864   8.761  15.899 -0.0237  0.1877  0.0309
 3544W        W19353  10.054   9.230   3.353 -0.2707 -0.0007 -0.2739
 3545W        W19354   8.716  12.531  11.219 -0.1535  0.3818 -0.3548
 3546W        W19355   4.277  14.113  13.468  0.0699 -0.1756  0.3800
 3547W        W19356  13.002   4.951  11.352  0.0114 -0.0223 -0.1061
 3548W        W19357  13.401  14.521  15.413  0.4601  0.1734 -0.0731
 3549W        W19358   4.817  14.292  12.945  0.0639 -0.2716 -0.1370
 3550W        W19359   2.879   6.736   0.001  0.0559 -0.1406 -0.0901
 3551W        W19360  16.914  13.929   2.533  0.1751 -0.1484  0.0842
 3552W        W19361   1.944  18.150   2.251  0.1788  0.2391 -0.0022
 3553W        W19362   3.544   4.650  12.934  0.1834  0.1465 -0.3003
 3554W        W19363   7.138   6.351  12.598  0.0393  0.0591 -0.3442
 3555W        W19364   6.850  13.340   5.009 -0.0139 -0.0539  0.1008
 3556W        W19365  14.667   3.145   2.329 -0.2173 -0.0864 -0.1830
 3557W        W19366  16.902   2.316   4.428 -0.0673  0.1269  0.1100
 3558W        W19367   7.182   9.032   2.060 -0.1238 -0.0480 -0.2353
 3559W        W19368  16.270   8.410   3.253 -0.2153  0.0547 -0.0569
 3560W        W19369  11.622   5.760   0.245 -0.0106  0.1534  0.0771
 3561W        W19370  11.823  14.868   1.676  0.1160  0.2900 -0.2188
 3562W        W19371   2.134  15.123   3.087 -0.1398  0.0388  0.0318
 3563W        W19372   2.182   4.665   0.208 -0.0008 -0.2839  0.2773
 3564W        W19373   0.292  15.944   3.098 -0.0061  0.0575  0.2268
 3565W        W19374   8.001  12.988   4.456  0.0514  0.1425  0.0254
 3566W        W19375   1.852  12.613  13.343 -0.0852 -0.2473 -0.0044
 3567W        W19376  11.070  12.829   5.728  0.0380  0.1090  0.0709
 3568W        W19377   0.050   0.137   2.294  0.4325  0.1084 -0.0034
 3569W        W19378   7.159   0.773  10.489 -0.1065 -0.0540 -0.2395
 3570W        W19379  10.362   4.793  13.323 -0.2169 -0.2910 -0.1925
 3571W        W19380  16.400   9.449   0.129  0.0283 -0.3318 -0.0037
 3572W        W19381   0.544   1.749  14.427  0.1138 -0.3732 -0.1699
 3573W        W19382   7.632   9.480  13.081 -0.2121 -0.0056 -0.3101
 3574W        W19383   5.699   5.186   4.549  0.0899  0.0880  0.2020
 3575W        W19384   3.699   1.315  11.922  0.2758  0.2174  0.0083
 3576W        W19385  16.916  18.042   1.470 -0.0263  0.2469 -0.3671
 3577W        W19386   5.591  12.326   3.401  0.0289  0.0862  0.0232
 3578W        W19387   6.025  16.834  13.127 -0.2120 -0.1486 -0.3563
 3579W        W19388   1.814  15.331  13.180 -0.0351  0.0512 -0.0961
 3580W        W19389   7.686  16.972   3.699 -0.3248 -0.2617 -0.2730
 3581W        W19390  11.872   9.712   2.075  0.0395  0.2454 -0.1568
 3582W        W19391   1.054   9.444   0.246 -0.0774 -0.0681 -0.0872
 3583W        W19392   7.044  12.526   1.798  0.2375 -0.0381 -0.0279
 3584W        W19393   7.286  14.520  11.499  0.1468 -0.0897  0.3021
 3585W        W19394   1.252  12.544  13.997 -0.1917  0.1494 -0.1544
 3586W        W19395  12.812   5.848  14.924 -0.4181 -0.1747 -0.0646
 3587W        W19396  16.997   5.051  12.305  0.0219 -0.1797 -0.2628
 3588W        W19397  16.629   3.364   3.349 -0.2238 -0.0927 -0.2333
 3589W        W19398   4.495  17.391   0.308  0.1206  0.0461 -0.0116
 3590W        W19399   3.700   9.685   2.433 -0.1351 -0.5692  0.2534
 3591W        W19400   3.882  10.455  13.974  0.0773 -0.0335  0.1143
 3592W        W19401   8.388  12.964  13.088  0.1194 -0.4867 -0.0175
 3593W        W19402   3.710   3.267   0.363 -0.0530  0.1559 -0.1625
 3594W        W19403   8.981  16.489  14.961 -0.2298 -0.1721 -0.0696
 3595W        W19404   8.737  14.165  11.408 -0.2122  0.0824  0.2407
 3596W        W19405  16.610  13.209   1.354 -0.1613 -0.3814  0.1422
 3597W        W19406   5.412   3.470  13.138  0.0486 -0.2491 -0.1534
 3598W        W19407  15.223   9.740  13.467 -0.0096 -0.1044  0.0990
 3599W        W19408  10.884   0.549   0.899  0.0587  0.1894 -0.3732
 3600W        W19409   0.987   8.333   2.017 -0.0785  0.1893  0.0080
 3601W        W19410   8.180   4.318  12.161  0.1923  0.4115 -0.1372
 3602W        W19411  13.444   5.905   2.997 -0.3403 -0.1765 -0.1456
 3603W        W19412   5.874  13.383  13.621 -0.1636 -0.0221  0.0532
 3604W        W19413  17.736   9.189  12.405 -0.0645  0.1818 -0.2306
 3605W        W19414   8.322   5.585  15.838  0.4636  0.0021  0.0509
 3606W        W19415  12.355   3.867  11.875  0.1435 -0.3117 -0.0234
 3607W        W19416  10.744  12.286   2.949  0.2292  0.2626 -0.2415
 3608W        W19417  17.578   4.257  15.468 -0.0632  0.1862 -0.1339
 3609W        W19418  13.481   0.975  11.232 -0.2676  0.0449 -0.3143
 3610W        W19419  17.527  12.203  12.312  0.1062  0.3698  0.0436
 3611W        W19420   1.728  14.543  14.111  0.0651  0.3478  0.4281
 3612W        W19421  14.379   9.431   1.326 -0.0253 -0.1817  0.0167
 3613W        W19422  13.921   0.884   1.404  0.2038  0.3353  0.1047
 3614W        W19423  14.834  11.004   2.767  0.2249 -0.1732  0.2184
 3615W        W19424  15.332   5.430  15.343  0.0257 -0.0398  0.2991
 3616W        W19425  10.734   8.754   4.867  0.0895  0.3629  0.1237
 3617W        W19426   7.587   2.784  11.906 -0.1782 -0.0819 -0.1145
 3618W        W19427   5.030  13.492   4.266  0.1398  0.1035 -0.0259
 3619W        W19428   8.212   8.626  15.647 -0.1904 -0.0308 -0.3012
 3620W        W19429  17.863  16.599   2.927 -0.3778 -0.0794  0.2009
 3621W        W19430   7.737  11.306   0.407 -0.0341  0.0979  0.0859
 3622W        W19431  14.202   8.338  11.609 -0.1259 -0.1916  0.0069
 3623W        W19432  13.260  15.735   5.897  0.0931 -0.2929 -0.0767
 3624W        W19433  16.714  17.506  11.878  0.0830 -0.0199  0.0284
 3625W        W19434  17.181   5.696  15.080 -0.1936 -0.1079 -0.1277
 3626W        W19435   9.895  13.345  12.189  0.3730  0.2090  0.0478
 3627W        W19436  17.810   8.845  14.651 -0.1117  0.1030  0.2501
 3628W        W19437  16.863   1.440   4.204 -0.0039 -0.1850 -0.0557
 3629W        W19438   9.498  14.734   2.903 -0.0778 -0.0798 -0.1050
 3630W        W19439  11.370   2.181   4.030 -0.3452  0.2642  0.1250
 3631W        W19440   9.939   4.028  12.433 -0.1106  0.0462  0.0074
 3632W        W19441   8.093   1.827   5.641 -0.1725 -0.2154  0.1050
 3633W        W19442   2.501   9.839   4.648  0.0346 -0.1007  0.2432
 3634W        W19443   4.966  16.635   3.926  0.0128 -0.1633  0.2843
 3635W        W19444  15.646  16.421  13.165 -0.1427  0.0447  0.0541
 3636W        W19445   4.456   7.051  15.936  0.6076  0.1343  0.4945
 3637W        W19446   0.306  17.544   4.326 -0.0081  0.2928  0.1766
 3638W        W19447  10.453   4.846  15.968 -0.1521 -0.0631  0.1601
 3639W        W19448  10.501   2.621   4.572 -0.0905  0.0945 -0.1607
 3640W        W19449   2.253   7.601   3.208  0.1521  0.2399  0.1088
 3641W        W19450   9.618  16.182   5.651  0.0426 -0.0452 -0.0546
 3642W        W19451   8.869   6.042   5.151 -0.0857 -0.1822 -0.1280
 3643W        W19452   2.185   8.890   0.737 -0.0278  0.4136  0.2962
 3644W        W19453  10.026   5.418  11.146  0.1955  0.1669  0.0754
 3645W        W19454   4.385   3.238  15.419  0.0951  0.3210  0.2821
 3646W        W19455   7.623  12.233  11.409 -0.1426 -0.3045  0.2877
 3647W        W19456  10.311   4.813   2.031 -0.2389  0.2245 -0.1730
 3648W        W19457  10.832   6.381  15.658 -0.2027  0.1638 -0.0509
 3649W        W19458  13.326   9.154  14.095 -0.0256 -0.1611  0.0950
 3650W        W19459  11.300   3.675   3.766  0.2080 -0.1577 -0.1822
 3651W        W19460   4.468   1.870   0.102  0.3826 -0.0837  0.1297
 3652W        W19461   8.405   1.196   2.653  0.1940  0.1187  0.0008
 3653W        W19462   6.017  14.362   0.482 -0.1205  0.1788 -0.0598
 3654W        W19463   9.860   8.824   3.719  0.1103  0.0930  0.0915
 3655W        W19464  17.211  11.585   4.751  0.3936  0.1429  0.0238
 3656W        W19465   3.911   3.259  14.990  0.1520  0.1635 -0.0650
 3657W        W19466  13.018  10.824   2.846 -0.0996 -0.3900 -0.1499
 3658W        W19467  16.883   1.812  12.901 -0.0369 -0.0499 -0.0605
 3659W        W19468   9.303   7.256  14.594  0.1138  0.0112 -0.0826
 3660W        W19469  13.347   5.010   2.108  0.1118  0.2068  0.0001
 3661W        W19470   7.093  15.519  10.716 -0.1715  0.0190  0.1822
 3662W        W19471  15.759   6.573  11.234  0.0346 -0.0345  0.0728
 3663W        W19472  12.007   8.232   2.731 -0.0350  0.1303  0.1570
 3664W        W19473  11.372   3.519   2.524 -0.2534 -0.1975  0.2585
 3665W        W19474  15.157   5.309   3.006 -0.0650 -0.1853  0.0630
 3666W        W19475  15.543   2.560   3.692  0.0608 -0.0743  0.0019
 3667W        W19476  11.346  12.310  12.679  0.0784 -0.0489  0.0751
 3668W        W19477   7.158  15.424   1.966 -0.0441 -0.1077 -0.0917
 3669W        W19478   0.112  11.288   2.111 -0.1449  0.1680  0.1851
 3670W        W19479   2.017   0.776   3.374  0.0352  0.0841  0.0655
 3671W        W19480   9.787  17.012  13.391 -0.1913 -0.1667  0.0045
 3672W        W19481   2.846   1.159   5.491 -0.0901  0.0045 -0.0012
 3673W        W19482   5.905  14.992   4.721  0.0078  0.1134  0.3804
 3674W        W19483  10.442   0.735   4.031 -0.0709 -0.0783 -0.0448
 3675W        W19484   2.909  11.033  13.840 -0.1412 -0.2414 -0.2688
 3676W        W19485  17.380   4.458  12.735 -0.1029  0.0550 -0.0007
 3677W        W19486  12.862   3.282  15.309 -0.2493 -0.0803  0.1428
 3678W        W19487   7.627   2.944   3.441  0.2401 -0.1244 -0.1741
 3679W        W19488  18.174   1.758  14.148  0.0666  0.0449 -0.3515
 3680W        W19489   4.370   9.250  10.996 -0.0018  0.2016 -0.3227
 3681W        W19490   8.636  11.150  11.987  0.1416  0.0664  0.1504
 3682W        W19491   5.023   9.527   4.157 -0.0403  0.0867  0.2886
 3683W        W19492  17.744   8.768   0.512 -0.1451 -0.0271  0.0754
 3684W        W19493   1.218   6.505  11.812  0.2496 -0.3124 -0.0447
 3685W        W19494  10.744   3.906   0.528  0.1854  0.1904  0.4126
 3686W        W19495   6.948   4.447  12.137  0.4046  0.3328 -0.2097
 3687W        W19496   0.280   1.961   4.954 -0.1530 -0.3868 -0.0759
 3688W        W19497   8.565   9.479  15.220 -0.1482  0.2063 -0.0631
 3689W        W19498  13.800  11.981  13.436 -0.0956 -0.2520 -0.0075
 3690W        W19499   4.775   6.214   5.415  0.3425  0.0726 -0.0871
 3691W        W19500  10.567  11.655  12.402 -0.2460 -0.1076  0.1554
 3692W        W19501  16.205   9.671   3.399  0.1113  0.0920  0.2911
 3693W        W19502   7.788  13.816  13.202  0.2359 -0.1887  0.0098
 3694W        W19503   7.732  10.845  15.594  0.1205 -0.0107  0.0994
 3695W        W19504  11.721   1.515  13.752 -0.1350 -0.1220  0.0062
 3696W        W19505   8.284   4.279   3.815 -0.3141  0.0819  0.0753
 3697W        W19506  13.637  17.805   5.251  0.2204 -0.1146 -0.0637
 3698W        W19507   9.957  13.590  11.728 -0.3333  0.2428  0.3352
 3699W        W19508   6.867  17.529  11.234  0.1322  0.2579 -0.2391
 3700W        W19509   7.311  16.687  15.094  0.1609 -0.1004  0.0386
 3701W        W19510   6.405  13.418   0.128 -0.0748 -0.1884  0.0456
 3702W        W19511   0.412  10.194   5.709 -0.3221 -0.2753  0.2969
 3703W        W19512   0.075   2.162  13.852  0.1117  0.0752 -0.1085
 3704W        W19513   4.989   8.865   0.113 -0.1863 -0.1627 -0.0716
 3705W        W19514  15.456   4.544   4.157  0.1218 -0.1149  0.3514
 3706W        W19515   7.168   5.536  14.643  0.0015  0.1947 -0.4400
 3707W        W19516   3.909   8.076   3.029  0.0830 -0.1510  0.0813
 3708W        W19517   0.086   6.953   3.522 -0.0219 -0.0133  0.0474
 3709W        W19518   5.283  15.238   0.920 -0.2496  0.0414 -0.0992
 3710W        W19519  11.871  13.856  13.965  0.0453  0.2014  0.0927
 3711W        W19520  10.433   0.781   0.818 -0.5490 -0.3877  0.2814
 3712W        W19521   7.713  13.379  12.982  0.0798 -0.1837  0.2917
 3713W        W19522  17.328  15.438  14.850  0.1889  0.2381  0.0494
 3714W        W19523   4.734  16.719  11.952  0.0199 -0.1325  0.0340
 3715W        W19524  14.831   9.355  13.612  0.0612 -0.1136 -0.0179
 3716W        W19525  17.903  14.857   3.774  0.0211 -0.0617  0.1000
 3717W        W19526   2.847   9.291   1.871 -0.2231 -0.1377 -0.0013
 3718W        W19527   3.300   7.651   4.747  0.0551 -0.2349  0.1837
 3719W        W19528   9.817   4.538   0.034 -0.2928 -0.0029  0.1514
 3720W        W19529   3.418   0.996   4.234 -0.1678 -0.0343 -0.0936
 3721W        W19530  17.162   1.495   1.338  0.1355 -0.3995  0.3689
 3722W        W19531   3.262   6.155  13.453 -0.1014 -0.2030 -0.4434
 3723W        W19532   9.148   2.107  13.880  0.2394 -0.1957 -0.0571
 3724W        W19533  12.869   2.125  15.072 -0.0336  0.0384  0.0261
 3725W        W19534  12.950   3.185   1.835 -0.0257  0.3033 -0.0651
 3726W        W19535   4.971   7.965  14.270 -0.2514 -0.1416  0.2342
 3727W        W19536  10.275  15.245  11.484 -0.3012  0.3890 -0.1608
 3728W        W19537  11.058   5.465   3.477  0.3476  0.1140  0.5813
 3729W        W19538  11.156   1.678   3.343  0.0913  0.4261 -0.0978
 3730W        W19539   0.818   0.764  14.378 -0.0524  0.1359  0.0174
 3731W        W19540  10.005  16.304  15.578 -0.0064 -0.3177  0.0645
 3732W        W19541   0.762   4.486  13.128 -0.2523 -0.0816 -0.0524
 3733W        W19542   4.162  18.251  16.030 -0.0353 -0.0709 -0.4411
 3734W        W19543   6.421   0.443  15.851  0.2102  0.1905 -0.1395
 3735W        W19544   0.375  14.987   4.993  0.0932 -0.1567  0.3516
 3736W        W19545   7.547  12.923  11.610 -0.2406 -0.1857 -0.0409
 3737W        W19546   8.731   6.336   3.400 -0.2508 -0.3489  0.2320
 3738W        W19547  10.173  17.130  11.334  0.2143  0.0961 -0.0602
 3739W        W19548   3.689  15.376   4.136 -0.0156  0.1055 -0.2001
 3740W        W19549   6.645  12.337  14.236  0.0895  0.0525 -0.2152
 3741W        W19550   2.677   8.977  13.699 -0.0337 -0.5964  0.0587
 3742W        W19551   9.221  17.017  14.250  0.0480  0.0029  0.0665
 3743W        W19552  15.744   4.357   3.795  0.1537 -0.2140 -0.0822
 3744W        W19553   4.025   3.982   0.801 -0.0335 -0.2572  0.2403
 3745W        W19554  12.984  10.315  13.654  0.0435 -0.1217 -0.2760
 3746W        W19555   6.635   8.926   3.337  0.0724 -0.0480 -0.1133
 3747W        W19556  16.300  11.637  12.850 -0.2809  0.0073 -0.0915
 3748W        W19557   9.694   0.450   4.261 -0.3675 -0.1449  0.2598
 3749W        W19558  14.050   8.766  14.152 -0.2056  0.0683  0.0456
 3750W        W19559  16.951  15.270  11.081 -0.0441  0.0019  0.1807
 3751W        W19560  15.708   9.005  12.462 -0.1042 -0.0788  0.1936
 3752W        W19561   9.345   2.248   3.467 -0.1142 -0.0785 -0.2387
 3753W        W19562   1.999   2.478   3.673 -0.0327 -0.1348  0.2583
 3754W        W19563   1.033  10.573  13.743  0.3400 -0.3093  0.1230
 3755W        W19564   8.054   9.970  15.812 -0.1921 -0.2200  0.0194
 3756W        W19565   1.441   5.313   1.253 -0.0553  0.0733 -0.2382
 3757W        W19566  13.402  17.783  11.739 -0.3932 -0.3140 -0.1141
 3758W        W19567   3.232   9.849   2.742 -0.3702 -0.2837 -0.0716
 3759W        W19568   0.900   1.620  11.597 -0.0957  0.2096  0.1949
 3760W        W19569   3.315   7.148  12.453 -0.2736  0.0419  0.1989
 3761W        W19570  14.516  13.459   3.757  0.0183  0.1833 -0.2398
 3762W        W19571  16.570   8.146   3.591 -0.2285 -0.0577  0.1537
 3763W        W19572  16.178   6.061   4.251 -0.3386 -0.2337  0.0791
 3764W        W19573   3.603   9.701   1.927  0.0803  0.2085  0.0233
 3765W        W19574   1.668   7.569   3.204  0.1214 -0.0551  0.3006
 3766W        W19575  12.269   6.360  10.838  0.0340 -0.2422 -0.2281
 3767W        W19576   6.237  12.778   5.427  0.0161 -0.2241  0.3082
 3768W        W19577   8.107   7.331  12.152 -0.0776  0.0128  0.2143
 3769W        W19578   5.817  18.019  15.673 -0.1307  0.0037  0.1243
 3770W        W19579   0.405   4.096  13.571 -0.0977  0.2443 -0.0030
 3771W        W19580   1.768  13.402  12.578  0.0898 -0.1056  0.1284
 3772W        W19581   4.147   7.258   3.742 -0.1431  0.3041  0.1005
 3773W        W19582   3.629  15.385  14.828  0.0932  0.0417  0.1165
 3774W        W19583  13.217   7.572   3.117  0.2421  0.3354 -0.0829
 3775W        W19584   2.125   9.011  14.390 -0.1544 -0.1904 -0.0481
 3776W        W19585   8.602   9.363  12.026 -0.0791  0.0088 -0.1466
 3777W        W19586  10.489  11.010  12.571 -0.3870  0.0927  0.0309
 3778W        W19587  12.121  12.205  15.748 -0.1675 -0.2144  0.0041
 3779W        W19588  13.050   0.673  15.347 -0.0110  0.2116  0.0829
 3780W        W19589  17.644  11.791  13.390 -0.0410  0.1502  0.2053
 3781W        W19590  10.297  14.598   0.296  0.0507  0.1264 -0.0618
 3782W        W19591  14.190  16.331  10.910 -0.1811 -0.0295  0.1040
 3783W        W19592   5.622  17.490  15.552 -0.0113 -0.2686 -0.0982
 3784W        W19593  17.592  11.926   4.506 -0.3936 -0.0079 -0.0875
 3785W        W19594  16.745   0.755  13.386  0.1104 -0.0046 -0.1150
 3786W        W19595  16.424   0.353   3.242 -0.3693  0.1487  0.0725
 3787W        W19596   8.202  10.762   0.688  0.1145  0.1545  0.1393
 3788W        W19597   6.539   5.772   4.245 -0.2765 -0.1567 -0.2074
 3789W        W19598   4.846   7.843   3.908  0.0818 -0.0937  0.3966
 3790W        W19599   0.105  11.857  14.027  0.0832  0.1476 -0.2147
 3791W        W19600  12.064   3.078  10.539 -0.4316  0.3596 -0.0200
 3792W        W19601  16.369   5.584  12.359 -0.1117  0.1560 -0.0576
 3793W        W19602   3.000   1.056   3.955 -0.0936  0.0936  0.2160
 3794W        W19603   0.120   4.145   0.194  0.0804 -0.0156  0.1246
 3795W        W19604  16.753  18.198  13.184  0.1625 -0.0360  0.0327
 3796W        W19605   6.442  15.872   4.353  0.0185  0.0261  0.0911
 3797W        W19606   0.113   2.474   4.252 -0.2629  0.1847 -0.1625
 3798W        W19607  13.172  14.113  14.574 -0.0287 -0.1413 -0.0242
 3799W        W19608   9.522  13.672  12.089  0.0766 -0.1942  0.2337
 3800W        W19609   8.520   9.973  11.372 -0.0986  0.0564  0.1755
 3801W        W19610   1.516  15.221   1.798 -0.1476  0.0973  0.3016
 3802W        W19611  15.330  14.888  14.115  0.0486  0.1013 -0.0753
 3803W        W19612  13.935  12.341   0.350 -0.0679 -0.3578 -0.2195
 3804W        W19613  14.244  18.097   1.214  0.2188 -0.2788 -0.0215
 3805W        W19614  11.708  13.757  15.564 -0.1805 -0.2518 -0.0221
 3806W        W19615  17.184  11.664  13.011  0.1290 -0.1078  0.0826
 3807W        W19616   1.195   6.299  12.858  0.0198 -0.2948  0.1804
 3808W        W19617   0.549  17.890  10.696 -0.0604  0.1437 -0.1131
 3809W        W19618   4.968  16.542  12.317 -0.0430 -0.0120  0.1037
 3810W        W19619  14.111   0.731   0.937 -0.2243 -0.1210  0.1064
 3811W        W19620   5.954   2.169  14.940  0.1888 -0.1115 -0.3142
 3812W        W19621   2.049   1.494  13.583 -0.0020 -0.3639  0.1318
 3813W        W19622   5.513  10.468   2.377 -0.2837 -0.1138  0.1582
 3814W        W19623   6.851   3.689   1.983 -0.0979  0.1110 -0.0210
 3815W        W19624  12.076   3.001   2.815 -0.2251  0.2589 -0.0194
 3816W        W19625   4.486   4.917   1.885  0.1120  0.3543 -0.1140
 3817W        W19626  15.965   5.923  12.755  0.2061  0.0014  0.0227
 3818W        W19627  17.813   8.682  13.644  0.0645  0.0491  0.0524
 3819W        W19628   1.046   0.317  14.235  0.2941  0.1694 -0.3391
 3820W        W19629  13.743   2.601  15.574 -0.1818 -0.1053  0.1266
 3821W        W19630   2.687   4.545  14.338 -0.2940  0.0755  0.0136
 3822W        W19631   6.221  16.886  12.692 -0.2080 -0.0874 -0.2840
 3823W        W19632   6.347   8.486   2.565 -0.2361  0.3016  0.0664
 3824W        W19633  13.850   5.190   2.125  0.0065 -0.0289 -0.0611
 3825W        W19634   8.767   4.859   2.810  0.2872  0.2670  0.1624
 3826W        W19635  12.757   9.796  15.720 -0.0176  0.1072 -0.1019
 3827W        W19636   4.204  12.608  13.324 -0.0553  0.1532  0.1365
 3828W        W19637  17.387  15.449  11.763 -0.0776 -0.2181  0.1919
 3829W        W19638  14.131  13.786   4.757  0.0892  0.0284  0.2330
 3830W        W19639  13.986   4.767   1.261 -0.2226 -0.0294  0.1657
 3831W        W19640  10.440   7.503  13.997  0.2461 -0.0601  0.1639
 3832W        W19641  13.624  12.771  14.496 -0.1189  0.1577 -0.1662
 3833W        W19642   4.052   0.092  15.044  0.1421  0.1427 -0.0731
 3834W        W19643   9.828  15.888   2.718  0.0319 -0.0213  0.2710
 3835W        W19644   8.258  10.271   0.553  0.1694  0.0313  0.0189
 3836W        W19645   1.711   2.603   2.802  0.0883  0.0009  0.0126
 3837W        W19646   4.022  14.247  11.700 -0.2503  0.1667  0.0862
 3838W        W19647   0.745  14.173  12.882  0.0262 -0.2272  0.1547
 3839W        W19648   0.495  10.170   3.657 -0.0358  0.2699 -0.0225
 3840W        W19649  12.720   5.552   1.108 -0.1644  0.0485 -0.1575
 3841W        W19650  11.240   2.956   0.838  0.0363 -0.1131 -0.1240
 3842W        W19651   2.307   2.825  13.857 -0.2461 -0.1390  0.1278
 3843W        W19652   9.012  11.283   0.317 -0.0662 -0.1000 -0.1888
 3844W        W19653  16.529  13.786  15.920 -0.2173  0.1413  0.1328
 3845W        W19654   6.063  10.858  12.639  0.2701 -0.2729  0.1594
 3846W        W19655  11.796  11.954  14.751  0.1529  0.0045 -0.0289
 3847W        W19656  10.402   3.485   0.679  0.2076 -0.0063  0.0529
 3848W        W19657   0.922  11.418  15.533 -0.1747 -0.3073 -0.0756
 3849W        W19658   4.673   4.800   2.824  0.3082  0.0545 -0.0650
 3850W        W19659   0.483   2.397   4.782  0.1011 -0.0187 -0.1109
 3851W        W19660   7.760   4.420  10.663  0.2016 -0.0000  0.0859
 3852W        W19661   8.001   5.868   3.795 -0.1508  0.1891  0.0673
 3853W        W19662   4.193   9.760   5.183 -0.2636 -0.0156  0.0947
 3854W        W19663  10.303  13.135  13.481  0.1466 -0.0155  0.1775
 3855W        W19664  16.058   0.119  15.344 -0.0471 -0.1840 -0.1872
 3856W        W19665  12.000  16.493  12.383 -0.2051 -0.2245 -0.2460
 3857W        W19666   1.251  10.691  11.721  0.1392 -0.0313 -0.2220
 3858W        W19667   1.647   0.904  15.104  0.0984 -0.4839 -0.2112
 3859W        W19668  17.326  12.605  14.513  0.2610  0.0329  0.1263
 3860W        W19669   6.748  16.242   0.675  0.0698 -0.0103 -0.0263
 3861W        W19670  10.199  17.165  11.920  0.1459 -0.0167 -0.3180
 3862W        W19671   7.152  10.400  12.524 -0.1405 -0.3645 -0.1007
 3863W        W19672   3.707  10.479  14.530  0.2201  0.1597  0.3618
 3864W        W19673   1.098   9.115   4.510  0.1814 -0.0052  0.1448
 3865W        W19674   6.992  14.672  12.815 -0.1079 -0.0894  0.0354
 3866W        W19675   9.296  10.090   0.491  0.3143  0.1343 -0.0662
 3867W        W19676  11.777  10.630  14.390  0.1029  0.3776  0.0343
 3868W        W19677   5.165   8.314  12.725 -0.2116  0.1192  0.0080
 3869W        W19678  14.091   9.582  13.228 -0.0647 -0.4330  0.0651
 3870W        W19679   0.003   7.640   4.133  0.0493 -0.0985  0.2000
 3871W        W19680   0.133  11.800  12.325  0.2332 -0.1021  0.0355
 3872W        W19681  15.200   3.148   5.546 -0.0207 -0.3184  0.0020
 3873W        W19682   2.165  16.994  12.826  0.0469 -0.2324  0.1121
 3874W        W19683  12.447  14.303   0.605  0.2935 -0.2106 -0.0850
 3875W        W19684  12.682   8.165   1.304  0.2484  0.0244 -0.1922
 3876W        W19685  12.141  16.555   3.529  0.0648 -0.0840  0.0362
 3877W        W19686  16.192   1.962  13.065 -0.1925 -0.1172  0.1127
 3878W        W19687   5.462   6.187   4.278  0.3978 -0.1309  0.0346
 3879W        W19688  17.425   0.398  12.370  0.2619  0.0154  0.0583
 3880W        W19689  15.208  12.014  11.400  0.0639 -0.0993  0.0607
 3881W        W19690   6.435   1.314  12.172  0.1180 -0.2818 -0.1200
 3882W        W19691   6.236  17.060  11.759  0.2398 -0.0694  0.0233
 3883W        W19692   1.662  10.622  13.238 -0.1786  0.4370 -0.1838
 3884W        W19693   1.842   1.070  11.546 -0.0092  0.0009  0.2321
 3885W        W19694   3.483  10.381  10.335  0.1505  0.1061 -0.1280
 3886W        W19695   8.835  12.092  11.597 -0.0873 -0.0028  0.0202
 3887W        W19696  17.953  15.360   2.394  0.0309 -0.1836 -0.0767
 3888W        W19697  12.391  10.470   0.689  0.0288 -0.0831 -0.0322
 3889W        W19698   3.867   0.097  11.140  0.0279 -0.4193  0.1352
 3890W        W19699   4.315  13.568  13.564 -0.2207 -0.4324  0.1739
 3891W        W19700   8.070   5.602  11.813 -0.0637 -0.0026 -0.0467
 3892W        W19701  16.320   1.986   6.173 -0.2502 -0.1050 -0.0378
 3893W        W19702  17.346   6.809  10.025  0.0743  0.0185  0.3276
 3894W        W19703   5.602   7.915  14.456  0.0786  0.1200 -0.1694
 3895W        W19704   8.884  17.051  15.102 -0.0871  0.0861  0.1820
 3896W        W19705  16.646  11.164   4.200 -0.1868 -0.0030  0.0149
 3897W        W19706   0.390  11.000   4.650 -0.0992  0.0354  0.1816
 3898W        W19707   3.674   9.342  14.448  0.1360 -0.0516 -0.1903
 3899W        W19708   9.188   5.278  11.248  0.0672 -0.1020 -0.2753
 3900W        W19709   7.023   2.848  15.541  0.0831  0.1711 -0.2755
 3901W        W19710  14.912   7.022   2.163 -0.1434  0.0433 -0.0913
 3902W        W19711   0.885   6.517   3.692 -0.0230 -0.0323 -0.1186
 3903W        W19712  12.800  16.456  13.580  0.1790  0.1873 -0.1382
 3904W        W19713   0.229  12.917   3.285 -0.0603  0.0193  0.2074
 3905W        W19714  10.686  10.949   4.016  0.0524  0.1237 -0.0826
 3906W        W19715   4.486   9.200  12.534 -0.1725  0.3300  0.0680
 3907W        W19716   9.766  13.870   1.225  0.0493 -0.1766  0.0626
 3908W        W19717  13.300  17.908   0.111  0.1456  0.2594  0.1463
 3909W        W19718   0.200   2.531  14.169  0.1853  0.3796  0.2491
 3910W        W19719  16.095   6.030   3.751  0.0014  0.0224 -0.1902
 3911W        W19720   7.706  16.035  13.076  0.2785  0.0356 -0.3061
 3912W        W19721  17.409  10.551  14.718 -0.2293  0.0877  0.0913
 3913W        W19722   1.484   4.333   4.881  0.0824  0.0750  0.1314
 3914W        W19723   5.925   9.383  11.386  0.2446  0.2940  0.0007
 3915W        W19724   7.810   5.168   1.675  0.1617  0.3134 -0.0676
 3916W        W19725  14.433   7.982   0.965 -0.1021  0.2736 -0.1210
 3917W        W19726   9.383  16.088  15.523  0.0485 -0.2647 -0.1086
 3918W        W19727   6.085  15.462   0.539 -0.1626 -0.1735 -0.1216
 3919W        W19728  14.593   6.911   4.027 -0.1641 -0.1807  0.3204
 3920W        W19729   0.143  10.296  15.894 -0.3790 -0.1887  0.0481
 3921W        W19730   5.744  17.250   5.462  0.0149  0.1740 -0.5349
 3922W        W19731  10.555   0.141   5.608  0.1194  0.0861  0.1051
 3923W        W19732   0.043   2.855  15.908 -0.1985 -0.0049 -0.3047
 3924W        W19733   7.771   6.983  13.735  0.0340 -0.0809  0.4260
 3925W        W19734  10.341  12.133   3.743 -0.1052  0.2084 -0.3451
 3926W        W19735   5.231  16.211  11.345  0.1534  0.2328 -0.0630
 3927W        W19736   3.155   4.402   2.263  0.1675 -0.3020  0.0133
 3928W        W19737   1.954   9.061  12.211 -0.1579 -0.2117 -0.1223
 3929W        W19738  13.434  14.355   1.487  0.2863  0.1278 -0.2923
 3930W        W19739  11.299  16.343  15.220  0.2513  0.2593 -0.1357
 3931W        W19740  16.070   4.725   0.875  0.0198  0.0159  0.2908
 3932W        W19741  16.439  10.434   4.732  0.1189 -0.0802 -0.0668
 3933W        W19742  14.345  11.415  15.815  0.1848  0.1307 -0.2217
 3934W        W19743  13.167  15.740  14.497 -0.6256 -0.0735 -0.1702
 3935W        W19744  14.108  14.550   2.492  0.2782 -0.0019  0.3533
 3936W        W19745   2.558   8.273  14.140 -0.0441  0.2831 -0.0854
 3937W        W19746   1.881  16.148   9.801 -0.0380  0.3243 -0.1114
 3938W        W19747  15.654  16.011   1.053 -0.0227 -0.1115  0.2755
 3939W        W19748   7.496  15.105  10.896 -0.0336  0.0168 -0.1266
 3940W        W19749   1.932  13.939  14.191 -0.1792 -0.1751 -0.1779
 3941W        W19750  15.682  10.660  15.316  0.3418  0.0844  0.0439
 3942W        W19751   0.299  11.828  13.280  0.0244 -0.0158  0.1627
 3943W        W19752  14.548   1.851  15.170 -0.0400 -0.0768  0.0499
 3944W        W19753  10.206  11.198  10.072 -0.0083 -0.2606 -0.1683
 3945W        W19754   0.479   0.338   1.574 -0.3129  0.1712  0.0717
 3946W        W19755  15.421   1.981  12.439 -0.4309  0.0923 -0.2059
 3947W        W19756   5.775   3.560   4.337  0.1158  0.0755  0.2084
 3948W        W19757  13.838   9.163   1.387 -0.1259 -0.0057  0.1486
 3949W        W19758   6.682  12.598  15.739 -0.0887  0.2876  0.2568
 3950W        W19759   5.325   8.675  15.779  0.0019  0.1233 -0.0118
 3951W        W19760  15.697   6.510  15.277  0.0589  0.2047  0.0081
 3952W        W19761  11.838   2.348   0.649 -0.0397 -0.0607  0.1384
 3953W        W19762  17.425  15.955   3.928 -0.3184  0.2020 -0.1801
 3954W        W19763   4.607  17.068   1.442 -0.0986 -0.0110  0.1400
 3955W        W19764  13.741  10.848  11.566  0.1112 -0.0300 -0.0209
 3956W        W19765   3.402   3.586   1.166 -0.1016  0.1220  0.2935
 3957W        W19766   9.827   0.246  11.687  0.2330  0.0843  0.0130
 3958W        W19767  15.676  11.170  15.406 -0.1057  0.0241  0.0745
 3959W        W19768   6.154   0.979  10.599 -0.0355  0.0462 -0.0957
 3960W        W19769   0.483  12.694   0.711  0.1192 -0.0913  0.0481
 3961W        W19770  11.124   5.241   5.108  0.0536  0.2610 -0.0892
 3962W        W19771  10.923   8.343  12.436 -0.0517  0.1017 -0.0915
 3963W        W19772   1.907   9.884  15.890  0.2194 -0.0068  0.1325
 3964W        W19773  13.034   2.091  13.997 -0.1157 -0.0250 -0.3411
 3965W        W19774   3.789  14.422  12.682 -0.0740  0.3232  0.0605
 3966W        W19775  15.582   9.511   0.829 -0.3355 -0.2488  0.1968
 3967W        W19776   8.308  16.740  13.517  0.1305 -0.3971 -0.0844
 3968W        W19777   5.285   5.068  10.058  0.1303 -0.0881  0.0984
 3969W        W19778  11.790   7.917  15.029 -0.0168 -0.1780  0.1160
 3970W        W19779  11.752  10.323  13.155  0.3302  0.1056 -0.1499
 3971W        W19780   2.836   1.132  12.280 -0.1773 -0.0348  0.0402
 3972W        W19781   9.220  14.467  14.295 -0.2588 -0.3563  0.0825
 3973W        W19782  15.274   4.272   3.582  0.3524 -0.0849 -0.1541
 3974W        W19783  16.163   7.336   3.255  0.0362  0.3957 -0.0848
 3975W        W19784   9.626   7.987  13.515  0.3187  0.0695  0.0258
 3976W        W19785  16.250   6.273  11.987  0.0173 -0.2015 -0.0451
 3977W        W19786  12.609   6.890   1.816 -0.0432  0.0333  0.0376
 3978W        W19787   0.382  17.993  12.695  0.0848  0.0599 -0.0481
 3979W        W19788  11.839  13.884  13.398  0.0782  0.1762  0.1783
 3980W        W19789   4.861  16.495  13.961  0.0575  0.1030 -0.0835
 3981W        W19790  16.716   9.001   5.513 -0.0676  0.0383 -0.0610
 3982W        W19791   2.257  10.118  15.437  0.0100 -0.0591  0.0528
 3983W        W19792  11.532   7.160   4.807 -0.0149 -0.1485 -0.0409
 3984W        W19793   9.723  14.263  11.500  0.2294 -0.1518  0.4154
 3985W        W19794   0.346   5.929  14.167 -0.0186  0.1096 -0.2542
 3986W        W19795   5.300  10.471  14.451  0.1541 -0.2206 -0.1647
 3987W        W19796   7.538  13.534  13.489  0.3585  0.1021 -0.0951
 3988W        W19797  13.411  10.285  11.897 -0.2505  0.1889 -0.0351
 3989W        W19798   6.703   6.469   1.766  0.1294 -0.1272 -0.2896
 3990W        W19799  10.128  17.558  10.582 -0.2986 -0.0250 -0.0064
 3991W        W19800   1.998   5.528  11.627 -0.2363 -0.2293  0.0547
 3992W        W19801   9.034  17.854  15.560 -0.3930  0.3245  0.0809
 3993W        W19802   6.696   1.961  14.145 -0.1444 -0.0289  0.0319
 3994W        W19803  15.141  14.652   3.358  0.1093  0.1481 -0.0563
 3995W        W19804   9.201  15.308  11.841  0.1459 -0.0300  0.3454
 3996W        W19805   0.834   0.605   1.962 -0.0667  0.1194  0.1674
 3997W        W19806  14.714  10.577  14.890  0.1998  0.3451  0.1627
 3998W        W19807   4.480   5.197  10.948  0.0699 -0.1740 -0.0955
 3999W        W19808  14.544   9.379  13.216  0.0615 -0.0253  0.3398
 4000W        W19809   6.235  17.399   1.079 -0.1646  0.0684 -0.0162
 4001W        W19810   9.014   3.905   5.437  0.1964 -0.0671 -0.1058
 4002W        W19811  11.369  16.600   4.434  0.0391 -0.5195 -0.3692
 4003W        W19812   8.152  17.358   4.847  0.2001  0.0536 -0.1351
 4004W        W19813  17.649  13.317  12.850 -0.3023  0.2283  0.2032
 4005W        W19814   0.754   7.459   5.311  0.0466 -0.0130  0.0778
 4006W        W19815  11.269  11.240  12.763 -0.0880 -0.2725  0.0460
 4007W        W19816   0.136  11.607  15.095 -0.0601 -0.0654 -0.1300
 4008W        W19817  16.296  16.400   4.120  0.2238 -0.2661  0.2533
 4009W        W19818  18.248   8.399   5.870  0.2058  0.1303  0.2595
 4010W        W19819  17.662  15.479  14.415 -0.0528 -0.0173 -0.1292
 4011W        W19820   7.372   9.519   1.982 -0.0093  0.1654  0.0757
 4012W        W19821   9.515   7.678   1.858  0.2536 -0.2495  0.1150
 4013W        W19822  16.315   8.922   3.253  0.2884  0.3458 -0.2670
 4014W        W19823   3.874   0.358  15.797  0.1391 -0.0660 -0.3698
 4015W        W19824   9.677  12.470   2.189  0.2756  0.3294  0.1422
 4016W        W19825  17.010   2.345   3.331  0.2511 -0.2336 -0.1311
 4017W        W19826   7.736   7.408   3.190 -0.1037  0.1880 -0.1476
 4018W        W19827  10.037  11.071  10.974  0.0003 -0.0927 -0.1410
 4019W        W19828  11.703  10.193   3.410 -0.1558  0.4301  0.2063
 4020W        W19829  10.654  10.171   0.794  0.1725  0.0144  0.0019
 4021W        W19830  14.468  15.597   4.581  0.0231  0.0077  0.1448
 4022W        W19831   1.109  11.743  14.667 -0.0885 -0.1583 -0.1026
 4023W        W19832   0.031  13.332  15.702  0.0002 -0.0995  0.2047
 4024W        W19833  16.832  15.941  12.846 -0.1059  0.0473  0.0357
 4025W        W19834  18.134   4.652  14.884 -0.1186 -0.0377  0.0707
 4026W        W19835   6.302   8.909  12.041 -0.1702 -0.1807 -0.0408
 4027W        W19836   0.158   3.165   2.301  0.1967 -0.1325  0.1413
 4028W        W19837   9.062   2.155  14.436 -0.1178 -0.0531  0.1259
 4029W        W19838   2.097  10.237   4.736 -0.0980  0.0939  0.1981
 4030W        W19839  10.024   4.108   2.641 -0.0658 -0.2283 -0.1010
 4031W        W19840   5.681  14.276  14.735  0.1514 -0.1077 -0.0388
 4032W        W19841   4.232  15.303  14.658  0.0861 -0.2641 -0.1008
 4033W        W19842   2.666  16.080   1.007 -0.0513  0.0586 -0.1698
 4034W        W19843   7.206  13.822  13.743  0.3352 -0.0384 -0.2412
 4035W        W19844   2.018   7.894   0.420 -0.0140 -0.0799 -0.0656
 4036W        W19845   0.780   8.181  13.459 -0.1460 -0.1587  0.1380
 4037W        W19846   0.128   9.834  16.005  0.2296 -0.1252 -0.1903
 4038W        W19847  13.799   2.160  15.770 -0.2680 -0.1493  0.0502
 4039W        W19848  16.236  13.134   1.004  0.2690  0.0889 -0.0871
 4040W        W19849  10.513   8.840   3.025 -0.1905 -0.2647  0.1307
 4041W        W19850  13.942   4.508   4.889 -0.0214  0.1022  0.1853
 4042W        W19851  14.307  14.859  15.590  0.0030 -0.2310  0.0852
 4043W        W19852  10.616   0.221   0.596  0.0575 -0.0201  0.5102
 4044W        W19853   6.328   9.143   2.083 -0.0840  0.0117 -0.2802
 4045W        W19854   3.534   1.990  14.651 -0.0285 -0.1608  0.0204
 4046W        W19855   5.938  14.408  13.420 -0.0280  0.2014  0.1966
 4047W        W19856  16.085   2.587  11.493 -0.0310  0.0095 -0.0522
 4048W        W19857   1.926   4.682  11.907 -0.0768 -0.1451 -0.0072
 4049W        W19858  11.517   1.878  14.238  0.1528 -0.0977  0.0512
 4050W        W19859   2.969  16.894  13.469  0.2487 -0.0636  0.1875
 4051W        W19860   0.594   0.456  11.567 -0.0899  0.0813  0.1411
 4052W        W19861   9.151  16.086  14.601 -0.0571 -0.0510 -0.1324
 4053W        W19862   2.705   6.378   3.741 -0.0421  0.1893  0.1537
 4054W        W19863  15.796  14.384  14.702 -0.1692  0.0223  0.2576
 4055W        W19864  15.609   3.027  14.993 -0.0124 -0.0477 -0.0419
 4056W        W19865  11.102  10.055   1.685 -0.0632 -0.0948  0.3455
 4057W        W19866   8.000   4.784  12.368 -0.0170  0.1033  0.2678
 4058W        W19867   5.601  15.239  15.226  0.1984 -0.1359 -0.0146
 4059W        W19868   6.774   1.960  12.831  0.3675 -0.1176 -0.0939
 4060W        W19869  13.389   4.542   3.464  0.0571 -0.2917 -0.1475
 4061W        W19870   5.473  13.187  11.079  0.0331  0.0613 -0.1196
 4062W        W19871  10.538  13.142   2.611 -0.1402  0.1253  0.0823
 4063W        W19872  15.983  12.562  15.824 -0.1446 -0.1182 -0.0709
 4064W        W19873  16.894  13.445  13.007  0.0347  0.4008  0.2804
 4065W        W19874  12.986  16.336   0.732 -0.2894 -0.2718  0.1441
 4066W        W19875  12.919   5.634  14.092  0.1229  0.0014 -0.2537
 4067W        W19876   2.913   2.603  13.874 -0.2457 -0.3539 -0.1183
 4068W        W19877  14.045  12.649   3.716 -0.1281 -0.1172  0.0965
 4069W        W19878   2.207   1.639  12.762 -0.1034  0.0756 -0.1071
 4070W        W19879   8.701  13.071  11.102  0.1571 -0.1475 -0.0275
 4071W        W19880   4.962  16.824   5.431 -0.2317  0.1497  0.0381
 4072W        W19881  14.041   8.777  11.771  0.3267 -0.1266 -0.3898
 4073W        W19882   5.024  13.441  11.029 -0.2117 -0.0728 -0.1941
 4074W        W19883   2.504  16.608   1.294  0.2435 -0.0578  0.0642
 4075W        W19884   8.037  14.845  14.144  0.0470  0.3683  0.1118
 4076W        W19885   5.031   9.223   0.636 -0.0237  0.1049 -0.0372
 4077W        W19886   2.238   9.154  13.017 -0.3418 -0.0499  0.1102
 4078W        W19887  15.761   3.010  15.865  0.6307 -0.0877  0.0075
 4079W        W19888  12.926   5.134   0.909  0.0620  0.0723 -0.2133
 4080W        W19889   2.463  16.467  11.111 -0.1235  0.3248 -0.2379
 4081W        W19890  12.169   9.413   3.640 -0.0218  0.1909 -0.0692
 4082W        W19891   7.011   6.750  11.743 -0.0491  0.2461  0.1860
 4083W        W19892  11.670   0.722  14.310  0.0860 -0.0361  0.0794
 4084W        W19893   8.764  12.508   4.171  0.1179  0.2116  0.1204
 4085W        W19894  14.767  15.706   2.929 -0.0003  0.1609 -0.3649
 4086W        W19895  11.272  15.821   4.427  0.1317 -0.0772 -0.0919
 4087W        W19896  15.673   2.958   3.486 -0.1010 -0.0268  0.0110
 4088W        W19897   4.635  15.204  14.208 -0.0926 -0.0177 -0.0166
 4089W        W19898  10.708  15.528  15.167 -0.0501  0.0376  0.2210
 4090W        W19899   8.632   1.525   3.067 -0.1456  0.1369  0.1227
 4091W        W19900  17.292  11.090   1.237  0.1275 -0.2819  0.0157
 4092W        W19901   6.841   9.377  10.867  0.0625  0.1812  0.1595
 4093W        W19902  11.829  18.050   2.889  0.0961 -0.0900 -0.1495
 4094W        W19903  16.626   6.516  12.332 -0.1343 -0.1169  0.3227
 4095W        W19904  10.114  17.305  15.762  0.1640  0.0494  0.5959
 4096W        W19905   0.074  15.959  15.356  0.0056 -0.0236  0.2092
 4097W        W19906  13.969   3.638  12.049  0.2934  0.1860 -0.1435
 4098W        W19907  13.853   6.486   6.057 -0.0718 -0.1565 -0.1182
 4099W        W19908   8.070   3.132   2.125 -0.0316  0.0084 -0.3441
 4100W        W19909   6.465  12.539  11.760  0.1860  0.3786 -0.3052
 4101W        W19910  15.353   6.528  13.742 -0.3670 -0.1971 -0.1029
 4102W        W19911  12.857   4.591  15.803 -0.0046 -0.2791  0.1407
 4103W        W19912   2.163   8.238  13.390  0.2838  0.0859  0.1260
 4104W        W19913  11.489  14.078  13.133  0.0276  0.3091 -0.0123
 4105W        W19914   8.116   5.830   0.717  0.1198 -0.3225 -0.0225
 4106W        W19915   4.912  15.945   2.170  0.3124 -0.2502 -0.1440
 4107W        W19916  15.043   2.692  15.423  0.0025  0.2010 -0.0778
 4108W        W19917   4.112   8.271  12.296  0.2664 -0.0951 -0.0684
 4109W        W19918   7.144   0.316   1.242 -0.0569  0.2844  0.1621
 4110W        W19919  13.209   4.193   1.923 -0.1009 -0.1365 -0.1992
 4111W        W19920   0.628  16.706  12.022  0.3867 -0.2469 -0.2002
 4112W        W19921  18.098   6.399  12.282 -0.2167 -0.0931 -0.1260
 4113W        W19922  15.382  12.003   2.555  0.2853  0.0503  0.0955
 4114W        W19923   3.370   3.317  14.949 -0.0997 -0.2255  0.4212
 4115W        W19924  17.723   4.819   0.502 -0.2084  0.0353 -0.1195
 4116W        W19925   2.586   2.953  10.962 -0.3189  0.1813  0.2839
 4117W        W19926  12.508  16.354  12.654  0.0649  0.0886 -0.0253
 4118W        W19927  16.601  14.726  12.620  0.1183 -0.2235 -0.1433
 4119W        W19928   5.581   6.667   4.244 -0.0020 -0.0147 -0.1691
 4120W        W19929  14.733   0.849   2.039  0.1556  0.3424  0.0872
 4121W        W19930   5.294  10.892  11.986  0.0380 -0.0637 -0.1980
 4122W        W19931   5.913  14.948  12.313 -0.1105 -0.4604  0.0416
 4123W        W19932  12.339  13.261   5.002 -0.0582  0.0763  0.0410
 4124W        W19933   6.281   1.932   4.892  0.0471  0.2067 -0.0276
 4125W        W19934  18.014   1.112  11.618 -0.0663  0.0741  0.1513
 4126W        W19935   0.134   6.814   4.463  0.0575 -0.0606 -0.1234
 4127W        W19936  12.250   2.324  14.273 -0.1840 -0.0370 -0.0841
 4128W        W19937   1.014   6.750  11.078  0.0652  0.3355 -0.0490
 4129W        W19938  16.191  11.239   3.439  0.1139 -0.3307 -0.2002
 4130W        W19939   4.889   5.252  12.794 -0.1597 -0.3536 -0.1086
 4131W        W19940   6.400   3.865   1.952  0.0252 -0.0631 -0.1659
 4132W        W19941   2.877  15.591   2.182  0.0301  0.1739  0.1091
 4133W        W19942  14.394   5.933   0.202 -0.1658  0.0669 -0.1789
 4134W        W19943  16.919  15.093  12.674 -0.1285 -0.0199 -0.0462
 4135W        W19944   2.018  10.820   0.029  0.2160  0.1142  0.1510
 4136W        W19945   1.685  11.504   1.882 -0.3444  0.0345 -0.0799
 4137W        W19946  18.034  17.548  12.627  0.1449 -0.0691 -0.1866
 4138W        W19947  10.782  18.051  14.049  0.3339  0.1593  0.2143
 4139W        W19948  15.614   5.291   1.608 -0.1088 -0.1929  0.0545
 4140W        W19949  12.380  15.389   2.577 -0.2413  0.2190  0.2273
 4141W        W19950  13.229   4.121  11.569 -0.0046  0.0800  0.0080
 4142W        W19951  11.378  11.847   4.658 -0.0200  0.1028 -0.0234
 4143W        W19952   4.414   1.263  13.892  0.1167 -0.3214  0.3550
 4144W        W19953  11.856   7.471   1.678 -0.1841 -0.0550 -0.1192
 4145W        W19954  11.474   7.864  11.201 -0.1258  0.2025 -0.0953
 4146W        W19955   0.350  14.362  13.995  0.3197 -0.2278  0.4708
 4147W        W19956   4.995  12.943   4.006  0.1817  0.0884  0.0230
 4148W        W19957  16.509  14.916  12.165 -0.0666  0.1495  0.0834
 4149W        W19958  16.712   1.927   5.643 -0.0834  0.0126 -0.1670
 4150W        W19959   8.179   3.099   0.679  0.1309  0.1974  0.0106
 4151W        W19960  10.609   5.251  15.174  0.1038  0.5574  0.0280
 4152W        W19961   7.834  11.291  12.487 -0.2756 -0.1502  0.0332
 4153W        W19962   9.849  11.820  10.421  0.1157  0.0831 -0.3315
 4154W        W19963  16.669   7.152  12.547  0.2073 -0.3561  0.0116
 4155W        W19964   6.253  14.921   5.173 -0.1745  0.2769 -0.2764
 4156W        W19965  12.546   8.102   3.624 -0.0623 -0.1299  0.1895
 4157W        W19966  14.274   2.442  15.622 -0.0348  0.0313 -0.1419
 4158W        W19967   6.160   9.011  10.955 -0.4669 -0.0688  0.1321
 4159W        W19968  11.437   1.073  12.970 -0.0960  0.0153 -0.0355
 4160W        W19969   6.449   3.169  15.964 -0.1240  0.1938 -0.1747
 4161W        W19970  14.362   5.976   5.352 -0.0932 -0.1396 -0.1113
 4162W        W19971  14.154   8.524  13.081  0.0641 -0.0939 -0.0418
 4163W        W19972  13.715   1.488  11.368 -0.1568  0.0336  0.0141
 4164W        W19973   1.219   4.529   3.805 -0.0097 -0.0169  0.1493
 4165W        W19974  13.466   0.782  14.315 -0.2583 -0.0681 -0.2826
 4166W        W19975   9.919   5.889  11.342 -0.4013  0.1950 -0.2414
 4167W        W19976   9.732   6.678  14.109  0.1746 -0.3083 -0.1055
 4168W        W19977   2.057  14.225  12.860 -0.1095  0.0010 -0.2650
 4169W        W19978  15.470  17.875  13.796 -0.3025  0.2296 -0.1040
 4170W        W19979  17.601   1.994  13.375 -0.2336  0.2980  0.3011
 4171W        W19980   0.714   4.515  12.283  0.1846  0.0996 -0.0904
 4172W        W19981  12.656  11.982  12.639  0.1865  0.1346 -0.0189
 4173W        W19982   5.180   7.184  12.751 -0.0846  0.0126  0.2913
 4174W        W19983  10.662  15.977  14.791 -0.1018  0.2272  0.0335
 4175W        W19984  16.367  14.114   3.836 -0.1507  0.0711 -0.2073
 4176W        W19985   9.499   6.114   0.928  0.1425 -0.1839  0.2399
 4177W        W19986  14.244  17.844   1.766  0.4084  0.2745 -0.0007
 4178W        W19987  10.705   0.122  14.381  0.1015 -0.2173  0.2380
 4179W        W19988  17.875   7.262  10.806  0.2059  0.3178 -0.0946
 4180W        W19989   2.857   0.891  13.195  0.0189 -0.0255 -0.0246
 4181W        W19990  14.666   8.562  11.858  0.1536 -0.0393 -0.1594
 4182W        W19991   1.878  11.321  12.134 -0.1740 -0.1242  0.0821
 4183W        W19992   5.894   2.971   0.570 -0.1207 -0.3146  0.1970
 4184W        W19993  18.079   8.246  15.682 -0.2255  0.0613  0.0680
 4185W        W19994   1.078   9.493   3.772  0.1463 -0.2457  0.0848
 4186W        W19995   8.770  14.397  14.359 -0.0341  0.1029  0.2490
 4187W        W19996  15.588  11.090   0.609  0.5097 -0.3502  0.0306
 4188W        W19997   2.982   1.286   2.846 -0.0432  0.0291  0.0283
 4189W        W19998   5.304  10.902   1.171  0.0615 -0.3065  0.1293
 4190W        W19999   1.670  13.422   1.981 -0.4326  0.0551  0.2362
 4191W        W20000  10.570   7.789   4.272  0.1605 -0.1490  0.2907
 4192W        W20001   0.911   3.628   0.009 -0.2544  0.3933 -0.3151
 4193W        W20002   6.447  17.795  11.029 -0.2460 -0.0320  0.1330
 4194W        W20003  15.624   4.113  14.882 -0.2688 -0.0935 -0.0327
 4195W        W20004  12.998   9.716  13.482  0.1806  0.0342 -0.1600
 4196W        W20005  14.639  17.883  14.178  0.0561  0.1567  0.4709
 4197W        W20006   9.635  11.784   1.661 -0.0275 -0.1225  0.0642
 4198W        W20007  12.131   2.664   3.304  0.0306 -0.4173  0.2012
 4199W        W20008  14.499  16.382  15.964  0.0237 -0.2198 -0.2723
 4200W        W20009   4.882   0.424   4.928  0.0762  0.2342 -0.2209
 4201W        W20010   8.555  11.002  15.463 -0.1525  0.0993  0.1869
 4202W        W20011   0.134   0.762   2.443  0.1401  0.2064  0.2768
 4203W        W20012  15.962  17.552   3.539 -0.0237  0.0212  0.1430
 4204W        W20013  13.796  17.903  12.295 -0.0222 -0.0715 -0.0947
 4205W        W20014   2.921   1.513   1.943  0.1415  0.1655 -0.1718
 4206W        W20015  12.276  16.006  11.399  0.3172 -0.1847  0.1960
 4207W        W20016   1.636  13.924  15.381 -0.3134 -0.1386  0.2404
 4208W        W20017  17.894  10.452   0.341  0.1542 -0.0870  0.0551
 4209W        W20018   0.044   3.222  13.482  0.1757 -0.0571 -0.0946
 4210W        W20019   1.672  13.142  14.530  0.0708 -0.2012  0.0660
 4211W        W20020  12.570  14.447   4.217 -0.1189 -0.1213  0.0315
 4212W        W20021   4.203  16.919   9.865  0.1041  0.3067 -0.1879
 4213W        W20022  17.750  10.606  12.334 -0.1088  0.0556 -0.0237
 4214W        W20023  11.789  16.531  13.472  0.0437  0.0187 -0.0004
 4215W        W20024   2.440  10.626  11.631  0.0502  0.1130  0.2278
 4216W        W20025   2.058  13.228  11.345 -0.0535  0.1534  0.3594
 4217W        W20026  17.225   3.421   0.625 -0.2579 -0.3005 -0.1440
 4218W        W20027  11.427  11.625  13.989  0.3431  0.1427  0.0413
 4219W        W20028   1.943  17.474   4.193 -0.2781 -0.1463  0.2794
 4220W        W20029   2.309   8.505  11.499  0.0120  0.0475  0.0131
 4221W        W20030  13.396   6.981  15.865  0.0192  0.1254  0.0764
 4222W        W20031  17.707   5.870  12.573  0.0554  0.1492  0.0346
 4223W        W20032   1.824  13.182  15.450 -0.0549 -0.0030  0.1782
 4224W        W20033   4.368   9.328   4.457 -0.1860 -0.1083  0.0171
 4225W        W20034   8.724   5.358   0.911 -0.2408 -0.0721 -0.0416
 4226W        W20035   4.979  17.923   1.255  0.1635 -0.0056 -0.0939
 4227W        W20036   6.103   5.821  15.231 -0.2678 -0.1910 -0.1569
 4228W        W20037  18.049   5.691   0.649 -0.1137 -0.1276  0.0576
 4229W        W20038  11.162   3.184  12.079 -0.0270  0.1749 -0.0860
 4230W        W20039  16.704   5.903   1.101 -0.1924 -0.0443 -0.1743
 4231W        W20040  13.337   6.237  13.389  0.0201 -0.0419 -0.0161
 4232W        W20041  16.737  14.593  14.745 -0.1064 -0.3276  0.0205
 4233W        W20042  11.281  10.176  13.859  0.1100 -0.4134 -0.0061
 4234W        W20043  17.641  10.166   2.215 -0.1169  0.4055  0.5822
 4235W        W20044  18.230   6.768  10.127  0.0086 -0.0150 -0.1522
 4236W        W20045   0.352   6.106   2.427 -0.0521  0.2859 -0.1497
 4237W        W20046   3.797  17.982   3.205 -0.3274 -0.1654  0.0840
 4238W        W20047  12.257  11.503   4.419  0.0559  0.2333  0.0623
 4239W        W20048   2.367  11.921  14.415 -0.1572  0.1664  0.1181
 4240W        W20049  15.556  13.519  13.547 -0.2839  0.0462  0.0119
 4241W        W20050   2.817  14.473  11.796 -0.2665 -0.2501  0.3692
 4242W        W20051  10.358  14.991  15.895  0.0535 -0.2087  0.1731
 4243W        W20052  13.935   5.072  15.882  0.1551 -0.0418 -0.0309
 4244W        W20053   7.032   2.360  13.922  0.1999 -0.2578  0.1278
 4245W        W20054  11.651  10.619   2.366 -0.2323  0.0172  0.1266
 4246W        W20055  17.445   2.126  14.515  0.2929 -0.1751  0.1117
 4247W        W20056  14.364  14.771  12.085 -0.0913 -0.0398 -0.2258
 4248W        W20057   9.547   7.019   3.646 -0.0414  0.0302 -0.0368
 4249W        W20058  11.197  16.866  15.053 -0.0981 -0.2051  0.2946
 4250W        W20059  10.782  14.286  15.682  0.0643 -0.0481  0.0048
 4251W        W20060   8.077   4.805  12.857  0.0363 -0.1646  0.0141
 4252W        W20061   6.230   8.546   2.073  0.1750  0.1166 -0.1620
 4253W        W20062   1.086   7.188   4.976  0.1747 -0.1608  0.0082
 4254W        W20063  11.978   3.143  14.279  0.2322  0.2238 -0.1272
 4255W        W20064  13.909   7.059   2.037 -0.2710  0.1316  0.1181
 4256W        W20065   2.949  15.879   1.769  0.0910 -0.0192  0.2579
 4257W        W20066  16.680  18.166   2.377 -0.0782 -0.1282 -0.3226
 4258W        W20067   8.810   6.728  12.352 -0.2836 -0.0898  0.1039
 4259W        W20068   1.085  14.602   4.783 -0.0725  0.0302  0.2266
 4260W        W20069   7.232  11.212   0.550 -0.0717  0.2607  0.0297
 4261W        W20070  12.475   7.797   4.012  0.2062 -0.2563  0.0301
 4262W        W20071  13.940   8.502   3.289 -0.0698 -0.0820 -0.0284
 4263W        W20072  15.875   0.188   0.388 -0.0999  0.2531  0.2394
 4264W        W20073  14.374   5.252   2.831  0.0319  0.1081 -0.2164
 4265W        W20074  17.372  12.419   0.292 -0.0163  0.0295  0.3514
 4266W        W20075   1.412   2.110   1.749 -0.0585  0.1398 -0.1374
 4267W        W20076  12.905  16.144  14.768  0.0423 -0.0717 -0.0161
 4268W        W20077  18.007   9.129  15.747 -0.3488  0.1603  0.2839
 4269W        W20078  10.186  16.765   2.080 -0.2396 -0.1719  0.0982
 4270W        W20079   8.303  14.430  15.770  0.1868  0.4590 -0.1172
 4271W        W20080  12.590  10.090  14.781 -0.0434  0.0848 -0.0245
 4272W        W20081  12.788  10.608  12.362 -0.1593  0.1879 -0.0411
 4273W        W20082   6.565  16.793  15.621  0.0996 -0.2672  0.1993
 4274W        W20083  18.183  12.301  13.904  0.2596 -0.0611 -0.0645
 4275W        W20084  15.915  15.455   4.592  0.0938 -0.0949 -0.0226
 4276W        W20085   4.214  10.967  14.301  0.1371  0.3621  0.1765
 4277W        W20086  11.099   8.151   0.124  0.1816 -0.0318  0.0902
 4278W        W20087  15.690  16.617  12.633  0.1449 -0.0999  0.0841
 4279W        W20088   3.137  12.524  12.867  0.0464  0.0031  0.1169
 4280W        W20089   4.767   9.891  15.086  0.0059  0.0986 -0.1335
 4281W        W20090  11.131   1.495   0.111 -0.2250  0.1290 -0.2522
 4282W        W20091   4.845   9.806   0.404  0.0831 -0.0257  0.1798
 4283W        W20092  15.116   2.857   3.674 -0.1814  0.0084 -0.3651
 4284W        W20093  14.536   1.990   0.859  0.0616 -0.1614 -0.1229
 4285W        W20094  16.787  12.390  15.375  0.3418 -0.1860 -0.2163
 4286W        W20095   7.104  13.531  11.112  0.1840 -0.0862 -0.1184
 4287W        W20096   2.866   6.917  14.909  0.2090  0.0832  0.0540
 4288W        W20097   5.217   4.899   3.850 -0.0773  0.1444 -0.1234
 4289W        W20098  15.914  18.226   5.014  0.1704  0.2678 -0.3432
 4290W        W20099  12.079  17.317   0.518 -0.1982  0.3456  0.0340
 4291W        W20100   5.393  17.145   1.021 -0.3475  0.2467 -0.1913
 4292W        W20101  15.043   8.957   5.083 -0.0104  0.0335  0.0868
 4293W        W20102  12.965   4.257   4.343  0.0741 -0.1469  0.1256
 4294W        W20103   6.600  14.869   3.484  0.1378 -0.2668 -0.0847
 4295W        W20104  16.270   9.916  13.288 -0.0234  0.0501  0.1884
 4296W        W20105   4.609   3.267  13.429  0.0952 -0.3001  0.1535
 4297W        W20106  16.118   7.625  13.875 -0.0346  0.0957  0.0695
 4298W        W20107  11.798   3.474  11.744 -0.2584  0.0858 -0.0704
 4299W        W20108   9.538   7.090   2.752  0.0626  0.0196 -0.1653
 4300W        W20109  11.647  10.618   5.366 -0.2083  0.1356 -0.0042
 4301W        W20110   6.069   1.570   3.260 -0.3547 -0.1950 -0.1874
 4302W        W20111  17.083   5.936   4.374 -0.0591 -0.1571  0.0179
 4303W        W20112  15.017   6.335  12.489 -0.4272 -0.0508 -0.1491
 4304W        W20113   1.839   9.325  13.995  0.0905 -0.1551  0.0450
 4305W        W20114   3.538  16.579   4.769 -0.0476 -0.0263 -0.2032
 4306W        W20115  12.126  11.792   0.087 -0.2151 -0.0115 -0.2503
 4307W        W20116   7.363   5.623  15.920 -0.0293  0.0589 -0.2478
 4308W        W20117  14.208  10.863  11.807  0.0067  0.2193 -0.0040
 4309W        W20118   4.696   9.339  14.485  0.0873  0.1696 -0.3919
 4310W        W20119   1.894   1.632  15.450 -0.5154 -0.1882  0.0718
 4311W        W20120   8.591   1.197  15.580 -0.0685 -0.1889 -0.3303
 4312W        W20121  16.649  13.464   4.744 -0.0578 -0.0699  0.1673
 4313W        W20122  18.122   2.917   4.416 -0.0197 -0.2190  0.0022
 4314W        W20123   9.355  18.161  14.337  0.1449 -0.0315 -0.1080
 4315W        W20124   3.441   1.988  12.779  0.1192  0.2752 -0.0003
 4316W        W20125   3.177   9.624  11.774 -0.2277  0.0737  0.0693
 4317W        W20126   7.276   1.327   4.576  0.2987  0.1008 -0.1503
 4318W        W20127   7.885  16.523   2.746  0.1901 -0.0017 -0.0261
 4319W        W20128   5.536  14.338  14.216 -0.1014 -0.3437  0.2753
 4320W        W20129   3.702  11.343  15.085  0.3441 -0.0154  0.1348
 4321W        W20130  13.959  15.842  15.241 -0.2793  0.2839 -0.4537
 4322W        W20131  15.321  17.499   2.279  0.2954  0.1775  0.1024
 4323W        W20132  10.473  12.184   1.861  0.1261 -0.1810  0.0508
 4324W        W20133   1.829  12.939  12.929 -0.1611  0.0951  0.1647
 4325W        W20134  11.186  10.256   0.322  0.1735 -0.1110 -0.2782
 4326W        W20135  12.629   8.964  13.128 -0.2066  0.0395 -0.1031
 4327W        W20136  15.873  10.659   2.552  0.2594  0.2419  0.2233
 4328W        W20137   9.119   4.618   1.613  0.2405 -0.0406  0.1073
 4329W        W20138   9.965   5.549   3.645 -0.2305 -0.0778  0.0405
 4330W        W20139  11.000   4.912  11.884  0.1998  0.0925  0.0580
 4331W        W20140  13.464   5.513  12.121 -0.2892 -0.0232  0.1222
 4332W        W20141   5.996   9.309  15.191  0.0323  0.2803 -0.1555
 4333W        W20142  16.455   4.756  10.548 -0.0958 -0.3106 -0.3125
 4334W        W20143   0.682   9.224   3.507 -0.2042 -0.0504 -0.2223
 4335W        W20144   4.651   1.309   0.235 -0.0925  0.0327 -0.1629
 4336W        W20145   4.759   6.895  13.441 -0.1371  0.2558 -0.1710
 4337W        W20146  12.693   0.423   3.868  0.4802 -0.0299 -0.0738
 4338W        W20147   6.005   9.673  10.449  0.0433  0.2377 -0.0809
 4339W        W20148   2.197   4.336   1.516 -0.0623 -0.1273 -0.0036
 4340W        W20149  11.700  17.021   0.612  0.1700  0.0920  0.1161
 4341W        W20150  17.171   8.441   5.583  0.2622  0.0325  0.2310
 4342W        W20151  10.138   0.499  11.379  0.0761 -0.1372  0.0032
 4343W        W20152   0.443  12.394  15.698 -0.1904 -0.0256 -0.0080
 4344W        W20153   9.152  13.941   1.792 -0.0367  0.3321  0.0070
 4345W        W20154   1.956  15.614  16.035 -0.1510 -0.1498 -0.0463
 4346W        W20155  13.082  13.383   2.885 -0.1229  0.2272 -0.2108
 4347W        W20156   1.178  12.314   3.005 -0.2565  0.4068  0.3387
 4348W        W20157  14.904   6.097   2.744 -0.0433  0.2923 -0.0099
 4349W        W20158  12.410  13.086  13.584 -0.4286  0.0692  0.0712
 4350W        W20159  12.941   8.485  16.066  0.0317  0.0082 -0.5373
 4351W        W20160  10.065   2.463   4.341  0.2299  0.0128 -0.2925
 4352W        W20161   9.069   4.491   1.016  0.2092  0.0195  0.3174
 4353W        W20162   2.655  12.400   1.113 -0.0052 -0.0374  0.0119
 4354W        W20163  16.936  14.276   1.376 -0.1913  0.0652  0.0431
 4355W        W20164  17.654   9.249  14.288 -0.3490  0.1699 -0.0005
 4356W        W20165   5.495  14.525   3.028 -0.1971 -0.0775  0.0597
 4357W        W20166   9.723   6.351  12.608  0.3677 -0.1925 -0.0438
 4358W        W20167   5.208   3.280  12.718 -0.0076  0.0821  0.0019
 4359W        W20168  10.874   2.916   2.602 -0.0085  0.2838  0.0862
 4360W        W20169  15.466  11.347   4.610 -0.0162 -0.2869  0.2507
 4361W        W20170   2.835  15.597  15.976 -0.1154  0.1867 -0.0001
 4362W        W20171   5.116   0.671   0.392  0.1424 -0.1391  0.0115
 4363W        W20172  12.921   0.253  14.392  0.1928  0.0490  0.1820
 4364W        W20173  16.671  16.648  15.986  0.0950 -0.3904 -0.2645
 4365W        W20174   8.848  12.653   5.236 -0.4058  0.0542  0.0891
 4366W        W20175   9.560   2.973  12.589 -0.2417 -0.0927 -0.0710
 4367W        W20176   9.710  13.147   0.309 -0.3452 -0.0462  0.1059
 4368W        W20177  15.083   1.663  14.670 -0.2664  0.0121 -0.0009
 4369W        W20178  15.909   3.409   4.276 -0.2550  0.1306  0.0127
 4370W        W20179  14.251  18.038   3.428  0.0368  0.3325  0.2513
 4371W        W20180   3.201  13.876  15.114 -0.0961 -0.1142 -0.3244
 4372W        W20181   2.117   3.380  15.032  0.0489  0.0439 -0.0176
 4373W        W20182   2.972  14.115   0.396  0.0373  0.1402  0.1124
 4374W        W20183   5.805   9.385  10.805 -0.1355 -0.0927  0.0741
 4375W        W20184  13.623  12.543   2.812  0.1200  0.1252 -0.1264
 4376W        W20185   7.090   4.753  14.763 -0.1611  0.0668 -0.0921
 4377W        W20186   7.740  13.569   0.685  0.0148 -0.2435 -0.2656
 4378W        W20187   2.983  13.131  13.991  0.0671 -0.1483  0.1639
 4379W        W20188  16.968   2.889  12.226 -0.2252 -0.1342  0.0174
 4380W        W20189  17.183   5.447   1.675 -0.0382  0.1125 -0.2055
 4381W        W20190  17.369  11.377  14.967  0.1514  0.3550 -0.1562
 4382W        W20191   1.005  17.828  15.042  0.1348 -0.1596  0.1834
 4383W        W20192  17.222   3.704  15.646  0.0192  0.0528  0.0581
 4384W        W20193  17.108  15.514   2.023  0.2062 -0.2667  0.0837
 4385W        W20194   0.565   9.498   3.908 -0.0036 -0.2282 -0.1399
 4386W        W20195  15.607  17.136  13.316  0.0987 -0.0495 -0.1273
 4387W        W20196   2.352   9.630  15.623 -0.1510 -0.0719 -0.1601
 4388W        W20197   5.320  12.063  11.246 -0.0554  0.3647  0.0059
 4389W        W20198  10.471   2.278   6.018  0.2154  0.0532  0.3373
 4390W        W20199  14.773  11.155  15.751 -0.1222  0.0349  0.1368
 4391W        W20200  16.815  14.859   2.733 -0.0621  0.0402  0.1952
 4392W        W20201  17.670  12.531  12.666 -0.0946  0.1822 -0.1535
 4393W        W20202   4.722  16.130  15.569  0.0454 -0.1671  0.0647
 4394W        W20203  10.126  12.368  11.347 -0.1693 -0.2386 -0.1252
 4395W        W20204  14.668  12.315   4.302  0.0365  0.2485  0.2776
 4396W        W20205   4.284   9.055   1.998 -0.1187  0.2037 -0.2440
 4397W        W20206   9.754   1.758  15.004 -0.0319 -0.0650  0.1492
 4398W        W20207  11.645  10.612   5.865  0.0931  0.0880 -0.0274
 4399W        W20208  13.591   2.580  15.088 -0.0084  0.1804  0.4142
 4400W        W20209   4.110   5.100   4.697  0.1697  0.0034 -0.0170
 4401W        W20210  12.646   9.495   3.733  0.0761  0.2297 -0.2678
 4402W        W20211  10.305  13.992   3.770  0.0983  0.0106  0.0227
 4403W        W20212  11.744   7.543   4.562 -0.0732  0.1628  0.1506
 4404W        W20213   8.802   1.800   2.017 -0.0351  0.0847  0.0148
 4405W        W20214   0.096   4.995   0.056  0.0273  0.0793 -0.1103
 4406W        W20215  16.981   4.422   3.379 -0.2160 -0.0301 -0.1837
 4407W        W20216  17.811   6.370   5.091 -0.0025  0.0474 -0.2558
 4408W        W20217  10.728  17.945   2.349 -0.1289  0.0064  0.0548
 4409W        W20218  13.498   2.227   0.159  0.3652 -0.1571 -0.0337
 4410W        W20219  15.545   8.413   3.672 -0.0343 -0.0784 -0.1702
 4411W        W20220  17.166   8.839   1.908  0.0730 -0.0366 -0.0395
 4412W        W20221   4.419   3.140  14.898 -0.1827 -0.4454  0.0073
 4413W        W20222   1.789   7.547   0.136  0.0803  0.0086 -0.0427
 4414W        W20223   2.432  12.569   5.180 -0.3632  0.2311 -0.0029
 4415W        W20224  10.038   6.223   2.836 -0.0377  0.0877  0.2115
 4416W        W20225  14.658   5.953   3.636 -0.1352 -0.1118 -0.1010
 4417W        W20226  13.138  12.011  13.837 -0.0004 -0.3357  0.3228
 4418W        W20227  11.082   1.036   2.163  0.0202 -0.4078  0.0015
 4419W        W20228  14.251   3.980   0.875 -0.0339  0.2540 -0.0778
 4420W        W20229  12.357   6.862  11.971 -0.1045 -0.0549 -0.0877
 4421W        W20230   1.717  17.005   5.600  0.1113  0.3208  0.0741
 4422W        W20231   9.713  11.658  11.607  0.0742  0.2525  0.0904
 4423W        W20232  16.440   2.092  15.677 -0.0206  0.0594  0.1939
 4424W        W20233  12.369  11.194  10.770  0.1456 -0.2425 -0.2202
 4425W        W20234  15.138   7.641  13.540  0.0096 -0.0945  0.0933
 4426W        W20235  10.147  12.822  14.838 -0.2507  0.1481 -0.2624
 4427W        W20236  11.615   2.381   3.466  0.4260  0.0824 -0.3876
 4428W        W20237  12.016   9.521  15.428  0.1426  0.0532  0.0273
 4429W        W20238   1.465   2.283   3.614  0.3893  0.1588  0.0650
 4430W        W20239   3.202  17.606  11.382  0.1740 -0.0849 -0.0867
 4431W        W20240  17.435   4.417   1.135 -0.0934  0.2968  0.2371
 4432W        W20241  11.332   3.228   0.332  0.2825  0.3186 -0.1716
 4433W        W20242   7.163   2.560  12.665 -0.0061  0.1542  0.0620
 4434W        W20243   9.158  16.237   1.400  0.0190  0.1715  0.0563
 4435W        W20244  17.346   6.793   1.761 -0.0878 -0.2003  0.0143
 4436W        W20245  13.678  10.724  11.100 -0.0000  0.1000  0.1629
 4437W        W20246   5.024   5.439   4.978  0.2824 -0.0539  0.2519
 4438W        W20247   5.249  14.030  14.739  0.0763  0.0352 -0.1980
 4439W        W20248  17.990   2.334   2.457 -0.1147  0.1229  0.1447
 4440W        W20249   8.561   3.693   3.384 -0.0093 -0.0206 -0.1203
 4441W        W20250   4.122   5.953   3.004 -0.0710 -0.0711 -0.0328
 4442W        W20251   3.077  13.008   1.630  0.3804 -0.0255  0.3887
 4443W        W20252   7.288  15.364  14.694  0.2153 -0.0130  0.2161
 4444W        W20253  14.612   9.579   2.901 -0.3544  0.1746 -0.1838
 4445W        W20254  11.901  14.353  12.556 -0.2990 -0.0344  0.1510
 4446W        W20255   5.862  13.924  14.268  0.1351  0.0668  0.1971
 4447W        W20256   9.533  16.532   5.176 -0.1366  0.0231  0.1428
 4448W        W20257   0.652  11.941   2.383  0.0607  0.0625  0.1475
 4449W        W20258   8.091   9.338   5.459  0.0523  0.2214  0.1991
 4450W        W20259  15.876  15.992  13.388 -0.1489  0.0159  0.1120
 4451W        W20260   2.404  16.574   3.142 -0.0969  0.5003 -0.1393
 4452W        W20261  10.767  13.230   0.930  0.1532  0.1848  0.0912
 4453W        W20262  15.235   9.320   2.297 -0.1580 -0.0575 -0.0176
 4454W        W20263   9.909   4.747  13.566 -0.0890  0.1551  0.1447
 4455W        W20264   3.817   6.886  13.842  0.1709  0.3081 -0.1465
 4456W        W20265  13.173   6.976   5.484  0.0323  0.3903  0.1702
 4457W        W20266  10.872   0.475  14.706 -0.2013 -0.1451 -0.1566
 4458W        W20267  16.180  17.543   0.071  0.0895  0.0689 -0.0502
 4459W        W20268   8.102  17.527   1.334 -0.0907  0.0145 -0.1166
 4460W        W20269  14.000   0.529  11.749  0.2362 -0.0990  0.1112
 4461W        W20270   7.514  14.848   3.408  0.0519 -0.0055 -0.2361
 4462W        W20271  16.339  17.168   1.491 -0.0396 -0.1060 -0.1020
 4463W        W20272   8.538  12.085  12.634 -0.0881 -0.3398  0.0967
 4464W        W20273   7.885   8.310   3.674 -0.1332  0.2399  0.0393
 4465W        W20274  14.977   3.292  12.631 -0.2475  0.1762  0.1064
 4466W        W20275  17.559   7.870   3.317 -0.0601  0.4547 -0.0631
 4467W        W20276   2.758  18.162   5.289  0.2737 -0.1402 -0.0430
 4468W        W20277   6.039   0.589   0.114  0.1035  0.2306 -0.1973
 4469W        W20278  10.806  12.239  15.032  0.2626  0.0330  0.1092
 4470W        W20279   2.436   1.241   0.577 -0.0531  0.1123 -0.3714
 4471W        W20280   4.858   4.160   1.549  0.0074  0.2640 -0.2264
 4472W        W20281  17.597   7.333   4.623 -0.0925 -0.1379 -0.1390
 4473W        W20282  13.967   7.746  11.025 -0.3735 -0.3191 -0.1618
 4474W        W20283   5.569  11.165   3.865  0.2177 -0.2450 -0.1225
 4475W        W20284  12.973   5.558   5.118  0.3158  0.4451 -0.1130
 4476W        W20285  13.264  15.957  14.074 -0.0623 -0.0814  0.0232
 4477W        W20286  11.483  16.555  11.732 -0.1896  0.1846 -0.1546
 4478W        W20287   4.126  12.634  11.651 -0.2825 -0.2314 -0.1151
 4479W        W20288   5.014   8.427  14.671  0.0285  0.0737  0.2438
 4480W        W20289  13.520   3.575  14.201 -0.1465  0.1313  0.2258
 4481W        W20290  11.892   0.159  15.024 -0.1250  0.0963 -0.0678
 4482W        W20291  14.835   1.315   4.929 -0.0512 -0.0423 -0.0970
 4483W        W20292   7.172   5.596   2.310  0.0671  0.0479  0.1611
 4484W        W20293  17.155  10.041   3.007 -0.0347 -0.0159 -0.1745
 4485W        W20294  13.599  14.305  15.856 -0.0031  0.0690  0.0337
 4486W        W20295   0.511   6.725   3.011 -0.1903  0.0144 -0.1431
 4487W        W20296   9.272  14.134   0.149 -0.1780 -0.0990 -0.0516
 4488W        W20297  18.020   5.692  14.849 -0.3696 -0.0320 -0.1634
 4489W        W20298   3.367   6.169  12.327  0.1367  0.0550  0.0510
 4490W        W20299   8.732  17.988  10.875  0.0934 -0.0029  0.0622
 4491W        W20300  17.237   0.744   3.047  0.0249  0.1417  0.2303
 4492W        W20301  10.999   8.613   1.280 -0.2870  0.3367 -0.3084
 4493W        W20302   5.892   1.289   0.039  0.0157 -0.0859  0.2634
 4494W        W20303   9.865   4.535   1.307 -0.2917 -0.0205  0.0609
 4495W        W20304   0.442  12.110  14.899  0.2932 -0.0556 -0.0867
 4496W        W20305  12.959   5.974   4.821  0.2265  0.0667 -0.0920
 4497W        W20306   4.453  11.583   0.211  0.1748  0.2291 -0.1438
 4498W        W20307   3.384  10.284  10.788 -0.0065  0.1687 -0.0557
 4499W        W20308  13.743  18.247   2.930  0.1781 -0.0456 -0.0779
 4500W        W20309  16.117   8.544   1.469 -0.1097  0.0047 -0.1680
 4501W        W20310  11.820  11.849   4.174 -0.0748 -0.0734 -0.2504
 4502W        W20311   0.014  11.589   3.368 -0.2108 -0.0892 -0.2139
 4503W        W20312  13.766  10.511   3.576  0.1375  0.0235  0.2146
 4504W        W20313  10.871   4.857   5.925  0.0352 -0.4200 -0.0863
 4505W        W20314   3.142   8.389  14.853 -0.3062  0.1660 -0.0572
 4506W        W20315  11.431  13.953   2.526 -0.1552  0.1798  0.0823
 4507W        W20316   1.198  16.451  12.748  0.1639 -0.1055 -0.1972
 4508W        W20317  16.356   3.379  14.607 -0.1277  0.0794  0.0447
 4509W        W20318   6.396   3.966  14.836  0.1290 -0.0602 -0.1979
 4510W        W20319   2.082   0.934   1.892  0.3621  0.1604 -0.3130
 4511W        W20320   2.410   5.852   1.333 -0.0785  0.1189  0.1983
 4512W        W20321   5.135  16.076   0.990 -0.1145 -0.1871 -0.2493
 4513W        W20322  10.363   6.963   5.397 -0.0892  0.1149 -0.0403
 4514W        W20323   5.285   3.948   1.623  0.0907  0.0460  0.0664
 4515W        W20324  13.379  14.334   1.982  0.1115 -0.1141  0.0438
 4516W        W20325  17.679   7.594  11.777 -0.0599 -0.2024  0.1942
 4517W        W20326   6.843  18.077  14.221 -0.0644  0.0707 -0.1268
 4518W        W20327  11.457  11.656  14.878  0.0281  0.1960  0.1415
 4519W        W20328  18.099  17.567  15.897 -0.0318 -0.0598  0.1341
 4520W        W20329   2.193   6.079  13.000 -0.1487 -0.0384  0.1133
 4521W        W20330   4.077  13.295   4.433 -0.0073 -0.0614  0.3375
 4522W        W20331   7.548   4.093  14.584 -0.0247  0.0998  0.0753
 4523W        W20332   8.337  15.232  10.381  0.0936 -0.0207  0.0864
 4524W        W20333  11.589   7.425   1.243  0.2731  0.0607  0.1387
 4525W        W20334   1.945  14.663  11.316  0.1622 -0.0119  0.0452
 4526W        W20335  15.785  14.511  11.888  0.0890  0.3829  0.1945
 4527W        W20336  17.752  14.453  15.210  0.1969  0.2131 -0.2334
 4528W        W20337   0.961  15.686  11.167  0.0107  0.1252 -0.3796
 4529W        W20338   2.898  16.881   5.947 -0.0224  0.1870  0.1366
 4530W        W20339  14.228  16.926   3.229  0.1903 -0.0160 -0.2547
 4531W        W20340  16.584   4.951  11.706 -0.0745 -0.2571 -0.2048
 4532W        W20341  12.604  13.994   2.606 -0.0778  0.0924  0.4688
 4533W        W20342  15.471   9.930  12.615 -0.0082  0.2340 -0.0271
 4534W        W20343   7.069  12.869   2.880  0.1634  0.0422 -0.3443
 4535W        W20344  11.645  13.410  11.960 -0.3473 -0.1860  0.1031
 4536W        W20345  12.151  10.280   1.171 -0.1209 -0.4040  0.1319
 4537W        W20346   6.482   3.431   1.727 -0.1443 -0.1127 -0.3693
 4538W        W20347   7.306   4.683   5.431  0.0186 -0.1546 -0.0833
 4539W        W20348   8.851   9.213   1.122  0.0658 -0.0682 -0.2670
 4540W        W20349   8.023  13.946  14.143  0.1109  0.0559  0.0493
 4541W        W20350  12.610  10.618   0.227 -0.2200  0.0142 -0.2353
 4542W        W20351   7.997  12.448   1.511 -0.2471  0.0986  0.1271
 4543W        W20352  15.576  14.157  15.565  0.2607  0.0548 -0.0015
 4544W        W20353  12.299  13.983   3.141 -0.0449 -0.0337 -0.0290
 4545W        W20354   2.995  13.355  11.236 -0.0639  0.0527  0.1752
 4546W        W20355   6.043  11.131   0.125 -0.0399  0.4626  0.1194
 4547W        W20356  13.292  14.069  10.095 -0.4294  0.3059  0.0551
 4548W        W20357  10.851  16.675   3.557 -0.0463 -0.1029 -0.3533
 4549W        W20358   1.513  18.216   2.094 -0.1783 -0.0731 -0.1431
 4550W        W20359   0.809   6.683  12.669 -0.0122  0.2327  0.1700
 4551W        W20360   9.064   8.798   4.783  0.1250 -0.2021  0.0282
 4552W        W20361   0.016   9.848  14.607 -0.0568 -0.0198 -0.1604
 4553W        W20362   4.949   4.933  14.691  0.0681  0.1837 -0.0495
 4554W        W20363   3.319  10.698  11.741 -0.2116  0.0341  0.0836
 4555W        W20364   4.842   8.247  12.391  0.0219 -0.0513 -0.0732
 4556W        W20365   2.846   6.364   1.946  0.0576 -0.1137  0.4486
 4557W        W20366  13.481  15.875  12.568  0.0595  0.2900  0.2017
 4558W        W20367  10.663  13.208  15.375  0.0445  0.0176  0.1537
 4559W        W20368  11.364   3.025  13.050 -0.0920  0.0471 -0.1209
 4560W        W20369  17.936   0.456   2.037 -0.0715  0.0100 -0.2765
 4561W        W20370   6.072   9.565   0.730  0.0476 -0.0687 -0.1883
 4562W        W20371   6.160  15.502   4.906  0.2000 -0.1701  0.1416
 4563W        W20372  15.628   2.670  11.361  0.0426 -0.2387  0.1767
 4564W        W20373  14.738  10.356  12.165  0.0493  0.2037 -0.2419
 4565W        W20374  16.002   3.403  16.005  0.0783 -0.1316 -0.1117
 4566W        W20375  12.061   8.688  13.877 -0.0697 -0.0248  0.0487
 4567W        W20376  13.189  12.147  14.654 -0.2039 -0.1260  0.0118
 4568W        W20377  14.930   5.385  11.242 -0.3150 -0.1396 -0.2178
 4569W        W20378   3.970   7.981   0.724  0.6511  0.0728  0.0917
 4570W        W20379  11.757  13.040  10.140  0.1029 -0.2599  0.3198
 4571W        W20380   0.258   0.156  12.517  0.2638  0.1176  0.2543
 4572W        W20381   3.874   4.360  11.908  0.1279  0.4465  0.3979
 4573W        W20382  13.617   1.023   6.012 -0.0185  0.0397 -0.0472
 4574W        W20383  17.200  17.037  11.076  0.1664  0.0214 -0.2132
 4575W        W20384  17.899   2.425  11.192  0.1128  0.1732  0.2592
 4576W        W20385   0.013   3.355   4.690  0.0631 -0.0292  0.1057
 4577W        W20386   1.901   2.178  14.247 -0.1929  0.1813  0.0200
 4578W        W20387   0.241   2.954  10.567 -0.1266  0.2071  0.0014
 4579W        W20388  10.183  11.316   4.747  0.2653 -0.3345 -0.0941
 4580W        W20389   8.072  18.094   6.389  0.0433  0.1781  0.0009
 4581W        W20390   6.549   6.842  14.356  0.0771  0.1095  0.1172
 4582W        W20391   8.377  15.242   3.896  0.2848 -0.2426  0.2196
 4583W        W20392   6.857   3.347   5.120 -0.1641 -0.1070  0.0566
 4584W        W20393   3.238  16.972  13.860  0.0793  0.1595 -0.1136
 4585W        W20394   8.263   6.601   2.278  0.0388  0.1104  0.0520
 4586W        W20395   4.917   9.398   1.137  0.2210  0.0599  0.1274
 4587W        W20396   2.583   9.393   2.298  0.0077  0.1248  0.0321
 4588W        W20397  11.149   9.552   2.516  0.0545  0.1598  0.1591
 4589W        W20398  13.266   9.509  14.531  0.0919  0.0491 -0.3294
 4590W        W20399  14.191  15.118  13.844 -0.0927  0.0209  0.1690
 4591W        W20400   8.495   7.593   5.110 -0.0330  0.1060  0.0509
 4592W        W20401  10.537  16.185  11.911 -0.2459  0.1057 -0.0250
 4593W        W20402   7.200  17.549   3.285  0.3009  0.0113  0.0905
 4594W        W20403   8.870  17.320   4.116 -0.1285  0.2701  0.2841
 4595W        W20404  16.109   5.902  14.215  0.1387  0.1161 -0.1408
 4596W        W20405   5.055   4.984  12.382 -0.3783  0.1158  0.1474
 4597W        W20406   9.029  13.907  12.418  0.0286 -0.1074  0.0233
 4598W        W20407   2.913   9.602   1.325 -0.1033  0.0859 -0.0474
 4599W        W20408   0.699   2.659  14.245 -0.1458 -0.1752 -0.0235
 4600W        W20409  16.368   8.874   2.119 -0.0629  0.2220  0.3656
 4601W        W20410   9.021   9.688   4.734 -0.1990 -0.1271 -0.0538
 4602W        W20411   8.072  16.588   1.143 -0.0569 -0.1875 -0.1352
 4603W        W20412   1.454  15.758  15.861 -0.1875 -0.1455 -0.1057
 4604W        W20413  15.086  18.014   2.813 -0.0701 -0.1597  0.0849
 4605W        W20414  15.058   2.204  14.609  0.0838  0.0034  0.0547
 4606W        W20415  10.577  10.369  15.598 -0.0954  0.0384 -0.3765
 4607W        W20416  17.702   4.034  13.585 -0.1383 -0.1390  0.1191
 4608W        W20417  13.721  14.648   3.345 -0.1002 -0.1240 -0.1459
 4609W        W20418  16.933  15.672  11.856 -0.2214 -0.0839 -0.2870
 4610W        W20419   1.352   3.437  11.729 -0.0149  0.2972  0.0368
 4611W        W20420  11.828   1.716  11.222  0.2894 -0.2534 -0.1484
 4612W        W20421   2.802  15.044   5.296  0.2934  0.1389  0.2615
 4613W        W20422   3.676  12.842  13.169  0.0404 -0.0345 -0.0751
 4614W        W20423   9.780   8.921   0.630  0.0323 -0.0717 -0.0234
 4615W        W20424   0.637   6.070  11.255  0.1057 -0.1983  0.0431
 4616W        W20425  15.558  17.395  13.834  0.0696  0.0154 -0.0754
 4617W        W20426  14.098  12.039  11.457  0.0130  0.2480  0.0970
 4618W        W20427   3.232   9.198  15.095 -0.0436  0.0651 -0.2524
 4619W        W20428  14.646   1.560   2.722  0.0368  0.0235 -0.0147
 4620W        W20429  10.923   2.342  15.400 -0.0486 -0.0291  0.0481
 4621W        W20430   3.086   5.776  15.824  0.1119 -0.1319  0.2211
 4622W        W20431  12.152  15.338  10.505  0.0113  0.2860 -0.0341
 4623W        W20432  13.222  12.983   0.094 -0.4259 -0.2433  0.1008
 4624W        W20433  10.282   8.019  13.338  0.0317  0.0430  0.0078
 4625W        W20434   7.640  16.645   4.718 -0.0787 -0.1116  0.1575
 4626W        W20435   0.361   5.479  14.399  0.1093 -0.0421  0.0185
 4627W        W20436   8.441  12.002  15.217  0.1784 -0.0918  0.0580
 4628W        W20437   3.649   3.299   4.111 -0.0961 -0.0661  0.0042
 4629W        W20438   2.397   5.795  11.934 -0.1350 -0.0803 -0.2293
 4630W        W20439   4.812   9.906  13.700 -0.0895  0.2063 -0.0191
 4631W        W20440   2.357   9.380   0.924 -0.0550  0.4113  0.0680
 4632W        W20441  11.514  13.607   1.918  0.1860 -0.3241  0.0132
 4633W        W20442   3.869   6.012   5.128 -0.0715  0.0019  0.0565
 4634W        W20443   5.147   6.782  13.175  0.1183 -0.1225  0.1890
 4635W        W20444  14.348  10.959   4.347  0.1735 -0.0572  0.0892
 4636W        W20445  16.646  17.106   2.508  0.1174 -0.3107 -0.0710
 4637W        W20446  10.202  11.932   0.496  0.0217 -0.2350 -0.2755
 4638W        W20447   7.492   6.007   1.764 -0.0273 -0.1273  0.1696
 4639W        W20448  17.894  18.163  14.548  0.1740  0.0525  0.3272
 4640W        W20449   9.323   0.246   2.669 -0.1682  0.1036  0.0823
 4641W        W20450  13.473  13.953   0.316  0.0067 -0.0955  0.3824
 4642W        W20451   3.613  11.963  12.011  0.1578  0.1142  0.0514
 4643W        W20452  10.189  13.284   2.315  0.0001  0.3136 -0.4032
 4644W        W20453   6.775   0.150  13.591 -0.1019 -0.0688 -0.1494
 4645W        W20454   1.111   8.703  14.965  0.0661 -0.0410 -0.0855
 4646W        W20455  13.873   5.350   1.145  0.1090  0.0400 -0.2557
 4647W        W20456   1.858  11.929   0.360  0.1137 -0.1588  0.2787
 4648W        W20457  13.836  10.320   0.597  0.0329 -0.1101 -0.3311
 4649W        W20458   0.616  15.067  12.470 -0.2854 -0.0012 -0.1218
 4650W        W20459   2.787   2.276   3.007 -0.1326  0.4560 -0.0328
 4651W        W20460  17.033   2.092  14.816  0.1285  0.0728 -0.1568
 4652W        W20461  16.581  11.104   0.500  0.2436  0.1484 -0.0034
 4653W        W20462  16.821   6.167  12.631  0.3550  0.1750 -0.1017
 4654W        W20463   8.533   3.401  14.094  0.2501  0.0015  0.0412
 4655W        W20464   4.346  18.250  14.543  0.0214 -0.0877  0.0202
 4656W        W20465   2.335   2.579   4.597 -0.1849 -0.1597 -0.3793
 4657W        W20466   5.577   5.893   2.794 -0.1672 -0.2547  0.0782
 4658W        W20467  13.730  15.575   3.432  0.0739  0.0411  0.2049
 4659W        W20468  10.224  15.710  14.990 -0.1031 -0.2757  0.0956
 4660W        W20469   2.694  12.501   2.679  0.0213 -0.0004 -0.1098
 4661W        W20470   2.875  17.022   2.279 -0.0338 -0.0960  0.1065
 4662W        W20471   5.791  11.595  12.971 -0.0516 -0.4632  0.0773
 4663W        W20472   3.303   9.923   3.276 -0.3429 -0.0230 -0.0861
 4664W        W20473  14.416  16.135   3.915  0.0268 -0.0538  0.2951
 4665W        W20474  10.898  11.305  15.004  0.1608 -0.3460 -0.1798
 4666W        W20475  12.383  14.896   1.755 -0.0039 -0.1635 -0.0519
 4667W        W20476   9.371   5.117  11.665  0.2888  0.1364 -0.2322
 4668W        W20477  14.769   7.769   0.023 -0.0110  0.2420  0.1529
 4669W        W20478   3.586  12.955   1.604  0.1112 -0.0727  0.0609
 4670W        W20479   9.962  12.708   1.848 -0.4136 -0.2315 -0.0527
 4671W        W20480   9.510  15.743   1.561  0.0949  0.0634 -0.0298
 4672W        W20481   8.967   3.477  15.693 -0.0736  0.1783  0.1009
 4673W        W20482   2.207  16.736   4.486  0.2805  0.1518  0.1546
 4674W        W20483  12.964   9.864  15.310  0.3132 -0.2106 -0.0086
 4675W        W20484   6.772   2.185   4.898 -0.0212  0.3014  0.1361
 4676W        W20485   8.222  10.309  12.893  0.1620  0.0298  0.0478
 4677W        W20486   1.271  15.025   4.505  0.3468  0.1113  0.4038
 4678W        W20487  16.135   3.657   3.310 -0.3490  0.0492 -0.2135
 4679W        W20488   8.177   8.604  12.128  0.0118  0.0348  0.0729
 4680W        W20489   2.508   9.714   1.911 -0.1979  0.3674  0.2809
 4681W        W20490   4.616   2.531  12.628  0.1946 -0.4087  0.0334
 4682W        W20491  15.557  11.319  12.040 -0.0431 -0.1005 -0.0032
 4683W        W20492   5.247  17.849   2.960  0.0639 -0.0241 -0.0478
 4684W        W20493  14.200  16.384  12.104 -0.0185  0.1113  0.3137
 4685W        W20494   1.799   7.752   4.471 -0.0126  0.0629  0.0170
 4686W        W20495  14.452   3.459  15.678  0.0442 -0.0716  0.2631
 4687W        W20496   7.660   7.380   2.225  0.0039 -0.0249  0.0113
 4688W        W20497   6.049   8.588   1.467  0.2737 -0.0402  0.1689
 4689W        W20498   4.743   1.712   0.538  0.1980 -0.0620  0.1030
 4690W        W20499  10.759   4.706   0.265 -0.1116 -0.1316  0.0323
 4691W        W20500  16.785   0.867  15.750  0.2110  0.4558  0.1868
 4692W        W20501  11.383  11.828  12.521  0.1306 -0.2862 -0.2372
 4693W        W20502   7.549   9.382  13.580 -0.2235 -0.2436  0.0033
 4694W        W20503   3.493  16.371   5.747  0.0723 -0.3308  0.0023
 4695W        W20504   6.219  15.626  12.795 -0.0824 -0.0556  0.1196
 4696W        W20505   4.500   7.707  14.328 -0.0452  0.3272 -0.1750
 4697W        W20506   5.615   9.316   0.793 -0.0715 -0.1418 -0.0626
 4698W        W20507   6.577   8.538  11.045 -0.1558  0.1464 -0.1232
 4699W        W20508  18.147   7.699  14.793  0.1191  0.1002 -0.0494
 4700W        W20509   4.632  17.356  15.851 -0.0523 -0.3279 -0.3538
 4701W        W20510  16.139  12.506  13.321  0.0150  0.0068 -0.1004
 4702W        W20511  10.948  13.257  14.311  0.1388  0.0453 -0.1541
 4703W        W20512   8.633  10.411   5.049 -0.1908  0.2243  0.0011
 4704W        W20513  12.433  10.998   0.615 -0.1264  0.2813  0.1346
 4705W        W20514  14.849  17.703   2.362  0.1700 -0.0880 -0.1202
 4706W        W20515   6.379   4.571  15.929 -0.3037 -0.1545  0.2136
 4707W        W20516   3.415  13.073  11.243 -0.2364  0.0078 -0.0608
 4708W        W20517  13.084  11.099   3.286  0.1091 -0.2491 -0.0927
 4709W        W20518   0.591   9.750  12.666 -0.0643 -0.2027  0.1259
 4710W        W20519   4.654  16.218   1.191 -0.2986  0.1720  0.2570
 4711W        W20520  15.049   1.151  12.536  0.2057 -0.1264  0.3226
 4712W        W20521   9.050  11.821   5.316  0.0168 -0.3282 -0.0750
 4713W        W20522   4.431  10.911   0.971 -0.0516 -0.1718  0.0114
 4714W        W20523   2.312   7.202   4.187  0.1022 -0.3321  0.2285
 4715W        W20524   2.478   5.308  11.940  0.1384 -0.1645  0.1045
 4716W        W20525   2.528   2.115  12.543 -0.1027  0.0553  0.0730
 4717W        W20526  14.883   2.002   3.734 -0.2779 -0.1985 -0.4658
 4718W        W20527  13.477   9.184  14.969  0.0489  0.2667 -0.1338
 4719W        W20528  11.136  15.944  11.347 -0.2030 -0.0137  0.0052
 4720W        W20529  15.131  15.014   1.312 -0.1812  0.1501 -0.0371
 4721W        W20530   1.001   4.160   0.064  0.0294  0.0193 -0.0145
 4722W        W20531   3.711   4.816   2.101  0.0994  0.0826 -0.2896
 4723W        W20532   8.655   1.240   5.991  0.1637 -0.0742 -0.0564
 4724W        W20533   9.354   9.852   4.408  0.0117 -0.0312 -0.2304
 4725W        W20534  15.444  14.793   2.209 -0.1321 -0.0502 -0.0189
 4726W        W20535   3.101   5.684  15.134 -0.1302 -0.3171  0.0874
 4727W        W20536   6.647  15.693   1.915 -0.1464 -0.1043 -0.4093
 4728W        W20537   9.129   0.713   1.812 -0.0135 -0.3879 -0.1874
 4729W        W20538   0.719   0.370  12.772 -0.0275 -0.3900  0.3480
 4730W        W20539  16.043   3.289  15.037  0.1921 -0.1317 -0.1571
 4731W        W20540   3.302  13.805  13.338  0.0311  0.0161 -0.0091
 4732W        W20541  15.422   1.494  16.018  0.2828 -0.2041  0.1700
 4733W        W20542   0.328   7.989  15.006  0.0289 -0.2838  0.2103
 4734W        W20543  10.607   8.778  15.617  0.0850 -0.1610  0.1613
 4735W        W20544   6.363  14.576   5.550  0.2932  0.2137  0.0290
 4736W        W20545   9.202  11.664   0.004  0.1918  0.0564  0.1760
 4737W        W20546   3.243  16.946   4.482 -0.0808 -0.0938  0.1114
 4738W        W20547   4.257  16.197  14.666  0.0330 -0.0817  0.2408
 4739W        W20548  14.170  11.862  15.477 -0.2497  0.0071  0.0906
 4740W        W20549  17.481   4.263   4.237  0.2579  0.3910  0.1694
 4741W        W20550  11.235   4.300  13.378 -0.0636  0.1015 -0.0440
 4742W        W20551   0.991   3.393   3.520  0.0516 -0.1586 -0.1142
 4743W        W20552   9.200   0.084   4.897 -0.2291  0.0005 -0.2928
 4744W        W20553  13.628   7.633   2.885 -0.2119  0.2652  0.0065
 4745W        W20554  10.560   0.816  15.884  0.0859 -0.1199 -0.0307
 4746W        W20555   7.641  17.424  15.532  0.0044  0.0008 -0.2047
 4747W        W20556   7.439  17.785  15.936 -0.3094 -0.0165 -0.1456
 4748W        W20557  13.989  11.624  13.124 -0.0903 -0.1673 -0.3238
 4749W        W20558   1.147   9.826   2.024 -0.0191  0.2077 -0.3849
 4750W        W20559  11.052  12.159  13.079 -0.0805 -0.0508  0.0521
 4751W        W20560   5.730   7.252   1.621  0.1535  0.0799 -0.3163
 4752W        W20561  10.180   4.523  11.591  0.2141 -0.0626  0.0502
 4753W        W20562  16.545  13.981  11.284 -0.1822  0.1859  0.0902
 4754W        W20563  10.027  10.966   0.492  0.1369  0.0662 -0.3323
 4755W        W20564  15.173   3.476  11.265  0.3077 -0.0259  0.3527
 4756W        W20565  10.534   5.219   0.223 -0.0852 -0.2120 -0.1480
 4757W        W20566   9.697  16.664   0.273 -0.2263 -0.0129  0.3518
 4758W        W20567  16.582   8.853  13.978 -0.0666  0.0485  0.2457
 4759W        W20568  15.550   6.685   1.050  0.1112 -0.0430 -0.1196
 4760W        W20569   1.062   1.708  14.452 -0.2183  0.0761 -0.1177
 4761W        W20570   5.314  11.425   0.473 -0.0258 -0.2016  0.1641
 4762W        W20571   0.439   6.673   4.814  0.1922  0.0005  0.2231
 4763W        W20572  17.109  14.152  14.746  0.0803 -0.0292  0.0562
 4764W        W20573  13.623   5.025   1.531 -0.1126 -0.0117 -0.3448
 4765W        W20574  14.687  11.911  11.316 -0.0727  0.1163 -0.1782
 4766W        W20575  14.374  15.427   1.111 -0.1137 -0.1732 -0.0968
 4767W        W20576   8.043   0.478   5.671 -0.0235  0.0771  0.3735
 4768W        W20577  11.125  13.338  13.865  0.0475  0.2647 -0.2409
 4769W        W20578  13.845   5.196  13.960 -0.1599  0.1542 -0.2131
 4770W        W20579  14.580   3.637   2.628 -0.1483  0.0899  0.3220
 4771W        W20580   7.711  16.261  14.456  0.1433 -0.1148 -0.0309
 4772W        W20581   4.496   3.249   1.739 -0.1107  0.1569 -0.3617
 4773W        W20582  17.175   5.607  13.169  0.1088 -0.1548  0.2151
 4774W        W20583   2.501   5.009   3.876 -0.2415 -0.2183 -0.3033
 4775W        W20584  10.749   0.737   0.437 -0.3646 -0.2483 -0.2607
 4776W        W20585   6.533   4.847   4.993  0.3468 -0.0758  0.1232
 4777W        W20586  13.132  10.493   5.037  0.2777  0.0167  0.2505
 4778W        W20587   6.337  12.686  16.046 -0.0763 -0.1965 -0.3879
 4779W        W20588  11.006   7.452  12.250 -0.1660 -0.0095 -0.0173
 4780W        W20589   9.262  17.250   6.307 -0.0614 -0.0949 -0.1491
 4781W        W20590   1.052   9.546  15.382 -0.0973  0.2798  0.3095
 4782W        W20591   5.640  15.610  12.711 -0.1851  0.0377 -0.0032
 4783W        W20592  17.365   5.446  12.417  0.0555  0.0246  0.1010
 4784W        W20593  10.583   4.845  11.518  0.0842  0.1798 -0.1185
 4785W        W20594   8.849   5.654  12.931  0.0297 -0.1328 -0.0941
 4786W        W20595   2.686  14.500   0.522  0.3001 -0.4192 -0.1427
 4787W        W20596   0.582   5.970   1.142 -0.2695  0.4154  0.2893
 4788W        W20597   4.398   4.215   1.324 -0.0517 -0.0076 -0.0443
 4789W        W20598   1.475  13.779   2.354 -0.3213  0.1201  0.1277
 4790W        W20599   7.137   8.862  14.760  0.1113 -0.2753 -0.0085
 4791W        W20600   8.508   9.270   1.474  0.4435  0.1525 -0.3201
 4792W        W20601  17.942   0.871   5.718 -0.1889  0.1247  0.2064
 4793W        W20602   5.315  13.071  15.721 -0.3089  0.0185 -0.0306
 4794W        W20603   9.128   9.744  13.848 -0.2946 -0.1180 -0.0427
 4795W        W20604  10.324   5.436  14.221  0.1160  0.0287 -0.0862
 4796W        W20605  16.585   0.379  14.948 -0.0738  0.0499 -0.1177
 4797W        W20606   7.210  10.507   5.264 -0.0271 -0.0411 -0.0478
 4798W        W20607   4.682   6.918   2.381 -0.1516 -0.0610  0.0127
 4799W        W20608  17.950   0.850  13.518 -0.0912  0.4188 -0.0012
 4800W        W20609   4.289   0.888   4.129  0.5209  0.0199 -0.0772
 4801W        W20610   1.387   7.812  14.883 -0.2399  0.0392 -0.2612
 4802W        W20611   8.540  12.609  13.902  0.0498 -0.1500  0.0231
 4803W        W20612  13.460   9.573   4.716 -0.1211  0.0521 -0.0843
 4804W        W20613   7.583   0.911  13.067 -0.2011 -0.0008  0.2573
 4805W        W20614  14.375  14.919  12.725  0.2321  0.1856 -0.0550
 4806W        W20615  17.335  15.938  12.069  0.1010  0.0061 -0.1091
 4807W        W20616  15.858   1.786   0.067 -0.3584 -0.1282 -0.0962
 4808W        W20617   4.116  12.545  12.478 -0.0075  0.0944 -0.0181
 4809W        W20618  10.907  13.782  14.409 -0.3587 -0.0078  0.1503
 4810W        W20619  16.100   7.423   0.585 -0.3706  0.2316 -0.1335
 4811W        W20620  17.081   1.956  13.327  0.2546 -0.3308  0.1414
 4812W        W20621  15.427  12.149   0.242  0.1643  0.0970  0.0248
 4813W        W20622   3.214  10.860   6.036 -0.2672  0.1001 -0.2005
 4814W        W20623   8.578   3.117   4.458  0.1121  0.2126  0.0238
 4815W        W20624   1.469   4.911   2.885 -0.2129  0.1629 -0.0825
 4816W        W20625   0.827   0.995   1.125 -0.0758 -0.1135 -0.1288
 4817W        W20626  18.136  14.795   0.780  0.1328  0.0637  0.0509
 4818W        W20627   5.365   7.713  13.537  0.0039  0.2540 -0.0279
 4819W        W20628  13.842   3.544  11.550  0.1408  0.1432 -0.0005
 4820W        W20629   3.532  13.579   5.021  0.1872  0.0725  0.0299
 4821W        W20630   3.245  11.329  13.495  0.3282  0.1740  0.1669
 4822W        W20631  10.805  17.066  15.891  0.0801  0.1597  0.0330
 4823W        W20632  14.029   0.198  14.586 -0.3737  0.0699  0.0062
 4824W        W20633  13.763   5.392   0.642 -0.0512 -0.1800  0.2283
 4825W        W20634   9.414   0.691  13.090  0.0197 -0.0262 -0.1537
 4826W        W20635   4.534  10.784   2.209 -0.0144 -0.0730 -0.1398
 4827W        W20636  14.326   3.257   1.920 -0.0489 -0.2755  0.3772
 4828W        W20637   0.322   2.192   2.186  0.0448 -0.1177 -0.0020
 4829W        W20638  14.884  17.724  13.171 -0.0171  0.0423 -0.1105
 4830W        W20639   2.978   7.111  10.612  0.1132 -0.1135  0.0133
 4831W        W20640   5.542   9.064   3.217  0.0993 -0.0448  0.0732
 4832W        W20641   3.789   0.847  14.492 -0.0105  0.2236  0.1951
 4833W        W20642   9.328   9.741   2.987  0.1969  0.2042 -0.0559
 4834W        W20643   9.267  11.632  14.786 -0.1031 -0.0580 -0.1027
 4835W        W20644  16.621  17.126   0.387 -0.1202 -0.1128 -0.0794
 4836W        W20645  15.727   2.934   2.963 -0.1926  0.2611 -0.2253
 4837W        W20646   5.426   4.771   0.965 -0.1328  0.2458 -0.0627
 4838W        W20647   3.685   5.973  11.325 -0.0922  0.2470 -0.1446
 4839W        W20648  10.775   7.926  11.947  0.0838 -0.0868 -0.1352
 4840W        W20649   7.581   2.353  14.232  0.2578  0.0242  0.0215
 4841W        W20650  17.704   5.419  14.383 -0.0635  0.0561 -0.1796
 4842W        W20651  16.539   6.389   1.994  0.2160 -0.1055  0.1430
 4843W        W20652  11.315  10.426  14.302  0.0107  0.2790 -0.0646
 4844W        W20653  10.001   2.177   0.656  0.1186 -0.3038  0.0196
 4845W        W20654   3.181  15.142  10.079 -0.1583 -0.0448 -0.1017
 4846W        W20655   5.142  16.419   4.716  0.2693  0.1177  0.0784
 4847W        W20656  15.329  17.078  14.229  0.1444 -0.1158  0.4312
 4848W        W20657   5.415  13.443   5.403  0.1374  0.0532  0.1835
 4849W        W20658   5.439  17.584   0.002  0.2315 -0.2651  0.0925
 4850W        W20659  12.872   0.295  14.934 -0.4902  0.1589  0.0862
 4851W        W20660   5.948   2.614   3.850  0.1400 -0.3288 -0.0285
 4852W        W20661  11.116  15.523  15.426  0.0187  0.2394  0.1501
 4853W        W20662   7.265   2.853   0.883 -0.2907 -0.4677 -0.0062
 4854W        W20663   8.285  16.762   4.879 -0.2415  0.0320 -0.1938
 4855W        W20664   3.959   5.970   0.113 -0.0955  0.0752 -0.0820
 4856W        W20665   1.498  17.870  10.276  0.1755 -0.0456  0.2701
 4857W        W20666   8.197  15.412   1.819  0.1906 -0.0352  0.2934
 4858W        W20667   9.623   3.801  15.894  0.3094 -0.1098 -0.1479
 4859W        W20668   7.140   6.637   5.351  0.0819  0.1724  0.2768
 4860W        W20669  16.722  17.650  15.357  0.0135 -0.2901 -0.2813
 4861W        W20670   5.933   8.610   0.362 -0.0346 -0.2685  0.1265
 4862W        W20671  11.362   4.401  16.063  0.0346  0.0591  0.4019
 4863W        W20672   5.533   1.680   1.608 -0.1240 -0.0534  0.1228
 4864W        W20673   9.486   1.946  14.210  0.0888  0.0312 -0.0298
 4865W        W20674   2.827  15.938  13.731 -0.1621 -0.3642 -0.3117
 4866W        W20675   9.475   9.102   2.333 -0.0034 -0.0610 -0.1118
 4867W        W20676   9.518   7.942   0.621 -0.0222 -0.0110 -0.1074
 4868W        W20677  13.700  17.893  15.871 -0.2171  0.0099  0.2124
 4869W        W20678  13.991   6.169   0.165  0.0666 -0.1118  0.2599
 4870W        W20679   8.520   4.799  12.521  0.2189  0.2207 -0.0445
 4871W        W20680  12.288  14.821   4.634  0.0189  0.2612 -0.2866
 4872W        W20681   3.470  15.880   5.851 -0.0706  0.0621  0.1992
 4873W        W20682   0.461  17.498  10.996 -0.1717 -0.0197  0.3564
 4874W        W20683  14.247  15.557   2.700  0.3811 -0.1217 -0.2154
 4875W        W20684   3.971   9.955   4.275 -0.2421  0.0406  0.3025
 4876W        W20685  13.000   3.500  13.844 -0.0790 -0.0536 -0.0102
 4877W        W20686   1.020   8.218  10.624  0.2249 -0.0857  0.0905
 4878W        W20687  12.713   2.042  15.551 -0.0194  0.1357  0.0774
 4879W        W20688  15.491   4.178  15.912 -0.0082  0.2016 -0.2016
 4880W        W20689  11.553   8.725  14.983  0.1931  0.0381  0.1494
 4881W        W20690   6.561  15.239   5.956 -0.1178  0.0204  0.0899
 4882W        W20691  17.001   4.590   5.549 -0.0987  0.0369 -0.0894
 4883W        W20692  11.584   1.150   0.393 -0.1314  0.3589 -0.3287
 4884W        W20693   8.264   1.038   2.143  0.0457 -0.3250  0.2487
 4885W        W20694   1.491   9.717  15.390  0.1621  0.0639  0.2260
 4886W        W20695   4.528  13.145   0.255 -0.1754  0.2432 -0.0762
 4887W        W20696  11.353  17.387  13.559 -0.0694 -0.1958  0.0108
 4888W        W20697   4.224   3.045   1.370 -0.0897  0.0524 -0.1601
 4889W        W20698   6.864   2.266   0.291  0.4704 -0.1687  0.1887
 4890W        W20699  17.900   4.856   4.493  0.0340 -0.1548  0.1664
 4891W        W20700  10.714   7.772  15.988  0.1684 -0.1527  0.0062
 4892W        W20701  10.951   7.323  15.910 -0.3855 -0.1726  0.0461
 4893W        W20702  11.951  14.690  15.608  0.1149  0.1254 -0.1749
 4894W        W20703  17.989  10.074  11.651  0.0588  0.0297  0.0028
 4895W        W20704   8.993   8.100  12.985  0.3139  0.0400  0.3758
 4896W        W20705   9.210   4.758   2.802  0.2693 -0.0124  0.0646
 4897W        W20706   2.133   6.013  11.055 -0.1380  0.3023  0.1777
 4898W        W20707  14.623   8.926  13.499  0.0436  0.0148  0.0268
 4899W        W20708  10.232   9.676   1.517 -0.0292 -0.0284  0.0318
 4900W        W20709  15.011   0.997   0.249 -0.0949 -0.2674  0.2098
 4901W        W20710  10.799   8.574   2.626 -0.0105  0.3705  0.2913
 4902W        W20711   6.854   9.188   4.881  0.0336  0.0129 -0.1472
 4903W        W20712  17.208  12.583  11.595 -0.0035  0.0950 -0.3113
 4904W        W20713  18.247   9.894  14.113  0.1408  0.2297  0.1319
 4905W        W20714  12.953  14.161   0.487 -0.1612 -0.3793 -0.0780
 4906W        W20715   5.778  10.147   1.429  0.2784 -0.4342 -0.1816
 4907W        W20716  14.178   0.469  13.287  0.0768 -0.1302 -0.0459
 4908W        W20717   0.391   6.013  13.006  0.1993  0.1232  0.0560
 4909W        W20718   4.791  12.149   1.476  0.1256 -0.1040 -0.3087
 4910W        W20719   9.386  14.719  12.872  0.3033  0.0488 -0.2801
 4911W        W20720   8.738   7.303   1.711 -0.1207  0.0572  0.0130
 4912W        W20721   1.595   9.569   1.880  0.1241 -0.0482  0.2047
 4913W        W20722  15.249   5.460   4.400 -0.1922 -0.2121  0.1731
 4914W        W20723   9.005  12.188  13.224 -0.1462  0.0942  0.0854
 4915W        W20724   2.418  16.958  12.002 -0.0583 -0.3020 -0.1522
 4916W        W20725   8.203  13.850   4.412 -0.1465  0.2919 -0.2127
 4917W        W20726   6.231  12.006  15.814  0.0092  0.3641 -0.0521
 4918W        W20727  12.845  13.212  12.804  0.4162  0.3770  0.0817
 4919W        W20728   9.483  13.866  11.627 -0.1006  0.1308  0.1949
 4920W        W20729  11.772  12.892   3.201  0.0162  0.1684 -0.2931
 4921W        W20730   6.496   1.879  11.465 -0.0252  0.1095 -0.2791
 4922W        W20731  16.239  10.845  13.167 -0.0507 -0.1697 -0.1465
 4923W        W20732   2.527  17.307  15.781 -0.2348  0.1088  0.1428
 4924W        W20733   8.361   4.950  14.418  0.3712 -0.2472  0.2939
 4925W        W20734   6.725  16.554   1.578 -0.0328  0.0108  0.4035
 4926W        W20735  11.218  11.591   1.305 -0.0296 -0.0092 -0.3529
 4927W        W20736  12.826   7.687   4.847  0.1732  0.0385  0.1137
 4928W        W20737  14.391   1.550  10.209 -0.0705  0.1796 -0.3704
 4929W        W20738  16.720   9.266  13.455  0.0766  0.0163  0.1372
 4930W        W20739   7.061   0.784   2.673  0.0982 -0.1665  0.0681
 4931W        W20740  16.956   0.324   3.155  0.1702 -0.1232 -0.5309
 4932W        W20741   3.453   8.274   0.098 -0.0520 -0.1452  0.0467
 4933W        W20742   0.185   3.272   1.249 -0.2627  0.1266 -0.1098
 4934W        W20743  12.544   6.712  13.464  0.0222 -0.0130  0.0868
 4935W        W20744  14.287   7.143  15.259 -0.0933  0.2728 -0.0071
 4936W        W20745  14.363   1.536   1.269 -0.0923 -0.4460 -0.0760
 4937W        W20746   6.543   5.792   5.274  0.1165  0.0243  0.2256
 4938W        W20747  12.860  11.033  13.598 -0.1618  0.2831 -0.0683
 4939W        W20748   3.992  11.471  14.635 -0.1165  0.1229  0.0927
 4940W        W20749  13.456  10.786   2.508  0.1403 -0.0796 -0.0841
 4941W        W20750   0.437  14.287   5.477 -0.1372  0.1627  0.0123
 4942W        W20751  18.167  14.380   2.229  0.1742 -0.2606  0.0821
 4943W        W20752   8.170  18.045  16.010  0.1511  0.1949  0.0455
 4944W        W20753   6.493  18.173  13.241 -0.0438  0.0069  0.2101
 4945W        W20754   4.866   5.179  15.103  0.0257  0.0265 -0.1122
 4946W        W20755  15.361   8.077  12.891 -0.4389 -0.1751  0.0850
 4947W        W20756   7.810  12.048   2.120  0.2557 -0.2720 -0.0945
 4948W        W20757  15.585  14.482   3.083  0.0222  0.1523  0.0678
 4949W        W20758   6.803   6.050  10.889  0.0058  0.0868 -0.1840
 4950W        W20759   9.910  16.329   2.210 -0.0636  0.0327 -0.1952
 4951W        W20760   9.171   8.582  14.317  0.0206 -0.0241 -0.3968
 4952W        W20761   3.674   6.583   4.683 -0.0213  0.1461 -0.1485
 4953W        W20762  13.169  17.341  15.158 -0.1249  0.4012  0.1694
 4954W        W20763  14.526  17.512   1.958 -0.2327  0.0821 -0.2690
 4955W        W20764   3.154  10.786   4.632  0.1464  0.0833 -0.0511
 4956W        W20765   0.232   2.391   3.743  0.2670  0.1584 -0.0097
 4957W        W20766  14.205  12.332  15.235  0.1709  0.1314 -0.2424
 4958W        W20767  10.346  15.365   1.478 -0.0440  0.0116  0.1001
 4959W        W20768   1.258  10.325   0.537 -0.2796  0.2975  0.1364
 4960W        W20769   3.721  11.587   3.622  0.0260 -0.3845 -0.1406
 4961W        W20770  15.976   1.991   0.860 -0.1120  0.2933 -0.2296
 4962W        W20771   9.997   2.644   5.185  0.0321  0.2770  0.0991
 4963W        W20772   9.858   6.164  15.468  0.0548 -0.0719 -0.1858
 4964W        W20773   4.714  14.514   4.678  0.2240  0.1137  0.0404
 4965W        W20774  13.452  14.365  14.279  0.1398 -0.1280  0.0100
 4966W        W20775   5.732   5.985   0.011 -0.2361  0.0265 -0.1236
 4967W        W20776   3.330   6.065  14.906  0.0976 -0.0757  0.1370
 4968W        W20777   5.247  12.445   5.569 -0.2726 -0.1940 -0.2757
 4969W        W20778  13.336  17.200   2.288 -0.3837 -0.0066 -0.0225
 4970W        W20779   8.839  15.445  13.257  0.0769 -0.0221 -0.0303
 4971W        W20780   5.350   2.099  12.319  0.1780  0.0572 -0.0095
 4972W        W20781  15.807  15.832  12.364  0.1180 -0.1360 -0.0469
 4973W        W20782  16.313   9.880  10.606 -0.0216  0.1040 -0.0060
 4974W        W20783  12.810  14.355  15.735  0.3066  0.1275 -0.1105
 4975W        W20784   7.455   3.829  12.090  0.0973  0.0842 -0.0606
 4976W        W20785  12.918  11.224   0.579 -0.1595  0.0963 -0.1979
 4977W        W20786  15.682  14.618   2.587  0.2725  0.0906  0.0103
 4978W        W20787  12.804  11.257   5.009 -0.1917  0.2448  0.0517
 4979W        W20788  12.616   1.517  15.797 -0.0081  0.2379 -0.1772
 4980W        W20789  17.131   0.728   4.885 -0.0905  0.0057  0.1391
 4981W        W20790   0.882  11.115  11.860 -0.0368 -0.0887 -0.3075
 4982W        W20791   5.393   8.654   1.486  0.0501  0.0666 -0.0281
 4983W        W20792   8.708   3.962  15.824  0.1640  0.0050 -0.0701
 4984W        W20793  10.166   5.650  13.149  0.1333  0.0890  0.1129
 4985W        W20794   9.314   3.907   4.618 -0.3110 -0.1717  0.0649
 4986W        W20795   5.403  13.429  10.592  0.0366  0.2629 -0.2002
 4987W        W20796   2.184   1.830  11.641 -0.4518  0.1181 -0.3381
 4988W        W20797  16.734   7.320   4.745 -0.0403  0.4152 -0.1937
 4989W        W20798   0.574   2.706  12.519 -0.1414 -0.2695 -0.0539
 4990W        W20799  11.376   9.141  10.059  0.2072 -0.2321  0.0721
 4991W        W20800  11.489   6.918   1.244  0.0264 -0.3384 -0.0085
 4992W        W20801   6.397   3.631   4.762  0.1733 -0.2139  0.2432
 4993W        W20802   1.947   7.777  14.927 -0.0533  0.0240 -0.1563
 4994W        W20803   4.213   5.580   3.390  0.0090  0.1373  0.2036
 4995W        W20804   6.992  14.911   4.797  0.0066  0.1464 -0.2079
 4996W        W20805  13.151   5.837   3.754  0.3128 -0.0404  0.0282
 4997W        W20806   5.788  12.762   1.069  0.2179  0.2982  0.1829
 4998W        W20807   1.184   3.429   5.002 -0.1897  0.0715 -0.0324
 4999W        W20808   9.504   1.961   0.118  0.1851  0.0464 -0.0786
 5000W        W20809   3.852   8.297   2.153 -0.0985 -0.1486  0.1228
 5001W        W20810  10.010   2.808   2.236  0.2714  0.0699 -0.1607
 5002W        W20811   1.021   7.101   2.998  0.0530 -0.0481 -0.0462
 5003W        W20812  11.296   7.833   3.677  0.2085 -0.1874  0.0286
 5004W        W20813   4.997   9.833  10.891 -0.2225 -0.1945 -0.3479
 5005W        W20814  15.963   6.783   1.307  0.1590  0.0203 -0.3150
 5006W        W20815   1.136   4.082  13.093  0.1382  0.1143  0.0145
 5007W        W20816  10.147  18.191  15.363 -0.0950 -0.3941  0.1350
 5008W        W20817  14.682  14.116   0.520  0.0537 -0.1218  0.0316
 5009W        W20818  10.861   6.464   0.106 -0.4366  0.0782  0.3779
 5010W        W20819  11.468  13.959  11.807  0.0506  0.1568  0.0120
 5011W        W20820   1.461  16.909  15.255 -0.1501 -0.0670  0.0167
 5012W        W20821   9.816   4.925   3.562  0.1145 -0.0567 -0.0626
 5013W        W20822   2.485   4.795   3.141  0.3104  0.2499  0.2819
 5014W        W20823  10.515  14.002  14.188 -0.0661  0.2696 -0.1368
 5015W        W20824   7.736   0.258  14.247 -0.0004  0.2028  0.0334
 5016W        W20825   2.513  10.928  15.184  0.2288  0.1763 -0.1759
 5017W        W20826   2.963  13.182   4.436  0.0144 -0.1203 -0.0175
 5018W        W20827   8.826  12.140  13.741  0.1084 -0.0359 -0.0534
 5019W        W20828  17.639  11.051   3.355  0.2393 -0.0475 -0.0594
 5020W        W20829  13.254   6.697   0.542 -0.2242  0.0915  0.1097
 5021W        W20830   3.327   4.697  13.693 -0.2193 -0.0171 -0.0871
 5022W        W20831  14.580  13.423  15.513 -0.0800  0.0802  0.0174
 5023W        W20832  12.060  18.212   0.530 -0.0628 -0.2688 -0.2461
 5024W        W20833   1.580  10.725   3.014  0.1579 -0.0201 -0.0709
 5025W        W20834  14.910   5.671   3.989 -0.2319 -0.0782  0.1034
 5026W        W20835   7.031   2.342   4.507  0.0673  0.0358  0.1842
 5027W        W20836  13.746   9.090  14.449  0.0056  0.0619 -0.0759
 5028W        W20837   8.892   5.204   4.925  0.1164 -0.3855  0.3289
 5029W        W20838  15.159  13.228   5.912 -0.0643 -0.2423  0.0301
 5030W        W20839  11.265  18.197   2.888  0.3445 -0.0493  0.2070
 5031W        W20840  11.198  17.256   0.031  0.3603  0.1775 -0.1027
 5032W        W20841  13.578   6.066   3.965 -0.1302  0.0276  0.4752
 5033W        W20842   2.707   4.188  15.118 -0.3176 -0.0596  0.1933
 5034W        W20843  15.883  11.105  13.422 -0.2376  0.1126 -0.4613
 5035W        W20844   6.647  14.778  13.205 -0.2531 -0.1349 -0.0717
 5036W        W20845  12.102  12.703  15.995 -0.3222 -0.0949  0.2096
 5037W        W20846  10.355   7.112  14.431  0.1952 -0.1887 -0.2613
 5038W        W20847   2.151   3.707  11.763 -0.0240 -0.0214  0.0050
 5039W        W20848   0.090  12.412  13.448  0.3981 -0.1132  0.2771
 5040W        W20849   7.212   7.387   0.901 -0.0403 -0.2278 -0.0120
 5041W        W20850  13.610  16.754   0.462 -0.1353  0.0976  0.1334
 5042W        W20851   2.844  11.548   3.348 -0.1169  0.0470  0.0461
 5043W        W20852  16.466  11.322   0.084 -0.1707 -0.1952 -0.0678
 5044W        W20853  14.333   7.446   1.073 -0.2327  0.0972 -0.4247
 5045W        W20854   5.442   4.671   3.249 -0.3142  0.1179  0.1287
 5046W        W20855   1.573  17.783  14.336  0.2067 -0.0964 -0.2249
 5047W        W20856   4.321  10.882   1.754  0.1510 -0.1128 -0.1426
 5048W        W20857   9.480  13.063   2.857  0.1243 -0.1718 -0.1084
 5049W        W20858   1.689   5.538  13.683  0.0450 -0.0065  0.0057
 5050W        W20859   9.290  13.870   0.875  0.2828 -0.1735  0.1103
 5051W        W20860   6.166   0.389   1.785 -0.2306  0.0676  0.0999
 5052W        W20861   9.462  11.007   2.976  0.2923  0.2342 -0.0859
 5053W        W20862  16.974   9.576   2.313  0.0500  0.1042 -0.3139
 5054W        W20863  16.138   3.478   5.034  0.0892  0.0347 -0.0146
 5055W        W20864  12.835   3.212   2.840  0.2997  0.2354  0.0893
 5056W        W20865  12.418  12.087   6.271 -0.1032 -0.3751  0.2540
 5057W        W20866   3.439   9.924   0.250 -0.1159 -0.0195  0.2019
 5058W        W20867   6.258   4.848  15.331  0.4482 -0.0174 -0.3674
 5059W        W20868   6.530   9.549   2.258 -0.0701 -0.1538 -0.1620
 5060W        W20869  15.155  13.893   2.217  0.3974  0.0285 -0.0218
 5061W        W20870   7.291   0.459   0.141  0.0444  0.1520 -0.0966
 5062W        W20871  17.496   9.301  15.746 -0.1140  0.0710  0.1893
 5063W        W20872   1.605   9.520   5.647  0.3832 -0.2136  0.1223
 5064W        W20873  16.333  17.040  15.425 -0.3506  0.2429  0.1007
 5065W        W20874  12.206   5.775  15.116 -0.0726 -0.1249  0.0544
 5066W        W20875   5.473  11.907   3.082 -0.0034  0.1866 -0.0159
 5067W        W20876  12.737  14.276   3.001  0.1434 -0.0251 -0.2083
 5068W        W20877   3.016  15.517  13.565  0.0916  0.0248  0.4472
 5069W        W20878   0.091   9.263   5.300  0.0038 -0.3964 -0.0342
 5070W        W20879   1.602   0.225  13.647 -0.1209  0.0193 -0.0693
 5071W        W20880   5.803  17.836   5.363  0.0514 -0.1740 -0.0893
 5072W        W20881  13.049  17.603  12.922  0.1372  0.0150  0.2116
 5073W        W20882  17.808  14.231   1.691  0.0159 -0.0170  0.0104
 5074W        W20883  16.081   4.956  12.620 -0.0141  0.0269  0.1476
 5075W        W20884   3.431  11.365   1.561  0.1546  0.3096  0.1020
 5076W        W20885  16.696   8.091  15.571  0.1149  0.0202 -0.1508
 5077W        W20886  10.447  10.263   5.890  0.1557 -0.0687  0.1371
 5078W        W20887   3.564   3.480  14.029 -0.2642 -0.2041  0.4858
 5079W        W20888  16.587   9.930  13.732 -0.0707 -0.1291 -0.1914
 5080W        W20889   8.353   0.487   4.768  0.2096  0.1190 -0.1471
 5081W        W20890   8.158   1.140  13.137  0.1436 -0.1136 -0.2141
 5082W        W20891   7.469   4.889   4.793  0.0197 -0.2402  0.3808
 5083W        W20892  16.905   7.942  14.079 -0.0378  0.0972  0.2421
 5084W        W20893   0.291   4.292   4.188 -0.1471 -0.1386 -0.0763
 5085W        W20894   5.264   2.119   3.036 -0.0733  0.0338  0.0390
 5086W        W20895   2.955  16.384   5.651  0.0571  0.1436  0.0392
 5087W        W20896  13.784  16.810  13.419 -0.3292  0.1160  0.0153
 5088W        W20897   4.622  10.203  12.674 -0.0609  0.2047 -0.0925
 5089W        W20898   7.255   8.209   1.550  0.0341  0.1220  0.0733
 5090W        W20899  13.959  17.899  14.815 -0.0133  0.1213 -0.0787
 5091W        W20900   9.201   0.827  11.961 -0.1085 -0.0047 -0.0462
 5092W        W20901  16.296   5.468  14.497  0.0085  0.0634  0.0771
 5093W        W20902   5.423   8.381   4.825 -0.2844 -0.1063  0.0227
 5094W        W20903  18.143   8.089   4.644 -0.1466 -0.1634 -0.2545
 5095W        W20904   3.311   9.834   5.228 -0.1328  0.0505  0.4083
 5096W        W20905  11.704  10.848  12.727  0.2139  0.1072  0.0649
 5097W        W20906  18.096   1.342  13.289 -0.1996  0.0610  0.2605
 5098W        W20907  10.658   7.776   1.402  0.0629 -0.0266 -0.0062
 5099W        W20908  15.472   4.613  14.960 -0.1091 -0.0387 -0.3992
 5100W        W20909  12.346  15.151  12.771 -0.0271  0.1353 -0.0053
 5101W        W20910   9.723   8.624  13.398  0.1785 -0.4334  0.1130
 5102W        W20911   7.518  17.919   0.742 -0.2753  0.0291 -0.0989
 5103W        W20912   5.856  16.764   5.224 -0.1418 -0.0247 -0.0466
 5104W        W20913  15.827  14.878  12.701  0.0331  0.0753  0.2560
 5105W        W20914   8.349   8.034   3.664 -0.3526 -0.0377 -0.1198
 5106W        W20915   4.181  13.841   5.316 -0.0248  0.0846 -0.2074
 5107W        W20916  11.991   7.008   1.393  0.2320  0.1686  0.0539
 5108W        W20917  11.389  11.124  11.041  0.0529 -0.2660 -0.0180
 5109W        W20918   0.134  16.440  15.161 -0.0628  0.2151 -0.1827
 5110W        W20919   6.698   4.612   3.852  0.1213  0.0885 -0.0131
 5111W        W20920  14.657   4.523   2.074  0.0721 -0.1326 -0.0200
 5112W        W20921   4.467   1.351  12.646 -0.0308 -0.3280 -0.4019
 5113W        W20922   6.170  17.506  14.629 -0.0365  0.1442  0.1687
 5114W        W20923  17.836  15.911   9.630  0.1175  0.2066  0.1911
 5115W        W20924   0.936  11.269   0.773  0.0707 -0.2566  0.0380
 5116W        W20925   1.578   3.051   3.781  0.3290  0.0734 -0.0501
 5117W        W20926   2.847   1.611  14.967  0.1188 -0.0233  0.0637
 5118W        W20927   5.687  16.060   3.713  0.1759 -0.0773 -0.0101
 5119W        W20928  10.474  10.273  11.320 -0.0421  0.2021  0.0202
 5120W        W20929   1.684   0.110  12.037  0.2017 -0.1736  0.2111
 5121W        W20930   2.450  15.803   1.883  0.1108  0.0428  0.1561
 5122W        W20931   4.344   6.663  11.592 -0.1263  0.1178 -0.1199
 5123W        W20932   0.050  18.090  15.837 -0.0986 -0.0282  0.2617
 5124W        W20933   0.499   0.923   1.526 -0.1684  0.0205 -0.2344
 5125W        W20934  14.113  13.127  12.153  0.0485 -0.2675 -0.0298
 5126W        W20935   7.188   1.968   4.101  0.0447 -0.1242  0.0393
 5127W        W20936  11.779   8.470   3.122  0.1744 -0.0821  0.1145
 5128W        W20937  14.017   5.559  13.573  0.1705  0.2565 -0.2962
 5129W        W20938   9.864   5.250  15.522  0.3214  0.1763  0.1340
 5130W        W20939  14.056   1.394  15.292  0.3234  0.2252  0.0534
 5131W        W20940   5.160  16.953   0.622  0.0479 -0.0555 -0.3925
 5132W        W20941   5.511   0.251   1.394  0.1197  0.3853 -0.3323
 5133W        W20942   9.196   4.988  15.386 -0.4821 -0.3155  0.0948
 5134W        W20943   1.466   7.532   2.286 -0.3568  0.1844  0.1167
 5135W        W20944  16.765   7.204   3.676  0.2807 -0.2104  0.2396
 5136W        W20945  12.425   4.148   3.502  0.0185  0.3668 -0.0779
 5137W        W20946  11.386  13.623  14.085  0.0041  0.0518 -0.0624
 5138W        W20947   0.740   9.821   5.095  0.1832 -0.1638  0.1310
 5139W        W20948   0.344  14.537   1.882 -0.1342  0.1793  0.2364
 5140W        W20949   1.723  13.381   2.576  0.0574 -0.0496 -0.1007
 5141W        W20950   0.026   3.991  11.732  0.0564  0.0262  0.1368
 5142W        W20951   1.160  18.020   3.680 -0.2157 -0.0689 -0.1903
 5143W        W20952  14.296  10.152   0.387  0.2512 -0.0363 -0.2745
 5144W        W20953  14.208  10.044  12.097  0.0064 -0.0071  0.1706
 5145W        W20954   1.739  12.899   0.693  0.1836 -0.1485  0.0237
 5146W        W20955  11.501  16.048  11.672  0.4093 -0.1004 -0.3723
 5147W        W20956   7.563  17.700   1.544  0.0127  0.1535  0.2754
 5148W        W20957  12.013  14.341  11.164 -0.1430  0.0184 -0.0065
 5149W        W20958  12.144   3.896  14.349 -0.2631  0.2257 -0.0308
 5150W        W20959   4.747  11.658   1.893 -0.1720 -0.3815 -0.0370
 5151W        W20960  18.154  14.113   4.185 -0.4228 -0.0094  0.0681
 5152W        W20961   4.847   5.364  12.014 -0.3594 -0.4706 -0.0423
 5153W        W20962  11.070   8.403   4.794 -0.2332  0.0929  0.1338
 5154W        W20963  12.749  13.087   4.337  0.0804 -0.2400  0.0622
 5155W        W20964   9.030  10.889  11.722 -0.0921 -0.0700  0.2237
 5156W        W20965   5.643   5.837  15.524 -0.0163 -0.2801 -0.0187
 5157W        W20966   1.789  16.823  14.385  0.1667  0.2757  0.1669
 5158W        W20967  13.388   0.975  11.717 -0.1116 -0.0273 -0.1900
 5159W        W20968   6.897   2.862  13.712  0.0694  0.0056 -0.2567
 5160W        W20969   7.710  12.740  12.084 -0.0485  0.1759 -0.2025
 5161W        W20970  15.011  13.221   1.769  0.0577 -0.3530 -0.0525
 5162W        W20971   7.336   4.390   4.946  0.0063  0.1642  0.2853
 5163W        W20972   0.209   6.510  13.975  0.1337 -0.1065  0.2760
 5164W        W20973  15.380   2.657   2.566  0.1183  0.0019 -0.1135
 5165W        W20974   4.831   1.091   4.143 -0.1864 -0.0534  0.0271
 5166W        W20975   8.887   4.614   3.553  0.4503  0.0044 -0.1182
 5167W        W20976  10.495  13.403  12.426 -0.0522  0.0507 -0.0398
 5168W        W20977  10.454   5.637   1.842 -0.1201  0.0032  0.0198
 5169W        W20978  11.878   8.455  10.109 -0.0558 -0.0846 -0.1622
 5170W        W20979  16.301   1.573   2.380  0.0061 -0.0232 -0.2549
 5171W        W20980   8.694   1.105   0.580 -0.4922 -0.1514 -0.0165
 5172W        W20981  16.781   4.504  11.609 -0.2762 -0.2902 -0.1256
 5173W        W20982  14.139   1.239  11.279  0.2227  0.1004  0.2693
 5174W        W20983  11.099  13.241  13.033 -0.1675  0.1260  0.0622
 5175W        W20984   7.258   1.107  14.033 -0.2993  0.0328 -0.0113
 5176W        W20985   9.875  12.399   3.677 -0.0459  0.0708 -0.0609
 5177W        W20986  18.142   7.570   2.690 -0.0316 -0.0499  0.2349
 5178W        W20987   0.651  17.231  15.571 -0.0597  0.0443  0.1026
 5179W        W20988  12.990  10.696  13.238 -0.1412  0.3873 -0.1210
 5180W        W20989   8.989   1.171   3.660 -0.1357 -0.0562 -0.1288
 5181W        W20990   0.886   3.681  10.967 -0.2016  0.2886 -0.1483
 5182W        W20991   1.994  17.108  15.920  0.0161  0.3331 -0.2330
 5183W        W20992  13.218   4.936   3.269 -0.2456 -0.0095  0.0261
 5184W        W20993  15.681   6.675  14.781 -0.0449  0.0432  0.0354
 5185W        W20994  14.166  15.117  16.024  0.0154  0.1272  0.1396
 5186W        W20995   4.984  17.356   2.882 -0.0370  0.1004  0.2301
 5187W        W20996   5.015   4.734   9.846  0.3441  0.0807  0.2852
 5188W        W20997  10.756   7.634   5.236  0.1073  0.2086  0.0381
 5189W        W20998   5.397   0.035  11.278  0.0734  0.1205 -0.0467
 5190W        W20999  11.631   9.428  13.570  0.1019 -0.1254 -0.1599
 5191W        W21000  17.099   4.783   0.970  0.0680  0.1346 -0.1379
 5192W        W21001   3.501   4.440   3.230 -0.0602  0.0895  0.1561
 5193W        W21002  12.803   3.619   0.146  0.1219  0.2469 -0.0802
 5194W        W21003   9.684  17.885  10.861  0.1675  0.1170  0.0984
 5195W        W21004   0.391   6.317  15.462 -0.2670  0.0349 -0.2472
 5196W        W21005   2.890   6.435  11.169  0.1896 -0.0821 -0.3106
 5197W        W21006  13.094   5.962   0.127 -0.2221 -0.1683  0.2269
 5198W        W21007  15.286  15.437   3.009  0.0686  0.0480  0.0926
 5199W        W21008  14.791  14.059  10.794 -0.1376  0.1460  0.1294
 5200W        W21009   0.161   7.553   2.151  0.2039  0.1133  0.2341
 5201W        W21010   5.468  17.185  14.879  0.0314 -0.0424  0.0136
 5202W        W21011   2.649   4.985  11.426  0.2152 -0.0782  0.1665
 5203W        W21012  17.604   8.887  11.004  0.2178  0.1450  0.3564
 5204W        W21013   4.755   6.206  14.898  0.0660 -0.0030 -0.1608
 5205W        W21014  11.010   6.072  11.971  0.4478  0.0039  0.1672
 5206W        W21015   1.078   0.184  11.436  0.0204 -0.1589  0.3242
 5207W        W21016  10.370   4.208   5.461 -0.1862  0.0906 -0.2181
 5208W        W21017   2.996   3.099  15.279  0.3048 -0.1123 -0.1214
 5209W        W21018   0.518   1.040   3.995  0.2162 -0.0613 -0.1403
 5210W        W21019   6.042   5.397   3.129 -0.1660 -0.2337  0.0975
 5211W        W21020   3.602  11.802   1.213  0.0430 -0.0473 -0.1164
 5212W        W21021  15.577   3.835  13.099  0.0971 -0.3763  0.1929
 5213W        W21022  13.905   7.752  13.366  0.1862  0.0207 -0.1614
 5214W        W21023   6.213   6.596   5.792  0.2301  0.1200  0.1618
 5215W        W21024  13.489   4.958  11.532 -0.3509 -0.1081  0.0552
 5216W        W21025   4.546  13.306  12.926  0.1893  0.1256  0.0055
 5217W        W21026  11.744   6.153  12.487  0.1098  0.2253 -0.0858
 5218W        W21027  10.628   5.616  12.004 -0.1352  0.1098  0.2013
 5219W        W21028  11.859  13.920   0.564  0.0231  0.1229  0.1438
 5220W        W21029  12.614   1.642   4.052  0.3326  0.0485 -0.1075
 5221W        W21030  11.973  12.598   5.537  0.2356 -0.2813  0.2804
 5222W        W21031  16.455   4.425  14.042  0.4291 -0.2288  0.3190
 5223W        W21032   3.275   9.376   0.130  0.1768  0.0057 -0.1009
 5224W        W21033  15.529   6.506   1.507 -0.2254 -0.0573  0.0600
 5225W        W21034   0.721  10.833   0.043 -0.3077 -0.2847 -0.1570
 5226W        W21035  17.104   0.130   3.668 -0.1196 -0.1560 -0.2621
 5227W        W21036  16.797  11.673   5.037 -0.1491  0.2444 -0.5441
 5228W        W21037  17.027  15.193   0.305 -0.3630 -0.3440 -0.1883
 5229W        W21038   9.245   7.382   1.541  0.0121  0.0650  0.1558
 5230W        W21039   4.909   9.921   1.917 -0.0581  0.2532 -0.1052
 5231W        W21040   2.345  13.078  15.621 -0.0529  0.0779 -0.1257
 5232W        W21041   7.737   1.377   1.962  0.0998  0.0436 -0.0754
 5233W        W21042  17.088  11.905  15.604  0.0047 -0.1053  0.2028
 5234W        W21043  17.454  13.163   1.438 -0.1060 -0.1148 -0.1840
 5235W        W21044   5.229  16.477  14.400 -0.1179 -0.1406 -0.1717
 5236W        W21045   5.466   5.331   2.769  0.0844  0.0852 -0.0739
 5237W        W21046   8.976  14.822  12.480  0.3418  0.3373  0.0549
 5238W        W21047   8.359  12.641   4.988  0.0934  0.1117 -0.0438
 5239W        W21048   8.419   6.156   1.033 -0.0942  0.0222 -0.0062
 5240W        W21049   0.327  12.849   0.027  0.3339  0.0116  0.2166
 5241W        W21050   4.253   0.707   4.642  0.0723 -0.2056  0.1073
 5242W        W21051  10.505   9.054  12.281 -0.2613 -0.2047 -0.2392
 5243W        W21052   0.442  11.466  12.003 -0.1938 -0.1014 -0.2506
 5244W        W21053  10.917  15.684   5.162 -0.0067  0.1634  0.1074
 5245W        W21054  15.768   0.650   6.393  0.1793 -0.0790 -0.1318
 5246W        W21055  11.874  16.373   0.113  0.1493 -0.1296 -0.0267
 5247W        W21056  13.556  10.048   1.440 -0.0035  0.0163  0.0499
 5248W        W21057  11.777   7.800   3.137  0.1592 -0.1986 -0.4074
 5249W        W21058   1.476   8.743   1.429  0.2303  0.1527 -0.4175
 5250W        W21059  10.029  17.473  12.339 -0.1439 -0.4284  0.1013
 5251W        W21060  17.553   3.479   3.069  0.0646 -0.1335  0.0100
 5252W        W21061  15.339  15.073   2.667  0.1337 -0.1108  0.2882
 5253W        W21062   2.250   4.804  15.705  0.1960 -0.0693  0.1147
 5254W        W21063   7.172  14.135   5.500 -0.0404  0.4606  0.0399
 5255W        W21064  10.339  10.543   0.622 -0.4678 -0.0799  0.0669
 5256W        W21065  14.187   6.112   4.432 -0.0465  0.0882 -0.0292
 5257W        W21066   8.305  16.627  12.913 -0.0512  0.1605 -0.0890
 5258W        W21067   7.245  12.915   1.536  0.0458  0.2416  0.0617
 5259W        W21068  17.744   9.624   4.395 -0.1152  0.0447 -0.0140
 5260W        W21069   9.095  15.775  11.495  0.1429  0.0057  0.1516
 5261W        W21070   7.433  16.252   4.426 -0.0308  0.0462 -0.0235
 5262W        W21071   5.453  17.472  11.403 -0.4768 -0.1742 -0.1087
 5263W        W21072  13.540   5.254  12.938 -0.1538 -0.3963 -0.0261
 5264W        W21073  14.046  13.690   3.576 -0.2698  0.1085  0.0393
 5265W        W21074  10.195  14.664  13.110 -0.1962  0.0117 -0.0679
 5266W        W21075   0.106   1.893  11.394 -0.1885 -0.1803 -0.1233
 5267W        W21076   7.340  15.784  15.085  0.1048  0.0037  0.0060
 5268W        W21077   5.211  10.770   5.102 -0.0485 -0.1331 -0.1735
 5269W        W21078  11.342  16.223   3.591 -0.0422  0.0151  0.0473
 5270W        W21079  11.661   3.597  15.636 -0.2910 -0.0662  0.1022
 5271W        W21080   7.299   7.416  15.558 -0.2816 -0.0019 -0.1469
 5272W        W21081   8.940   3.307  13.065 -0.0472 -0.0617 -0.2948
 5273W        W21082  11.830   9.481   5.741 -0.0256  0.2062 -0.1717
 5274W        W21083  17.564   8.738  12.398  0.2353  0.2761  0.0804
 5275W        W21084  13.463   1.847   4.507 -0.0679  0.0523  0.1912
 5276W        W21085   3.275  15.347   4.491  0.1204 -0.1577 -0.0926
 5277W        W21086  10.452  15.334  14.238 -0.1399 -0.1153 -0.3467
 5278W        W21087  17.405   1.542   5.484 -0.1279 -0.2357  0.0120
 5279W        W21088   5.943   9.597   3.940 -0.0918  0.2279  0.0123
 5280W        W21089   2.472   7.487  11.982 -0.1429  0.1921 -0.0165
 5281W        W21090  14.259  14.710   5.751  0.0041 -0.1499 -0.0143
 5282W        W21091   3.437  10.439   0.612 -0.0896  0.1713  0.0254
 5283W        W21092   2.629  11.753  15.791  0.1392  0.1501 -0.2502
 5284W        W21093  10.723  10.546   4.448  0.0982 -0.0139 -0.1446
 5285W        W21094  10.804   7.783   2.964 -0.1085  0.1414 -0.2334
 5286W        W21095  15.303  15.814  14.151  0.0177  0.0173 -0.0786
 5287W        W21096   6.490   3.013   2.566 -0.1294  0.6029  0.0670
 5288W        W21097   3.303   2.035   4.530  0.0044 -0.0273 -0.0318
 5289W        W21098  10.024  15.048  13.984  0.0121  0.1125  0.0930
 5290W        W21099  16.130  18.200   0.031  0.2528  0.0076 -0.3711
 5291W        W21100  13.725  14.655  12.897 -0.1960 -0.2899  0.1369
 5292W        W21101   0.766   4.253  14.527 -0.0980 -0.1907 -0.0788
 5293W        W21102   1.823   1.981   0.199 -0.1466 -0.0378  0.2120
 5294W        W21103  10.480  11.288  11.948 -0.3023 -0.2326  0.0945
 5295W        W21104   0.026   2.152   0.218 -0.0646 -0.0618  0.3182
 5296W        W21105  13.191  15.579  11.145  0.3988 -0.0656 -0.1066
 5297W        W21106   9.958   0.405  13.912 -0.2504  0.2488 -0.1187
 5298W        W21107  17.243  13.164   1.959 -0.1548  0.0689 -0.0865
 5299W        W21108   5.972  14.626   5.921 -0.0109  0.1694 -0.0560
 5300W        W21109  10.375  16.406  15.246  0.2394 -0.2784 -0.0591
 5301W        W21110  14.883  11.443   1.998  0.3371 -0.1280  0.3347
 5302W        W21111  10.501   6.269   4.259  0.1790  0.2591  0.3044
 5303W        W21112   1.147  15.786   0.800  0.0572  0.2736 -0.1869
 5304W        W21113   2.734   3.234   5.171  0.0065 -0.1701 -0.0999
 5305W        W21114  17.822   4.983  11.315 -0.0394 -0.1618  0.0787
 5306W        W21115   0.000   6.962  14.082 -0.3834 -0.1570 -0.0424
 5307W        W21116  14.344  15.585  11.479 -0.1775 -0.1148  0.0587
 5308W        W21117   3.105  16.248  14.278  0.0652  0.1831  0.2029
 5309W        W21118  13.447   2.614   4.371  0.1328 -0.1357 -0.1920
 5310W        W21119  16.395  18.022   1.380 -0.0274  0.2037  0.1302
 5311W        W21120  16.872  12.687  14.355  0.0343  0.0498 -0.0751
 5312W        W21121  18.052  17.602  11.866  0.0444 -0.0850 -0.0002
 5313W        W21122   8.998   3.264   4.739  0.0560  0.1027  0.0293
 5314W        W21123  12.609   5.418   3.982  0.0891 -0.1884 -0.1633
 5315W        W21124  11.165   5.638   2.934 -0.0631  0.0723 -0.0466
 5316W        W21125  11.551   8.970   3.130 -0.1077 -0.0848 -0.2045
 5317W        W21126   1.938  16.789  11.850  0.0185  0.2383 -0.0552
 5318W        W21127  15.319  14.589   1.269  0.2755 -0.2056  0.0240
 5319W        W21128  16.626   8.126   2.295 -0.3306  0.2784  0.2088
 5320W        W21129  15.021   8.177  15.851 -0.1865  0.5361 -0.0476
 5321W        W21130   4.088   6.443  13.835  0.0650  0.1249  0.0525
 5322W        W21131   9.608   6.351   1.539 -0.0228  0.0534 -0.1544
 5323W        W21132  12.566   8.686   3.532  0.1535 -0.3587 -0.1484
 5324W        W21133   1.066  14.354  15.982 -0.2412 -0.1063  0.0347
 5325W        W21134  17.626   0.755   0.730 -0.1119 -0.0822 -0.0969
 5326W        W21135   6.577   7.657  11.449  0.1299 -0.2547 -0.1716
 5327W        W21136   5.368   9.772  12.554  0.0899 -0.2748 -0.1979
 5328W        W21137   5.575   9.452  10.321 -0.1316 -0.1921  0.1013
 5329W        W21138   8.637   4.406   2.600 -0.1062  0.0244  0.2955
 5330W        W21139  11.794  14.398   2.463  0.1185  0.0490 -0.1258
 5331W        W21140   9.311  12.796  14.713  0.1620  0.3690 -0.0305
 5332W        W21141   7.924  13.768   2.572 -0.2518 -0.0507  0.2136
 5333W        W21142  12.804  12.624  11.815 -0.2433 -0.0412  0.3240
 5334W        W21143   2.017  15.785   3.674 -0.1092 -0.0955 -0.2711
 5335W        W21144   7.589   0.505   4.286  0.0385  0.0017  0.0461
 5336W        W21145  11.681   0.641   2.478 -0.0338 -0.2569 -0.2130
 5337W        W21146  17.854   9.135   5.360 -0.1486  0.2633  0.0831
 5338W        W21147   9.506   9.811   0.887 -0.2610  0.0884  0.0737
 5339W        W21148  10.232  11.928  13.046  0.0615  0.1314  0.0496
 5340W        W21149   5.128   7.226  12.175 -0.1240  0.0035 -0.2152
 5341W        W21150   8.038   9.887   0.969  0.3408  0.0934  0.0459
 5342W        W21151   3.316  11.901   0.696 -0.2270  0.1267  0.0482
 5343W        W21152   0.202   5.742   2.734 -0.2815  0.1068 -0.5383
 5344W        W21153   3.037  13.841  12.548 -0.2989  0.1764 -0.3172
 5345W        W21154  17.740  16.573   0.378  0.2297 -0.3188 -0.1080
 5346W        W21155   5.721   5.067   3.242  0.2508 -0.1615  0.0433
 5347W        W21156   4.550  11.307  15.518  0.0913  0.0346 -0.0449
 5348W        W21157   4.294   9.816  10.361  0.1704 -0.0180 -0.1173
 5349W        W21158  11.406   8.689   5.163 -0.0532 -0.1770  0.0275
 5350W        W21159   4.755  16.716   4.341 -0.0422  0.0910  0.1101
 5351W        W21160  10.248   9.459   5.620  0.3414 -0.1090 -0.3095
 5352W        W21161  14.382   6.138  12.388  0.0280 -0.2626  0.1606
 5353W        W21162  17.970  10.809  13.355 -0.1696 -0.3848 -0.1150
 5354W        W21163  15.610  12.800   1.107 -0.1538  0.1654  0.1126
 5355W        W21164  17.828   2.490   0.660 -0.0964  0.4524  0.4668
 5356W        W21165  16.319  12.903   2.426  0.2447 -0.0333  0.1247
 5357W        W21166   4.052   7.723  12.022 -0.1767  0.0388 -0.1017
 5358W        W21167  13.516   8.475  13.020 -0.3923  0.1996  0.0181
 5359W        W21168   0.125  16.425   3.144  0.1684  0.0998 -0.1462
 5360W        W21169   8.259   7.520   0.661  0.2140 -0.0034  0.2569
 5361W        W21170   7.373   6.275  15.121 -0.2386  0.1886  0.0120
 5362W        W21171  17.117   9.604  15.175 -0.0200  0.0150 -0.2539
 5363W        W21172   9.863   9.957   1.305  0.2298  0.1552 -0.2692
 5364W        W21173   4.431  13.779   3.067  0.0606  0.1888 -0.0207
 5365W        W21174  13.023  12.271   3.504 -0.1636  0.0203 -0.2892
 5366W        W21175  10.637   9.531  15.053  0.0976 -0.0195  0.0155
 5367W        W21176   7.663  12.453  10.463 -0.0534 -0.0122 -0.1779
 5368W        W21177   6.446   9.358  12.139 -0.2064  0.0650  0.1370
 5369W        W21178  10.583   7.257   4.956  0.0242  0.0778 -0.1986
 5370W        W21179   4.689   2.541  14.374 -0.1330  0.1453  0.1008
 5371W        W21180  14.825  10.314   4.642  0.1192 -0.0391 -0.3742
 5372W        W21181   1.254   2.863   1.179 -0.0348 -0.4948 -0.0509
 5373W        W21182  15.158   2.290   1.401  0.0038 -0.0410 -0.1921
 5374W        W21183  10.908   4.005  10.901 -0.3759  0.2732 -0.0193
 5375W        W21184  14.510   1.161   2.973  0.0923  0.3414  0.0405
 5376W        W21185   6.413  12.004  12.477  0.1357  0.0020  0.0240
 5377W        W21186   7.412   4.473  15.009 -0.2626 -0.1145  0.1292
 5378W        W21187  12.941  16.816   3.377 -0.2021  0.1007 -0.1431
 5379W        W21188  11.112   1.571  14.704 -0.0594 -0.2860 -0.1518
 5380W        W21189  16.980   5.630  14.656 -0.0267  0.1728 -0.1556
 5381W        W21190  17.314   4.792  14.755 -0.1250 -0.0487 -0.1103
 5382W        W21191  13.808   2.158   5.194  0.2188 -0.0429 -0.2298
 5383W        W21192   2.651   2.604  12.738  0.2824 -0.1237  0.1874
 5384W        W21193  11.413  12.588   3.021 -0.2846 -0.0803  0.0185
 5385W        W21194  12.343   4.616  16.029 -0.0599  0.1723  0.0205
 5386W        W21195   1.501  14.495   3.452  0.0804 -0.0145  0.1013
 5387W        W21196  17.346   3.225   4.484  0.0405 -0.0098  0.1948
 5388W        W21197  14.875   3.631  13.558  0.0556 -0.0532 -0.1391
 5389W        W21198   1.349  17.293  14.293  0.2637 -0.0460 -0.0745
 5390W        W21199   5.745   1.905   2.831 -0.0483 -0.0817 -0.0091
 5391W        W21200   9.794  12.931   0.784  0.2540  0.0516  0.1897
 5392W        W21201   5.889   7.774   3.054 -0.0575 -0.0186 -0.0050
 5393W        W21202  11.930  12.995  12.761  0.3204  0.1938 -0.1445
 5394W        W21203   4.661   2.596   4.250 -0.1626 -0.1412  0.3444
 5395W        W21204  17.227   7.260   4.983  0.2309 -0.2280 -0.1758
 5396W        W21205  13.274   5.154  12.482  0.1053  0.1300  0.1934
 5397W        W21206  14.120   1.417   0.201  0.0516  0.1670  0.0569
 5398W        W21207   7.176  12.018   0.036 -0.0259 -0.0134  0.2686
 5399W        W21208  18.014   0.324  13.746 -0.2808 -0.1252 -0.1665
 5400W        W21209  10.064  14.964   1.994 -0.1148 -0.0692 -0.1497
 5401W        W21210   7.115  11.314   4.699  0.0475  0.0897 -0.0040
 5402W        W21211   2.965   7.074   4.598 -0.0226 -0.0601 -0.0013
 5403W        W21212   5.763   4.762  13.691 -0.0935  0.0209  0.0641
 5404W        W21213   3.823   2.950  13.975  0.1676  0.1042  0.0248
 5405W        W21214  18.115  15.435   1.036 -0.0865  0.0012 -0.0791
 5406W        W21215  17.642  11.442  12.964  0.2377 -0.0391  0.1143
 5407W        W21216   9.397  11.306  11.873 -0.3889 -0.1935 -0.1292
 5408W        W21217   2.812   7.317   1.419  0.0228  0.1737  0.0613
 5409W        W21218   7.932   4.913   0.866 -0.0089 -0.2296  0.0540
 5410W        W21219   8.253  15.087  15.980 -0.2297  0.1051 -0.2423
 5411W        W21220  11.501   4.037  12.306  0.2651 -0.1218  0.2681
 5412W        W21221  10.924   4.534  14.757 -0.1109  0.1565  0.0695
 5413W        W21222   3.030  17.033   1.270  0.2223 -0.2326 -0.2779
 5414W        W21223  13.253  15.878  15.049  0.0312  0.0755  0.3001
 5415W        W21224  16.725  15.526   3.506  0.0328 -0.1958  0.0812
 5416W        W21225  15.871   0.469   5.943 -0.1165 -0.1256  0.0861
 5417W        W21226  15.174   9.050  12.618 -0.3134  0.0006 -0.0997
 5418W        W21227  10.432   8.900  11.745 -0.3860 -0.1812 -0.4283
 5419W        W21228  17.141   7.645  11.227  0.2480 -0.1795 -0.1854
 5420W        W21229   2.466  11.293   3.105  0.1062 -0.1039  0.3086
 5421W        W21230   2.397  14.251   2.897 -0.0253 -0.2522  0.0772
 5422W        W21231   9.665  11.244   4.183 -0.0476  0.0783 -0.2528
 5423W        W21232   0.882   9.881   2.942 -0.4001  0.0414 -0.3285
 5424W        W21233   7.810  12.580   4.953  0.2928 -0.1701 -0.1520
 5425W        W21234  14.951   9.778  12.031 -0.3347 -0.1913  0.0833
 5426W        W21235   1.723  12.365   4.643 -0.0185 -0.0749 -0.2651
 5427W        W21236   5.834  17.579  13.702 -0.0658 -0.0121 -0.1166
 5428W        W21237  15.909   1.097   0.754 -0.1998  0.3616 -0.0383
 5429W        W21238   6.016   3.288   4.664 -0.1342 -0.2209  0.0865
 5430W        W21239   2.377   1.023   3.597 -0.0471  0.3123  0.2231
 5431W        W21240   3.685  11.270  16.062 -0.0750  0.2342  0.0233
 5432W        W21241   7.724  17.811   4.070 -0.0450  0.2798 -0.3431
 5433W        W21242  18.054   0.232  11.093  0.0003  0.0058  0.1678
 5434W        W21243   8.811  18.048   1.638  0.2202 -0.1483  0.0713
 5435W        W21244  17.571  11.692  11.452 -0.2133 -0.3797 -0.1211
 5436W        W21245   0.116  14.696   4.609 -0.0934  0.2070 -0.0334
 5437W        W21246   6.070   3.532   1.117  0.1965 -0.0631  0.0023
 5438W        W21247  11.717  13.299  14.228 -0.2738  0.1460 -0.1130
 5439W        W21248  15.586  13.526   5.071 -0.1020 -0.1546  0.1635
 5440W        W21249   6.586  13.475  15.430 -0.2805 -0.1983  0.0474
 5441W        W21250   9.817   8.870   2.044 -0.3935 -0.0669  0.0417
 5442W        W21251   5.679   5.541  11.253 -0.0106  0.1378  0.0004
 5443W        W21252   7.008  13.882  11.520 -0.1558  0.2074  0.0780
 5444W        W21253  13.344  13.390  13.222  0.1010 -0.0747  0.0952
 5445W        W21254  10.475  15.799   0.576 -0.0682  0.3061  0.1635
 5446W        W21255   2.505   4.845   2.639  0.1219  0.0671 -0.2434
 5447W        W21256   9.676  17.564  15.697  0.0629  0.0297 -0.0898
 5448W        W21257  15.734  15.390  15.450  0.2487 -0.1808  0.0028
 5449W        W21258  18.019   1.856  15.931 -0.2221 -0.1502 -0.1128
 5450W        W21259   4.988  10.110  11.760 -0.2041  0.0060 -0.0257
 5451W        W21260   0.174   1.687  13.709  0.0917 -0.0006  0.0195
 5452W        W21261   9.188   5.557  11.695  0.1325 -0.0964  0.0238
 5453W        W21262  15.800  15.339  12.596  0.0459 -0.0207  0.0415
 5454W        W21263  11.613   0.869  11.220  0.0613  0.2837 -0.3705
 5455W        W21264   8.863   5.971   4.174  0.2371 -0.3217 -0.0278
 5456W        W21265   2.402   0.408  13.441 -0.0957 -0.6998 -0.0102
 5457W        W21266  16.805   9.796  14.370  0.3182  0.0812  0.0365
 5458W        W21267  12.136   0.265  11.535 -0.0026 -0.3161 -0.0516
 5459W        W21268   6.253   8.849   3.725  0.2038 -0.4784  0.2865
 5460W        W21269   8.851  15.167   0.729  0.2646  0.0298 -0.1904
 5461W        W21270   1.627   7.614  15.334  0.2886 -0.1778 -0.1005
 5462W        W21271   6.805  14.754   5.331 -0.2138  0.0383  0.0454
 5463W        W21272   2.070  10.768   5.385  0.0539  0.0231  0.1878
 5464W        W21273   4.713   1.696  11.644  0.2936  0.0097 -0.2310
 5465W        W21274  11.916  14.635   3.104 -0.0571  0.1440  0.0776
 5466W        W21275   7.096  11.712  15.730  0.1287 -0.1276 -0.0269
 5467W        W21276  16.775   5.763   0.209  0.1216 -0.0813  0.0663
 5468W        W21277   5.933  16.878  12.183 -0.1813 -0.1463 -0.0426
 5469W        W21278  11.533   8.366   0.975  0.1746  0.0791  0.0185
 5470W        W21279   5.359  11.741  12.796 -0.0251  0.0224  0.0446
 5471W        W21280   6.952   1.432  12.220  0.1755  0.2861  0.0138
 5472W        W21281  14.540   0.586  15.595  0.1182  0.1093 -0.2659
 5473W        W21282  15.892   8.338   4.029 -0.2220 -0.1047  0.3987
 5474W        W21283   0.943  14.926  14.380 -0.1019 -0.2364 -0.0929
 5475W        W21284  11.321   6.074  13.260 -0.2180  0.0816 -0.3101
 5476W        W21285  13.558   5.723  12.662  0.1117  0.0938 -0.0826
 5477W        W21286  15.126  10.301  12.812 -0.1644  0.0405  0.0677
 5478W        W21287   3.808   0.393   1.880 -0.0801 -0.2074 -0.0419
 5479W        W21288   8.189  16.295  14.810  0.0508 -0.0352  0.4470
 5480W        W21289  15.021  14.339  12.500  0.1398  0.1086  0.0233
 5481W        W21290   2.197   7.824  12.255  0.1779  0.0682  0.1516
 5482W        W21291  14.775  12.524  14.532 -0.2128  0.0106 -0.4547
 5483W        W21292  17.073   2.344   1.741  0.0656  0.0567  0.0525
 5484W        W21293   8.695  15.285  15.805 -0.1719  0.2091 -0.0608
 5485W        W21294  16.116  16.206   2.368 -0.1584  0.2709 -0.1326
 5486W        W21295   4.390   7.234  11.602  0.1740  0.2322 -0.0465
 5487W        W21296   1.035  11.666  10.788 -0.1496  0.3682  0.0752
 5488W        W21297   7.911   6.902   1.453  0.0385 -0.1493 -0.1963
 5489W        W21298  13.942  15.081  10.929 -0.0177  0.0437  0.0156
 5490W        W21299  16.756  12.760  11.736  0.3531  0.1343 -0.4949
 5491W        W21300  11.203   6.072  14.234  0.0263  0.0414 -0.1127
 5492W        W21301   1.081   1.177   4.823  0.3528  0.1477 -0.1319
 5493W        W21302   7.981  17.836   4.616  0.2948  0.0014 -0.0481
 5494W        W21303  16.688  16.742   2.077 -0.0542  0.0715  0.0103
 5495W        W21304  14.623   4.357  14.562 -0.0641 -0.0734  0.0850
 5496W        W21305   7.068   5.467   0.814  0.0661 -0.0496 -0.1323
 5497W        W21306   1.632  15.217  15.154 -0.1717  0.2598 -0.1851
 5498W        W21307   1.242  15.143   2.891  0.0764  0.2089  0.2447
 5499W        W21308  10.472   0.277   1.644  0.0550  0.0706 -0.0603
 5500W        W21309   6.956   4.120  15.613  0.0194  0.3538 -0.6198
 5501W        W21310   8.356   7.587   1.464 -0.0230  0.2709 -0.2426
 5502W        W21311   7.320  11.649  11.216 -0.0074  0.2445  0.3577
 5503W        W21312  12.231   1.461   0.052  0.1267 -0.0783 -0.2412
 5504W        W21313   6.435   7.231   5.575 -0.1385  0.1481  0.0505
 5505W        W21314   7.849   8.837  10.882 -0.2509 -0.1033 -0.1355
 5506W        W21315   4.824  16.548  15.291  0.0972  0.0188  0.2282
 5507W        W21316  17.622   0.264   0.494  0.1055 -0.0823  0.1295
 5508W        W21317  10.534  13.045  11.215 -0.0189 -0.1851 -0.1111
 5509W        W21318   7.407  14.600  15.824  0.0244  0.0223  0.2429
 5510W        W21319   9.550   8.116   5.018 -0.1604  0.3154 -0.5632
 5511W        W21320   2.707  16.791  13.082  0.2975  0.0013  0.2223
 5512W        W21321   3.512  14.255   1.713 -0.0729 -0.0710 -0.2046
 5513W        W21322   5.150   1.915  11.350  0.1411  0.1110 -0.2081
 5514W        W21323   8.447   9.894  14.789 -0.4518 -0.2462  0.1517
 5515W        W21324   6.859  16.262  12.858 -0.1803  0.1998  0.0221
 5516W        W21325  13.199   4.984  14.241  0.0653 -0.2102  0.0335
 5517W        W21326   6.603  13.500   4.194 -0.1401 -0.7121  0.0136
 5518W        W21327   9.037   6.216  13.089 -0.2583 -0.1066  0.0836
 5519W        W21328   1.799  11.647   2.336 -0.0957  0.1690  0.0542
 5520W        W21329   3.097  11.507  12.684  0.2334 -0.0358  0.0944
 5521W        W21330  11.225   0.007  14.032  0.2111 -0.0124 -0.1013
 5522W        W21331  10.731  13.568  12.919 -0.1080 -0.2152  0.2389
 5523W        W21332   2.913   0.808  12.657  0.4027  0.1459  0.1975
 5524W        W21333   6.860   4.347   2.556  0.0510  0.1589  0.0082
 5525W        W21334   0.597   7.083   5.105  0.0085  0.3063  0.0988
 5526W        W21335   0.702   6.167  12.607  0.1099  0.0458  0.1511
 5527W        W21336   2.024  16.912  13.324  0.1475  0.0206 -0.0937
 5528W        W21337  16.868   6.823   1.856  0.0739 -0.0360  0.1112
 5529W        W21338  10.934  17.573  11.752 -0.0868  0.2798 -0.1024
 5530W        W21339   7.360  15.381   2.474  0.1149 -0.1511  0.3245
 5531W        W21340   1.942  11.974  13.085 -0.2664  0.0086 -0.3795
 5532W        W21341  11.107   1.777  15.611  0.0268 -0.0429  0.0714
 5533W        W21342   7.816   7.309  12.647  0.0745 -0.2378 -0.1553
 5534W        W21343  10.000   0.258   1.459 -0.0913  0.2574  0.4228
 5535W        W21344  10.385   8.548   4.578 -0.1296 -0.1647 -0.1588
 5536W        W21345  11.747   7.968  12.918  0.2593 -0.0800 -0.1678
 5537W        W21346  11.668   2.359  14.258 -0.2117  0.0872  0.1201
 5538W        W21347  17.552  14.586  13.121  0.0058  0.1435  0.0905
 5539W        W21348  10.826   4.508   3.405  0.1937  0.1973 -0.1303
 5540W        W21349   4.497  15.028   3.789  0.1629  0.3046 -0.0860
 5541W        W21350  10.998   4.655   4.367 -0.0323  0.1524  0.1827
 5542W        W21351   1.142  11.490  11.661  0.1214 -0.0543 -0.1872
 5543W        W21352  10.887   2.945  13.115 -0.1670 -0.0728  0.0144
 5544W        W21353  13.362  12.306  14.186 -0.1991 -0.1548 -0.1472
 5545W        W21354   4.894   5.056   4.688 -0.1641  0.0710 -0.0345
 5546W        W21355   8.519   6.196  15.356  0.2464  0.2280  0.1938
 5547W        W21356  18.166   3.453  11.835 -0.2305  0.2185  0.1369
 5548W        W21357   5.680   3.310  12.221  0.3462  0.1050 -0.1124
 5549W        W21358  16.611   8.526   4.514 -0.2055 -0.1284  0.1145
 5550W        W21359   1.272   0.768   0.894 -0.2737  0.1987  0.3308
 5551W        W21360   8.567   6.565  13.276  0.0843  0.2840 -0.2981
 5552W        W21361   3.804  15.991  11.171  0.0086 -0.0692 -0.2655
 5553W        W21362   6.744   3.472  13.499 -0.0274  0.1991  0.0369
 5554W        W21363  16.618  13.043   4.992 -0.2426  0.1100  0.1340
 5555W        W21364   6.483   8.407   5.204 -0.2418  0.1599  0.3861
 5556W        W21365   6.215   7.733  12.157 -0.1376  0.3286  0.1665
 5557W        W21366   7.983  13.455   1.496 -0.0626 -0.0307 -0.1563
 5558W        W21367   7.782  11.688  15.153 -0.2822  0.1157 -0.0140
 5559W        W21368   1.976   4.161  11.793 -0.0977 -0.3861 -0.3415
 5560W        W21369   1.654   9.434  16.047 -0.2098  0.1639  0.2138
 5561W        W21370   4.414   4.648  11.026 -0.0949 -0.2410 -0.0284
 5562W        W21371   0.024  13.548  10.534  0.1128 -0.1490 -0.0462
 5563W        W21372   0.561  14.765   3.227  0.0077  0.0060 -0.1372
 5564W        W21373   8.327   5.486   3.838  0.2120  0.2127 -0.0095
 5565W        W21374   0.427  10.709  11.732 -0.1313  0.0118 -0.1817
 5566W        W21375   7.671   7.816  15.458 -0.0167  0.2213 -0.2960
 5567W        W21376  13.218   5.860  12.363  0.1818 -0.0552 -0.1058
 5568W        W21377   1.529  11.810  14.948  0.1630  0.0650  0.1970
 5569W        W21378  15.417  17.041   3.855 -0.0473 -0.3506  0.1797
 5570W        W21379   7.482   1.522   4.980  0.0147  0.1350 -0.0665
 5571W        W21380   8.881  14.366   4.125  0.1861  0.1887  0.2172
 5572W        W21381  12.984  13.010  13.686 -0.1316  0.0598 -0.1593
 5573W        W21382   3.720   0.095  12.584 -0.1143  0.1160  0.0421
 5574W        W21383   2.901   4.286  13.732  0.0528 -0.0309 -0.1348
 5575W        W21384  15.415   2.666   4.872 -0.1133  0.0951  0.0188
 5576W        W21385   2.642  15.628  11.337  0.1475 -0.2093 -0.0284
 5577W        W21386  11.886   0.196  12.405  0.0477 -0.1574 -0.0344
 5578W        W21387   0.519  12.775   1.790 -0.2426 -0.2168 -0.1283
 5579W        W21388  13.914   4.134   0.288  0.0844 -0.0515  0.1897
 5580W        W21389   5.076  14.437  13.437  0.1953 -0.0823 -0.0124
 5581W        W21390  12.616   9.928  11.100  0.1170  0.2225  0.0699
 5582W        W21391   7.255  10.576   1.402 -0.0596 -0.1095 -0.2992
 5583W        W21392  16.518   1.188   2.074 -0.2756 -0.0522 -0.2327
 5584W        W21393  16.742   2.785   3.424 -0.1019 -0.0337 -0.0395
 5585W        W21394  14.403   3.461  12.051  0.3248 -0.2454 -0.0392
 5586W        W21395   5.819   7.708   5.086 -0.0587 -0.1404 -0.2951
 5587W        W21396   4.098   8.109   5.253 -0.1285  0.2056 -0.1286
 5588W        W21397   4.211  14.209   3.144 -0.0411 -0.0217 -0.1142
 5589W        W21398   6.634   3.892   2.400  0.1352 -0.0561  0.1888
 5590W        W21399  16.763  14.406  13.050 -0.1760 -0.0868  0.0009
 5591W        W21400   1.873   4.495   3.249 -0.0736 -0.2175  0.2717
 5592W        W21401  11.651   8.444   3.969  0.1188  0.1636  0.0173
 5593W        W21402  13.937   4.199   1.354  0.0491 -0.1953  0.0428
 5594W        W21403   8.093  13.942  10.793  0.0666 -0.0148  0.0657
 5595W        W21404   6.734   9.676   4.044  0.0747  0.0038  0.2911
 5596W        W21405   5.925   2.208  13.112 -0.1399 -0.0067 -0.0511
 5597W        W21406  10.546   6.235   3.089 -0.3204 -0.0467 -0.0303
 5598W        W21407   3.970   4.920  14.895  0.1668  0.3772 -0.3008
 5599W        W21408   2.912  15.836   2.615 -0.0425  0.4180  0.0142
 5600W        W21409  11.385  18.256  12.126 -0.2292  0.1331  0.2739
 5601W        W21410  10.462  15.274   5.075 -0.0631  0.2936  0.0754
 5602W        W21411   7.253  13.668   0.550 -0.0157  0.0520  0.0008
 5603W        W21412  17.657   8.098  13.607  0.1041  0.0731 -0.0735
 5604W        W21413   8.120   0.879  15.828  0.0751 -0.1856 -0.1878
 5605W        W21414  17.263   0.616   2.105 -0.3608  0.1268  0.2364
 5606W        W21415   5.287   7.117  14.079 -0.2628  0.1019  0.1882
 5607W        W21416   2.881   5.169   5.152  0.0079 -0.0541 -0.2627
 5608W        W21417   3.799  14.122   0.746  0.1907 -0.1711 -0.1028
 5609W        W21418   4.530  17.067  14.021  0.3972 -0.2370  0.1412
 5610W        W21419   2.862  10.674  11.934 -0.4124 -0.1780 -0.1585
 5611W        W21420  13.527  13.856  13.331 -0.0555  0.2186 -0.0037
 5612W        W21421   3.735  16.735  10.070 -0.2486 -0.2049 -0.0231
 5613W        W21422   6.381  12.313   4.432  0.1447 -0.0277 -0.2652
 5614W        W21423   7.261  10.753   9.966  0.1254  0.0035  0.1726
 5615W        W21424  18.221   6.109   1.072 -0.0162  0.0617 -0.1526
 5616W        W21425  10.513  17.115   2.784  0.1130 -0.4638 -0.2016
 5617W        W21426   7.508   7.692   1.127  0.1023  0.1841 -0.1918
 5618W        W21427   6.528  13.505   2.619 -0.1227  0.1815 -0.2448
 5619W        W21428   6.149  11.469  14.335 -0.3741  0.3264 -0.0096
 5620W        W21429   8.154   2.381   2.845  0.0909  0.1011  0.0781
 5621W        W21430   2.395   4.039   4.663  0.0863  0.1494  0.2290
 5622W        W21431  16.043  16.681  13.484 -0.0214  0.2528 -0.0522
 5623W        W21432   1.202  11.773   5.068 -0.1213 -0.1412 -0.1567
 5624W        W21433   3.828   0.536  14.902 -0.0484  0.2722 -0.0172
 5625W        W21434  11.587   5.401  15.360 -0.3079 -0.0520  0.2045
 5626W        W21435  12.951   4.791   2.392 -0.0354 -0.0929  0.0849
 5627W        W21436   0.999  12.642  15.162 -0.2223 -0.0457  0.0634
 5628W        W21437  15.788  13.475  14.938 -0.4040  0.0220  0.1398
 5629W        W21438   7.010   5.905  11.885 -0.0186 -0.2068  0.1333
 5630W        W21439   0.422   1.187  15.979  0.4155  0.2079 -0.2785
 5631W        W21440   8.259   1.988  12.173 -0.2130  0.0444 -0.0468
 5632W        W21441  13.803  12.045   1.472 -0.0896 -0.3389  0.0046
 5633W        W21442  10.087  10.202   0.846  0.2237  0.0764  0.0643
 5634W        W21443  12.250   1.811  11.959  0.1089 -0.0657  0.0153
 5635W        W21444  16.028  14.707  12.316  0.0822  0.1813 -0.0570
 5636W        W21445  10.881  14.936   2.885 -0.2248 -0.1841 -0.0867
 5637W        W21446   9.278   9.964   1.383 -0.1163 -0.0585  0.1394
 5638W        W21447  12.576  13.487   1.073  0.1825 -0.0671  0.1839
 5639W        W21448  12.782   1.060   3.980 -0.3818  0.2927  0.0664
 5640W        W21449  14.606  18.024   4.641 -0.0443  0.0780 -0.1632
 5641W        W21450  18.211  16.766  10.416  0.3856 -0.0837  0.0279
 5642W        W21451  14.450  15.064  10.971  0.2295 -0.0299  0.1776
 5643W        W21452   6.934  15.500  14.071  0.1401 -0.0330 -0.1782
 5644W        W21453  10.705   4.272  14.455 -0.0057 -0.2650  0.1805
 5645W        W21454   5.764   9.724  13.895  0.0626 -0.0842 -0.2684
 5646W        W21455   8.834  12.511  11.940 -0.2761 -0.0372  0.3162
 5647W        W21456  12.273  10.807   1.107 -0.0561 -0.0793 -0.2983
 5648W        W21457   9.364   2.725   0.596 -0.0575  0.0672 -0.0179
 5649W        W21458   1.275   7.123  13.226 -0.1162  0.0785 -0.1922
 5650W        W21459  10.648  14.611  12.079  0.0822  0.0959 -0.1243
 5651W        W21460  15.060  11.150  12.640  0.0241  0.0915  0.2558
 5652W        W21461  12.893   5.124   4.818 -0.0905  0.0784  0.0142
 5653W        W21462   4.419  10.046   1.627 -0.0458 -0.2580 -0.1225
 5654W        W21463   4.336  11.959  15.222  0.0480 -0.2571 -0.0726
 5655W        W21464   4.829  17.154   0.923 -0.1364 -0.2768 -0.0056
 5656W        W21465  11.727  10.847   1.308  0.0010 -0.0359  0.0513
 5657W        W21466  12.550  10.531  10.416  0.2446  0.1729 -0.2161
 5658W        W21467   5.068  13.090   0.317  0.0587 -0.0243  0.3289
 5659W        W21468   2.942   6.358  14.687 -0.1430 -0.1936  0.2109
 5660W        W21469   3.269  14.958  16.026 -0.1866  0.2309  0.0876
 5661W        W21470   8.555  10.088   0.985 -0.1162  0.1103 -0.0001
 5662W        W21471  12.320  11.976   4.208 -0.0562 -0.3009  0.1196
 5663W        W21472  14.023   2.675  14.726 -0.1790 -0.0327  0.3321
 5664W        W21473   4.692   1.902  11.145 -0.0774 -0.0894  0.0106
 5665W        W21474  17.309  16.413   2.593  0.0803  0.0816 -0.1551
 5666W        W21475  13.796   0.127   5.890 -0.0992 -0.0986  0.1939
 5667W        W21476   4.536  14.072   1.388 -0.0072 -0.0106  0.1679
 5668W        W21477  13.863   3.433   1.763 -0.1661  0.0188 -0.2920
 5669W        W21478   7.680  11.152   3.238  0.0191  0.0572 -0.1233
 5670W        W21479  17.332  17.813   4.711 -0.2121  0.0527  0.0181
 5671W        W21480   6.909   9.764  13.757 -0.1762  0.3673 -0.0377
 5672W        W21481  13.882  16.726  12.418 -0.4074 -0.2892  0.1822
 5673W        W21482  17.612   8.084   1.483  0.0151  0.0422  0.2098
 5674W        W21483  11.432  16.498   5.330 -0.0105  0.0620 -0.0968
 5675W        W21484  17.014  12.330   3.975  0.3700  0.0232 -0.0644
 5676W        W21485   7.017   4.810   4.986 -0.1418 -0.1131  0.0436
 5677W        W21486  12.111   9.590   2.567 -0.0447  0.1206  0.4137
 5678W        W21487  12.046   7.479  11.179  0.1001 -0.2331 -0.0410
 5679W        W21488   9.298   3.055  15.756  0.1771 -0.1305 -0.0451
 5680W        W21489   4.758  10.568   1.788 -0.0839 -0.1390  0.1330
 5681W        W21490   8.977   1.478   0.376  0.1318 -0.1649  0.2570
 5682W        W21491   9.115  17.882  12.587 -0.0265  0.2614 -0.0012
 5683W        W21492  12.902  10.191  14.121 -0.1938  0.0676 -0.0393
 5684W        W21493  17.529   8.652   5.308  0.1675  0.0201  0.0787
 5685W        W21494   4.800  13.235   4.919 -0.0363  0.1904 -0.1005
 5686W        W21495   9.848  17.598  13.158 -0.0914  0.2679  0.5359
 5687W        W21496   9.386  14.621  12.357  0.0749 -0.0330  0.0322
 5688W        W21497  17.316   3.460  14.939 -0.0837  0.1319 -0.1857
 5689W        W21498  13.557   7.218   3.250 -0.0367 -0.0452 -0.0175
 5690W        W21499  16.870   9.047  11.547  0.0605 -0.1180  0.1314
 5691W        W21500   3.623   5.419   1.330  0.0991  0.1315 -0.5453
 5692W        W21501  16.089  16.352  15.098 -0.0452  0.1642 -0.2399
 5693W        W21502  12.156   2.334  12.546 -0.0697  0.1818  0.0636
 5694W        W21503   3.526  16.550  14.992 -0.3230  0.0289 -0.0536
 5695W        W21504   9.604   7.750  11.125  0.2645  0.0421  0.0005
 5696W        W21505  17.246   1.372  12.272  0.2832  0.1215 -0.2770
 5697W        W21506  11.993   4.158   0.828 -0.0617  0.1145 -0.1930
 5698W        W21507   4.024   1.362  14.832 -0.0668  0.1202  0.0184
 5699W        W21508   0.922  14.499  12.435 -0.0337  0.3657 -0.1330
 5700W        W21509   6.833   4.152   1.648  0.1656 -0.0261  0.1668
 5701W        W21510   4.837   5.678  15.124  0.0234 -0.1682  0.2671
 5702W        W21511   8.207   3.966   1.691 -0.3128 -0.1605 -0.2519
 5703W        W21512   3.727   3.479  11.449 -0.1382  0.1945  0.0182
 5704W        W21513   2.453   2.281   3.565  0.0326  0.1231 -0.4967
 5705W        W21514   9.939   2.810  13.514 -0.3425  0.0944 -0.1965
 5706W        W21515  13.704  12.115  15.998 -0.3069 -0.1550 -0.1270
 5707W        W21516   1.232  14.368   1.163 -0.0489 -0.0966  0.1034
 5708W        W21517   9.381   0.664  15.553 -0.1509  0.0407 -0.1040
 5709W        W21518  16.957   1.688   4.599  0.0369  0.1586  0.0049
 5710W        W21519   5.598  16.153  14.998 -0.0713  0.3765 -0.0493
 5711W        W21520   7.205   5.787  12.437  0.1468  0.2705  0.3051
 5712W        W21521   8.349   9.059  14.109  0.1675  0.1245  0.0187
 5713W        W21522   3.756   8.108   1.212 -0.0192  0.1974  0.0601
 5714W        W21523   3.525   2.513  12.434  0.2029 -0.1762  0.1284
 5715W        W21524  17.961   8.928   3.053 -0.1676  0.2651 -0.0585
 5716W        W21525  16.728  15.576  10.062 -0.3672  0.3037 -0.1043
 5717W        W21526   8.108  10.957   9.907  0.1223  0.1338  0.0200
 5718W        W21527   2.019   2.480  15.092 -0.2754  0.0841 -0.0407
 5719W        W21528  16.816  13.435  12.027  0.1674 -0.0042  0.0058
 5720W        W21529   3.006   7.386   3.815  0.2147 -0.1326 -0.1821
 5721W        W21530   6.846  10.104   2.405  0.0214 -0.3481 -0.2478
 5722W        W21531   1.576   7.823   3.929 -0.3607 -0.3213  0.1855
 5723W        W21532  17.215   5.632  11.132  0.0214  0.1427 -0.1026
 5724W        W21533   2.220   6.484   0.498 -0.0646  0.0390 -0.0646
 5725W        W21534   2.714  17.387   2.781  0.1359  0.0225  0.3040
 5726W        W21535  16.076   5.851   3.293 -0.0600 -0.1284  0.1597
 5727W        W21536  15.795  11.546   2.482  0.3092  0.1564 -0.0186
 5728W        W21537   3.151   1.743  13.085  0.0072  0.1657 -0.1999
 5729W        W21538   9.162   6.630  13.362  0.2590  0.2612  0.0695
 5730W        W21539   0.952  11.642  12.102 -0.0736 -0.1847  0.1325
 5731W        W21540   8.035   5.089  11.857  0.1918 -0.1288  0.0784
 5732W        W21541  10.371  18.178   4.011 -0.3181  0.2158  0.3653
 5733W        W21542  14.508  11.476  13.430  0.0306 -0.0040 -0.2934
 5734W        W21543  15.357   9.587  11.186  0.2166 -0.2666  0.0516
 5735W        W21544   2.501   2.384  15.170 -0.3617 -0.0020  0.0420
 5736W        W21545  12.087  14.738   4.083  0.0547 -0.0994 -0.0060
 5737W        W21546   6.088  12.801  14.552  0.1257 -0.3681  0.1350
 5738W        W21547  17.960   9.483  13.928 -0.0856  0.1259  0.2856
 5739W        W21548  11.875   1.306   1.580  0.0205 -0.1933  0.1094
 5740W        W21549   7.016  15.870   1.113  0.0416 -0.1436  0.0142
 5741W        W21550   9.714  15.296  13.733  0.0291  0.3567 -0.2339
 5742W        W21551  11.016   5.084   2.907  0.2752  0.2002  0.0274
 5743W        W21552  11.704   4.481   4.076  0.1537  0.0770 -0.1843
 5744W        W21553  10.208   0.501  12.607  0.3560  0.1270  0.0279
 5745W        W21554   9.872   4.005   1.289 -0.2059 -0.1021  0.4271
 5746W        W21555   9.607  15.247  14.824 -0.0307 -0.1279  0.0081
 5747W        W21556   9.999   6.040  15.962 -0.0978 -0.0140 -0.1125
 5748W        W21557   7.571  12.007   1.630  0.0134  0.1525  0.0532
 5749W        W21558   3.107  14.333  15.493 -0.1351  0.2047 -0.0531
 5750W        W21559  15.903  16.002  16.046  0.0781  0.1215  0.0030
 5751W        W21560   5.988   3.488   2.551  0.0951  0.1922  0.0681
 5752W        W21561  15.925  17.760  12.512  0.2499 -0.2732  0.2967
 5753W        W21562   9.476   1.931   5.273  0.2880  0.0030  0.0854
 5754W        W21563  15.071   9.883  13.013  0.1979  0.0347  0.1749
 5755W        W21564   2.707   9.477   2.757 -0.2647 -0.1212  0.0422
 5756W        W21565   0.695  10.978  10.927 -0.2403 -0.0496 -0.0927
 5757W        W21566  15.106  15.256   2.216  0.3328  0.1093  0.0338
 5758W        W21567   7.321   1.703   1.993 -0.0834 -0.0347  0.1802
 5759W        W21568  15.990   6.916   2.325 -0.2538 -0.2740 -0.0160
 5760W        W21569   7.122  16.188  15.871  0.3088 -0.0409  0.1245
 5761W        W21570   7.431   0.796   0.441  0.0721 -0.1799 -0.1273
 5762W        W21571  14.440  13.042   5.420  0.1324  0.0977 -0.2571
 5763W        W21572   8.815  18.182  10.381  0.1803 -0.2903 -0.0236
 5764W        W21573   9.132   7.378  15.578 -0.1225 -0.0749  0.2161
 5765W        W21574  10.915   5.578   2.005 -0.0172 -0.0308  0.0622
 5766W        W21575  15.424   1.468  11.735 -0.1204 -0.0709  0.1757
 5767W        W21576  13.989  12.145  12.013 -0.0600 -0.0022 -0.2142
 5768W        W21577   9.268  15.384  13.503  0.0646  0.0030 -0.1433
 5769W        W21578   4.205  11.063  11.113 -0.3387 -0.0043  0.1020
 5770W        W21579   1.763  13.353   5.020  0.1798 -0.2181 -0.0689
 5771W        W21580   7.618   3.111  14.060  0.0899 -0.0631  0.3182
 5772W        W21581   7.996  16.406  13.263  0.2163  0.0405 -0.0076
 5773W        W21582  14.036  16.185   5.595  0.1450 -0.0020 -0.1601
 5774W        W21583  14.147   7.525  11.431 -0.0457  0.2946 -0.0044
 5775W        W21584   3.574  14.631  11.104  0.1262  0.0340  0.1417
 5776W        W21585  12.158  17.417  11.383  0.4412 -0.2357 -0.0180
 5777W        W21586   5.032   1.672   4.960 -0.1842 -0.0473  0.0809
 5778W        W21587   4.548   1.414   2.442 -0.0181 -0.2175 -0.2457
 5779W        W21588   8.725  15.147  11.713 -0.3207  0.0554  0.1594
 5780W        W21589   9.707  13.438  11.340  0.1272  0.0451 -0.0257
 5781W        W21590  17.333   8.356  11.275  0.1590 -0.0580  0.2806
 5782W        W21591   9.984   4.721   0.836 -0.3294 -0.1600 -0.0842
 5783W        W21592   4.291   1.958  13.871 -0.0697  0.0059  0.1235
 5784W        W21593   1.740   6.733   1.338  0.1508  0.1284 -0.0672
 5785W        W21594   9.338   4.923   2.205 -0.1683 -0.2849 -0.1051
 5786W        W21595  14.767   0.835   5.185  0.2597 -0.0868 -0.1921
 5787W        W21596  15.603   6.100  14.050 -0.1264  0.0979  0.0316
 5788W        W21597   2.638  12.441  10.831  0.0713  0.0429 -0.3365
 5789W        W21598  15.409  11.193   5.342 -0.2472 -0.0356  0.1363
 5790W        W21599   8.007   9.353   0.253  0.0537  0.1143  0.0816
 5791W        W21600  15.551  12.082   5.053  0.1839  0.4146  0.0933
 5792W        W21601   1.604   3.536  14.871 -0.0150  0.0019  0.1358
 5793W        W21602   0.808  11.566   3.530  0.0698 -0.0112 -0.0652
 5794W        W21603  17.828  13.522   1.303  0.1850  0.0036 -0.0951
 5795W        W21604   5.792   1.541   4.232  0.4847 -0.1239 -0.1481
 5796W        W21605  12.957   1.079  11.968  0.3253 -0.2483  0.1912
 5797W        W21606   6.182   1.572   3.784  0.2654  0.3226 -0.0500
 5798W        W21607   3.501   0.390  13.012 -0.2833 -0.0773  0.3213
 5799W        W21608   8.806   8.994  10.979 -0.2214  0.0176 -0.3586
 5800W        W21609   6.931  15.679  14.706  0.0902 -0.0703  0.2810
 5801W        W21610   7.585   7.276   4.625 -0.0432 -0.0372  0.0851
 5802W        W21611   7.061  15.055  10.633 -0.0593 -0.0222 -0.0272
 5803W        W21612   8.866   9.129  13.208 -0.2539  0.1964  0.2363
 5804W        W21613   5.460  16.426   3.941 -0.1304  0.0395 -0.1048
 5805W        W21614  15.944  17.764  13.942 -0.1312 -0.0178  0.0701
 5806W        W21615   9.065   5.752  11.250  0.0274  0.1480 -0.0048
 5807W        W21616  11.679   5.199   4.158 -0.1771 -0.2507 -0.2141
 5808W        W21617   3.815   7.417   4.561  0.2354 -0.2994 -0.1136
 5809W        W21618  14.384   9.600  11.870  0.1054  0.1534  0.0046
 5810W        W21619   7.761   4.358   1.502 -0.0151 -0.1281  0.2991
 5811W        W21620   0.218   7.104  15.340  0.0810 -0.1716 -0.3987
 5812W        W21621  10.870   4.995  15.648  0.0294  0.0986 -0.1166
 5813W        W21622  13.304   1.073   2.306  0.0565  0.0210  0.0657
 5814W        W21623   3.037   3.584  16.046  0.0100  0.1311 -0.0187
 5815W        W21624   2.052  12.882   5.204 -0.0245 -0.1800 -0.1963
 5816W        W21625  12.346  13.753   4.987  0.0198 -0.0944 -0.0470
 5817W        W21626   5.897  12.380   5.025 -0.0133 -0.0028 -0.2874
 5818W        W21627  11.583  16.961   1.994  0.1372  0.0000  0.2980
 5819W        W21628  10.089   8.183   5.100  0.2126  0.1062  0.1929
 5820W        W21629   7.048   0.114   5.029  0.1545  0.0357  0.0055
 5821W        W21630  13.215   9.498   0.381 -0.1655  0.1482 -0.0062
 5822W        W21631   7.161   1.473  15.119 -0.0549 -0.1043 -0.3396
 5823W        W21632   8.554   0.297  12.087 -0.1502  0.0212 -0.2287
 5824W        W21633  10.724  14.856  11.256  0.0904 -0.2137 -0.0765
 5825W        W21634  13.158   2.423  14.740 -0.0302 -0.2301 -0.0292
 5826W        W21635   1.938  14.803  15.078  0.2692 -0.0518 -0.0484
 5827W        W21636   0.005   9.812  11.112 -0.3714 -0.1801 -0.2533
 5828W        W21637   3.419  11.758  15.317 -0.0929  0.1585  0.2373
 5829W        W21638  13.390   2.691  13.711  0.0437 -0.1290  0.1906
 5830W        W21639   6.405   1.264  15.362 -0.1038 -0.1827 -0.1110
 5831W        W21640   3.970   7.647  11.527 -0.0488  0.0761 -0.0126
 5832W        W21641   7.243  11.377   5.661  0.1292 -0.1911  0.1245
 5833W        W21642  16.186   0.569   0.648  0.0264 -0.3087  0.1493
 5834W        W21643  17.754   5.492  11.191  0.0024  0.0014 -0.1838
 5835W        W21644   0.517   2.650   1.984 -0.2061  0.0073 -0.1249
 5836W        W21645   5.597   0.705   1.161 -0.0807  0.1417 -0.0651
 5837W        W21646   8.226   2.553  14.981 -0.1028 -0.0313  0.1822
 5838W        W21647  16.133   0.676   1.516 -0.1288  0.3127 -0.0249
 5839W        W21648  14.188   4.274   2.865  0.1640 -0.2404 -0.0620
 5840W        W21649  17.461   7.683  13.474 -0.0436  0.0305 -0.2004
 5841W        W21650   0.364   8.963  14.404  0.5096 -0.0253  0.2770
 5842W        W21651  11.404  17.764  12.385 -0.0606  0.1539  0.2483
 5843W        W21652   9.562   2.918  11.686  0.0340 -0.2678 -0.0529
 5844W        W21653   0.908   8.087  11.987 -0.2192  0.1381  0.1806
 5845W        W21654   6.307   8.406  15.729  0.0717  0.1334 -0.1151
 5846W        W21655   0.428   5.746  13.636  0.1057  0.0711  0.1099
 5847W        W21656   3.933  14.495  13.850 -0.0486  0.1946 -0.2527
 5848W        W21657  14.200  17.557   1.288  0.2901  0.1456 -0.4368
 5849W        W21658   8.348   4.393   4.770 -0.0344 -0.3542 -0.2692
 5850W        W21659   3.379  14.315  12.437 -0.4082 -0.1395  0.0721
 5851W        W21660  12.792   4.616  13.146  0.0151 -0.1424  0.0978
 5852W        W21661   5.191  15.812   6.011  0.1339  0.1944  0.1611
 5853W        W21662  13.372   7.500  15.399  0.3268 -0.1516 -0.1287
 5854W        W21663  15.243   8.702   4.109 -0.0189  0.2276 -0.1055
 5855W        W21664   1.629  13.503   3.139 -0.3537  0.2639 -0.1364
 5856W        W21665  17.947   3.722  12.239  0.3523  0.0039 -0.3320
 5857W        W21666   0.585  12.028   2.868  0.1203 -0.0989 -0.0755
 5858W        W21667   4.663  15.517  13.305  0.0328 -0.0349 -0.3686
 5859W        W21668   8.188  17.465  12.821 -0.1331 -0.3317  0.2136
 5860W        W21669  16.461  16.008  13.144 -0.0182  0.2522  0.3871
 5861W        W21670  12.389   3.648   0.454  0.2685 -0.0546 -0.2044
 5862W        W21671  11.113  17.922  11.476  0.0700  0.1990  0.1717
 5863W        W21672  17.099   4.981   1.853  0.2040 -0.1768  0.0250
 5864W        W21673   7.936  11.345   4.926  0.1577 -0.0712 -0.0731
 5865W        W21674   0.284  17.577   1.197  0.0517 -0.3131 -0.2086
 5866W        W21675   7.263  10.263   3.206 -0.2284  0.2346  0.1361
 5867W        W21676   2.591   4.401  15.607 -0.1795  0.1446 -0.1053
 5868W        W21677  15.383  14.193   0.012  0.0304 -0.0990 -0.0962
 5869W        W21678   6.966   6.082   2.490 -0.0926 -0.0766 -0.2497
 5870W        W21679   9.067  15.569  15.469  0.1245 -0.0185 -0.2431
 5871W        W21680  13.583  14.992  15.370  0.2345  0.0564 -0.0367
 5872W        W21681  14.682  17.029   2.869 -0.0881  0.1187  0.1566
 5873W        W21682  14.860   4.952  11.548 -0.0113 -0.2266 -0.0633
 5874W        W21683   3.951   3.112   2.692 -0.1796  0.0004 -0.0300
 5875W        W21684  10.659  11.502  14.309 -0.2934  0.0697 -0.1797
 5876W        W21685  11.879   1.487  12.059 -0.3854 -0.0725 -0.1481
 5877W        W21686   7.003   1.093   5.012 -0.1286 -0.1557 -0.0856
 5878W        W21687   2.850   5.425   0.017 -0.1851  0.1230  0.1106
 5879W        W21688   6.246  13.588  11.194  0.1998 -0.0214  0.2510
 5880W        W21689   6.273   7.803  13.409  0.0287  0.1431  0.1277
 5881W        W21690   1.219   4.394  15.012 -0.0205 -0.0679 -0.3221
 5882W        W21691  16.903   3.307  15.874  0.0810 -0.0445 -0.1872
 5883W        W21692   5.666  11.592   1.922  0.1934 -0.1164 -0.1206
 5884W        W21693  13.336   2.798   6.017 -0.0837  0.0518 -0.1056
 5885W        W21694  10.195  17.391   3.145 -0.0916  0.2038  0.1867
 5886W        W21695   4.144   3.588  14.637  0.0669  0.4144  0.0840
 5887W        W21696   5.155   9.101   5.397  0.1989  0.0761 -0.2215
 5888W        W21697   5.220  11.282  12.880 -0.1337 -0.3552 -0.0061
 5889W        W21698   3.607   3.815   4.262 -0.1583  0.2091  0.0101
 5890W        W21699  16.172  12.832   4.945 -0.1864  0.0970  0.1143
 5891W        W21700  13.262   0.017   2.286 -0.0814 -0.3538  0.0409
 5892W        W21701  16.322   1.415  14.955 -0.0871  0.2752  0.5076
 5893W        W21702   4.906   9.068  12.196  0.2862  0.2510  0.1317
 5894W        W21703  10.271   5.036   5.759 -0.2718 -0.1648 -0.0025
 5895W        W21704  13.023   1.475   3.189 -0.1682  0.0174 -0.2638
 5896W        W21705  16.904   2.176   0.803  0.0077 -0.1555 -0.1602
 5897W        W21706   3.885  17.029   5.355  0.3968  0.2315 -0.3231
 5898W        W21707  10.772   8.190   4.471 -0.0817 -0.1578 -0.0286
 5899W        W21708  15.720  15.961  13.930  0.3801  0.2090  0.1109
 5900W        W21709   5.413  10.780  15.965 -0.0397  0.0277 -0.0704
 5901W        W21710  17.758   7.605  15.161 -0.0423  0.1939 -0.0580
 5902W        W21711   6.196   5.898   0.138 -0.1549  0.2121  0.0642
 5903W        W21712   4.410  15.241   3.286 -0.0228 -0.1628 -0.1570
 5904W        W21713   0.832   9.103   4.007 -0.1485 -0.0343 -0.0993
 5905W        W21714  14.142  12.430   4.366  0.0203 -0.2181  0.1469
 5906W        W21715  12.534   9.370   1.466 -0.0801 -0.3235  0.1282
 5907W        W21716   4.090  12.874   5.372  0.0367  0.1900 -0.1570
 5908W        W21717  14.112   4.401   5.420  0.0756 -0.1062  0.1016
 5909W        W21718  17.482   1.231  14.563 -0.3261 -0.4115  0.0084
 5910W        W21719   7.417  12.009   3.612 -0.2211  0.1299 -0.0577
 5911W        W21720  11.585   9.425  12.502 -0.2082  0.0455 -0.0273
 5912W        W21721   8.579  14.393   3.265 -0.0227 -0.2132 -0.0816
 5913W        W21722   0.770   9.441   1.951 -0.2135 -0.1055  0.1497
 5914W        W21723   7.195   8.591  11.095  0.0736  0.0799 -0.0050
 5915W        W21724  17.876   4.201  12.654  0.0248  0.1830 -0.0349
 5916W        W21725   2.650  12.575   0.357 -0.0191 -0.0361 -0.0004
 5917W        W21726   9.356  14.078   4.134 -0.1631 -0.2070 -0.0119
 5918W        W21727   5.339   4.559  12.212  0.2348 -0.2727  0.2858
 5919W        W21728   2.436  17.199  13.223  0.0031 -0.0490  0.0142
 5920W        W21729  17.497  17.954   4.201 -0.1019 -0.2288  0.1662
 5921W        W21730  11.108  11.457   5.345 -0.3649 -0.1086  0.3124
 5922W        W21731   8.494   1.790   4.159 -0.0168  0.2590  0.2535
 5923W        W21732   6.586  15.575   0.231  0.1424 -0.0321  0.1309
 5924W        W21733   9.700  13.686  13.023  0.1720  0.1138 -0.2066
 5925W        W21734   1.429  11.054   0.186  0.0350  0.0096 -0.5387
 5926W        W21735   0.972   8.665   0.953 -0.1473 -0.4173 -0.3270
 5927W        W21736  17.549  10.903   5.894  0.0760 -0.0283  0.0070
 5928W        W21737   4.735   1.728   5.372 -0.1993  0.1119 -0.0382
 5929W        W21738   7.141  10.635  15.236  0.2220 -0.0373  0.0541
 5930W        W21739  15.197  12.919   0.443  0.2008 -0.0119 -0.4171
 5931W        W21740   8.187   5.714  12.276  0.3292 -0.1397 -0.1799
 5932W        W21741  15.838   6.080  11.509  0.1875  0.1687  0.0766
 5933W        W21742   2.221  12.432  13.057 -0.0644  0.0499 -0.3676
 5934W        W21743  17.368  12.005   2.064  0.1518 -0.2295 -0.3029
 5935W        W21744  15.975   1.130  10.250 -0.0405 -0.2222 -0.2228
 5936W        W21745  17.058   4.950   4.327  0.0213  0.1091  0.0097
 5937W        W21746   0.803   1.374  14.882  0.1295  0.0683  0.3196
 5938W        W21747   0.763   1.502   1.265 -0.0272 -0.2808 -0.1026
 5939W        W21748   2.866   9.202  10.655 -0.2039 -0.0510  0.1121
 5940W        W21749   2.169  10.772   2.349  0.0976  0.2292  0.0416
 5941W        W21750   1.331   2.130  10.370 -0.1529 -0.1128 -0.2377
 5942W        W21751   7.052  10.036  13.294 -0.3827  0.0032 -0.0373
 5943W        W21752   9.452   9.204   0.257  0.0842  0.0044 -0.0326
 5944W        W21753  10.418   3.019   4.892 -0.0506  0.1380 -0.2958
 5945W        W21754   7.958   6.770   0.761  0.1376 -0.0307 -0.2982
 5946W        W21755   3.402   8.442  14.150 -0.2354 -0.1080 -0.2109
 5947W        W21756   6.660   9.008   4.425  0.1466 -0.0021  0.1181
 5948W        W21757  14.198   2.402  13.832  0.0286 -0.1334  0.3104
 5949W        W21758  15.763   2.414   1.880 -0.0973 -0.0058  0.1129
 5950W        W21759   6.142   0.031  15.977 -0.0001  0.0708 -0.3022
 5951W        W21760  10.536   9.380  10.936  0.0314 -0.0172  0.0261
 5952W        W21761   6.019  11.226  11.258 -0.2312 -0.0892  0.1446
 5953W        W21762   5.358   2.694   4.255 -0.0541  0.1428 -0.0064
 5954W        W21763  13.702  16.094  15.745  0.0508 -0.0166 -0.0686
 5955W        W21764   4.793   0.113   1.305  0.1503  0.1334  0.1515
 5956W        W21765   8.677   8.486  14.171 -0.0527  0.2276 -0.1056
 5957W        W21766   8.081   1.109  14.692 -0.2312  0.0813 -0.3873
 5958W        W21767   0.374   7.276  13.374 -0.2646 -0.0943  0.0355
 5959W        W21768  10.273  18.263  14.063  0.2197  0.1986  0.0935
 5960W        W21769   4.517   8.428   4.852  0.0537 -0.1259 -0.2272
 5961W        W21770   5.856   5.311   1.705  0.2515  0.1502 -0.0257
 5962W        W21771   5.924   4.720  10.816 -0.3246 -0.0303 -0.0594
 5963W        W21772  14.509   8.063  15.105  0.1293 -0.1282 -0.0088
 5964W        W21773  17.819  11.838  14.856 -0.0873 -0.3205 -0.3115
 5965W        W21774   7.340   5.691   3.219  0.0779 -0.2608  0.0906
 5966W        W21775   7.705   7.607  13.105  0.2201 -0.3865  0.3541
 5967W        W21776  10.709  10.209   5.432 -0.0306  0.1727  0.2252
 5968W        W21777   9.263   6.316   3.474 -0.0226 -0.1189  0.0747
 5969W        W21778  13.165  10.339   1.276 -0.0056 -0.4858  0.0864
 5970W        W21779   0.688   9.140  10.965 -0.1345  0.0751  0.0775
 5971W        W21780   3.092  17.696  15.172  0.1693  0.2471 -0.1504
 5972W        W21781   1.665  17.304   2.116  0.2879  0.2139  0.1741
 5973W        W21782   4.160   3.946   2.771 -0.0347 -0.1754 -0.1417
 5974W        W21783   4.064   6.292  15.397 -0.2236  0.0067 -0.4449
 5975W        W21784  16.526   6.670  13.773 -0.2229 -0.1475  0.2968
 5976W        W21785   4.398  10.583  14.018 -0.2777  0.5513  0.5400
 5977W        W21786   3.297  14.388  15.063  0.1046  0.0778 -0.1988
 5978W        W21787   6.421   7.154   9.814  0.1383 -0.2361  0.1131
 5979W        W21788  16.698  10.976  13.454  0.1448  0.0044  0.0613
 5980W        W21789  10.364   5.218   5.148 -0.0685  0.0131  0.0404
 5981W        W21790   6.954   9.233   0.206  0.1990 -0.3454 -0.0600
 5982W        W21791  13.095  18.143  14.681 -0.0477  0.0279 -0.0897
 5983W        W21792  14.749  18.231  13.206  0.1524 -0.2737 -0.1655
 5984W        W21793   8.057   9.711  13.260  0.0151  0.2066  0.0322
 5985W        W21794   5.334  11.912  14.478  0.0890 -0.0161  0.1148
 5986W        W21795  10.794   6.641   3.735 -0.2163 -0.0718 -0.0670
 5987W        W21796   8.597   8.701   4.331 -0.3381  0.1646  0.1153
 5988W        W21797  14.664   1.195  11.474  0.2438 -0.0417  0.1198
 5989W        W21798   4.480  13.732  11.266  0.2936 -0.3151 -0.2458
 5990W        W21799  18.146  13.165   2.960 -0.2209  0.0324  0.1353
 5991W        W21800   1.769   6.310  12.932  0.0092 -0.2461 -0.0696
 5992W        W21801   8.493  17.628   4.574  0.1880 -0.0962  0.0074
 5993W        W21802   0.320   6.510  10.366  0.0273 -0.1934 -0.0816
 5994W        W21803   8.298   5.358  13.417  0.1118  0.0641 -0.1776
 5995W        W21804  16.109  17.154  11.317  0.0202  0.0619  0.0929
 5996W        W21805   9.649   0.420  11.179  0.0488  0.1682  0.2898
 5997W        W21806   0.754   5.848   2.769  0.2645  0.0545  0.0716
 5998W        W21807   2.053  12.037  11.655 -0.0935  0.1066 -0.0604
 5999W        W21808   1.817  17.274   5.120 -0.0071  0.3060  0.0398
 6000W        W21809   9.031   6.030   4.680 -0.1232 -0.0693  0.2281
 6001W        W21810   5.445   8.141   2.562 -0.0806 -0.0082 -0.4197
 6002W        W21811   2.888  11.181   0.311 -0.1568 -0.0223  0.1756
 6003W        W21812   9.316   4.448  14.652 -0.3658  0.4115  0.1098
 6004W        W21813   5.818  12.204   1.114  0.1939  0.0124  0.2807
 6005W        W21814  18.099   1.209   1.056 -0.2747 -0.0528  0.0092
 6006W        W21815  15.762  10.726   0.259 -0.4533 -0.2224  0.0526
 6007W        W21816   8.499   7.058   0.703  0.0273 -0.2049  0.2234
 6008W        W21817   1.780   6.269   3.831  0.0290 -0.1575  0.0749
 6009W        W21818   5.686  13.439   5.837  0.1075 -0.1098 -0.1678
 6010W        W21819   2.470  18.130  11.173  0.1073 -0.0674  0.1293
 6011W        W21820   0.894  15.262  13.433 -0.0069 -0.2971 -0.0824
 6012W        W21821   8.070  16.142   2.426  0.0219  0.0407 -0.0997
 6013W        W21822  10.485  17.771   2.740  0.2723  0.1332 -0.2181
 6014W        W21823  16.434  16.496  11.921  0.4434  0.1207 -0.2291
 6015W        W21824   3.547  11.713  12.441  0.1436  0.1142  0.1267
 6016W        W21825   5.868  16.527  12.792 -0.3708 -0.1144  0.1484
 6017W        W21826  11.168  17.104   2.231  0.1224  0.1295 -0.0615
 6018W        W21827   6.730   5.499  11.280  0.0701 -0.1055 -0.2273
 6019W        W21828  10.892  11.594   2.738  0.3130  0.2483 -0.0197
 6020W        W21829   0.684  17.220   2.362 -0.1993  0.1169 -0.1968
 6021W        W21830   1.520  13.975  14.800  0.2163  0.3743 -0.0015
 6022W        W21831  13.336   4.606  11.288  0.1433  0.4308 -0.4327
 6023W        W21832  11.619  10.918   4.517  0.0408 -0.3714 -0.0846
 6024W        W21833  10.659   2.764  15.610  0.0855 -0.1596 -0.3254
 6025W        W21834   0.191   2.406   1.463 -0.0883  0.1875 -0.1372
 6026W        W21835   2.985  14.411  12.917  0.0379 -0.1229 -0.2873
 6027W        W21836   2.195  13.716  13.738 -0.1435  0.1239  0.0084
 6028W        W21837  10.427   4.461  15.647  0.0577  0.3730  0.0263
 6029W        W21838   0.696   1.174   3.152 -0.4780 -0.1647 -0.4073
 6030W        W21839   4.484   8.482   0.040  0.2893  0.0817  0.1152
 6031W        W21840   3.825   1.038   2.421  0.2148 -0.1205 -0.1009
 6032W        W21841  17.154   4.923   0.456  0.0935 -0.0744  0.2394
 6033W        W21842  13.622   8.357   4.532 -0.0657 -0.0788  0.1773
 6034W        W21843   2.480  16.829   3.970 -0.1781 -0.1673 -0.1284
 6035W        W21844   5.329  15.098   5.009  0.1634  0.0915  0.1081
 6036W        W21845  12.432  12.105   5.706  0.1983 -0.0756 -0.3164
 6037W        W21846   5.727   5.568  15.028  0.0267  0.1271  0.0219
 6038W        W21847   2.317   3.569   4.235 -0.1538  0.0316 -0.1424
 6039W        W21848   5.070   2.651   3.840 -0.0725  0.0117 -0.1288
 6040W        W21849   3.615  15.108   5.474 -0.1407  0.1883  0.1396
 6041W        W21850   4.258   1.676   5.644 -0.1292 -0.4048 -0.4518
 6042W        W21851   2.271   4.912   4.564 -0.0115  0.1163 -0.2245
 6043W        W21852   8.116   4.961   5.487 -0.1358 -0.0928 -0.0606
 6044W        W21853   9.017   0.923  15.862 -0.1543 -0.2316  0.1725
 6045W        W21854   9.388   7.608   3.662 -0.0677  0.0362 -0.0079
 6046W        W21855   3.593   0.596  12.485 -0.0012  0.0709  0.1310
 6047W        W21856  17.011   5.192  11.777  0.0272 -0.2606  0.0080
 6048W        W21857  11.510  15.420  15.774 -0.3675 -0.1581  0.1310
 6049W        W21858  14.098   7.197   4.763  0.2819 -0.0725  0.0714
 6050W        W21859  15.279   8.223  12.389 -0.2574 -0.1081  0.0922
 6051W        W21860   0.957  14.147   2.424  0.0261  0.0449  0.0364
 6052W        W21861  11.527  10.998   5.032  0.0096  0.1787  0.0889
 6053W        W21862  13.591   2.662   2.763 -0.0422  0.0123 -0.0957
 6054W        W21863   7.195   0.126  15.470  0.0778  0.2391 -0.3006
 6055W        W21864  12.867  14.478   0.901  0.1320 -0.1366  0.3992
 6056W        W21865   6.111  10.366   2.210 -0.0131  0.0476  0.4379
 6057W        W21866   0.703   2.337   1.544 -0.2007 -0.0920  0.0509
 6058W        W21867  16.778   4.689   2.129  0.1381  0.1284 -0.0104
 6059W        W21868   3.437   8.177  12.953 -0.1174 -0.2421 -0.2830
 6060W        W21869   1.947   1.332  13.043  0.1714 -0.1355  0.0095
 6061W        W21870   7.491   5.097  11.947 -0.3654  0.0553  0.0029
 6062W        W21871   8.310   2.492  12.088  0.0858 -0.1514  0.1669
 6063W        W21872  10.089  17.329   3.617  0.1856 -0.0985  0.0080
 6064W        W21873  17.185   2.058  15.385  0.3055 -0.2483  0.2303
 6065W        W21874  10.236  10.180   4.505  0.1754  0.1436 -0.0772
 6066W        W21875   7.515  14.103   1.506  0.2317 -0.0834 -0.1947
 6067W        W21876   3.796   1.238   0.148  0.2309 -0.0634  0.1153
 6068W        W21877  17.473   9.733   3.367 -0.1685  0.0078  0.0489
 6069W        W21878  14.743   3.165  13.647 -0.1021  0.2757 -0.0942
 6070W        W21879  12.576  13.944   0.925  0.2123 -0.1761 -0.1534
 6071W        W21880   5.446   0.028  11.846  0.0441 -0.1953  0.1795
 6072W        W21881  11.657   0.030   2.332  0.2137  0.0800  0.0353
 6073W        W21882   7.588   9.507   1.418 -0.1667  0.4042 -0.0136
 6074W        W21883  16.266  13.873   4.573  0.2020 -0.1355 -0.0658
 6075W        W21884   3.728  18.008  15.225 -0.1500  0.4384 -0.0431
 6076W        W21885  14.913  16.072   0.058  0.1952 -0.0236 -0.0546
 6077W        W21886  14.643  18.039   3.046  0.1275  0.0565 -0.0565
 6078W        W21887   3.436  16.824  13.418  0.0066  0.1385  0.0857
 6079W        W21888   0.685   7.804   1.254 -0.2255 -0.2169 -0.2271
 6080W        W21889  12.371   0.232  13.739  0.2343 -0.2232  0.0911
 6081W        W21890  10.859  16.099   3.469 -0.1233  0.1511  0.1144
 6082W        W21891   2.492  11.513   5.242 -0.2490 -0.1272 -0.1561
 6083W        W21892   4.277   3.181   2.186  0.0160  0.2256  0.2205
 6084W        W21893   0.421   8.915  12.933  0.0243  0.0165 -0.0433
 6085W        W21894   9.174   6.572  13.916 -0.0448 -0.2078  0.1936
 6086W        W21895  13.709  12.288   5.343  0.0897  0.1359  0.0594
 6087W        W21896  12.976  13.878  13.263  0.4019 -0.1277 -0.1365
 6088W        W21897  11.543   5.855  15.690 -0.0553 -0.0783  0.0212
 6089W        W21898   6.578   5.776  15.418  0.2294 -0.4013 -0.0128
 6090W        W21899  14.873   1.637  12.568 -0.4473  0.0905  0.0645
 6091W        W21900  11.879  11.737   4.648 -0.0155  0.0914 -0.2084
 6092W        W21901  12.356   1.200   1.684 -0.1511 -0.1862  0.1408
 6093W        W21902   8.183   1.209   3.579  0.0065 -0.0648 -0.0003
 6094W        W21903  10.821   4.326   6.213  0.3069 -0.0982 -0.1281
 6095W        W21904   3.529  16.672   2.481 -0.0715 -0.0641 -0.0130
 6096W        W21905   8.544   9.049  12.833 -0.1796 -0.0279  0.3424
 6097W        W21906  16.963   0.464   4.003 -0.0690 -0.0853 -0.3382
 6098W        W21907   6.760  13.690   4.649 -0.4258  0.1610  0.1777
 6099W        W21908   7.771   9.963  12.904  0.0034 -0.1238  0.2167
 6100W        W21909   2.443  15.559   4.024 -0.1878 -0.1269  0.4009
 6101W        W21910   6.518  13.920  13.928  0.0538 -0.0569 -0.1815
 6102W        W21911   3.959  17.483   0.455 -0.3721 -0.0704 -0.1611
 6103W        W21912  12.825   1.048   3.489 -0.2107  0.0834 -0.2230
 6104W        W21913  17.399   4.011  13.086  0.0230  0.2382  0.0294
 6105W        W21914  15.608   6.025   5.654  0.1011 -0.3959  0.0272
 6106W        W21915   4.456   5.442  11.686 -0.2700  0.3072  0.1189
 6107W        W21916   1.576  16.306  13.048 -0.2172 -0.0197  0.3367
 6108W        W21917  14.903   7.355   4.534 -0.3111  0.3774  0.0430
 6109W        W21918   7.379   2.493  15.163  0.2063  0.1174 -0.0023
 6110W        W21919  15.773  12.371  12.125 -0.0113 -0.0191 -0.1215
 6111W        W21920  12.517   7.075  14.744 -0.1266  0.0427  0.1589
 6112W        W21921  14.238   2.584   1.306  0.1389 -0.0849  0.1525
 6113W        W21922   0.446  11.140  12.625 -0.2682 -0.0586 -0.1475
 6114W        W21923   0.102  13.846   2.280  0.1246  0.1344  0.0532
 6115W        W21924   6.146  17.738   2.709 -0.4318 -0.1564 -0.2069
 6116W        W21925   7.571  14.067   0.727 -0.1285 -0.2044 -0.0322
 6117W        W21926  14.655   8.533  13.835  0.0579 -0.0241 -0.0913
 6118W        W21927  10.167  14.098   1.070 -0.0219  0.2421 -0.0048
 6119W        W21928   5.674  17.921  11.541 -0.2818 -0.1190  0.2689
 6120W        W21929  10.507   3.984  15.935 -0.1123  0.0996 -0.3025
 6121W        W21930   4.752  10.620  11.320 -0.0508  0.1359  0.0194
 6122W        W21931   4.510   6.290   3.533 -0.1660  0.0808  0.0194
 6123W        W21932   5.896   7.379   4.700  0.0260  0.0261 -0.3522
 6124W        W21933   2.119  17.903   4.351 -0.0416 -0.1689  0.0219
 6125W        W21934  16.389  16.710   1.690  0.0240  0.2185  0.3991
 6126W        W21935  14.372   0.771  11.476  0.1138 -0.1748  0.0540
 6127W        W21936   4.476  14.186  12.593  0.2207  0.1570 -0.1873
 6128W        W21937   1.361   5.090  13.696 -0.2278  0.0599 -0.0548
 6129W        W21938  11.022   5.358  14.657  0.2502 -0.1981  0.3554
 6130W        W21939  12.924   4.166   3.397 -0.1457  0.0560 -0.0912
 6131W        W21940  14.841   3.231   3.489  0.0985  0.1158 -0.2222
 6132W        W21941   4.131  15.608   4.364  0.1832 -0.4203 -0.0085
 6133W        W21942   2.991  11.325  10.127  0.0327 -0.0487  0.0765
 6134W        W21943  10.892  11.172   0.074  0.2710  0.0157  0.1972
 6135W        W21944   0.496   5.313  12.130  0.1308 -0.3594 -0.1387
 6136W        W21945   2.898   2.179  13.443 -0.2622  0.1368  0.1811
 6137W        W21946   7.986  11.666   1.694 -0.2332 -0.1884 -0.1296
 6138W        W21947  11.379   6.313  15.027  0.2355  0.1904  0.0998
 6139W        W21948  10.874  15.840   3.954 -0.1197  0.0347  0.1282
 6140W        W21949  18.214  11.548   4.023 -0.1991  0.1701  0.0822
 6141W        W21950  12.681   4.689   0.771  0.2917  0.0081  0.0683
 6142W        W21951   8.335   6.667   1.052 -0.1916 -0.1442 -0.1074
 6143W        W21952  13.720  11.021   1.644 -0.0037  0.0490 -0.1300
 6144W        W21953   5.543   9.508   2.144 -0.0262 -0.0319 -0.4922
 6145W        W21954  10.547   7.260  12.917  0.1435  0.2023 -0.0856
 6146W        W21955  17.519  17.429   2.618  0.3236  0.2944  0.0249
 6147W        W21956  18.225   2.825   1.294 -0.0115 -0.3001  0.0526
 6148W        W21957  13.998   7.231   5.945 -0.1314 -0.0597 -0.0990
 6149W        W21958  13.989  15.114  14.690  0.0001  0.0639  0.1538
 6150W        W21959   8.591   3.212   0.420 -0.0557 -0.0081 -0.1503
 6151W        W21960   1.204  16.050   2.828 -0.2011 -0.1821  0.1582
 6152W        W21961   1.845   2.270   4.954 -0.1612 -0.1668 -0.0832
 6153W        W21962  13.923  16.063  13.308  0.0490 -0.0194 -0.1126
 6154W        W21963  17.687   1.072  14.051 -0.0687  0.2056  0.4951
 6155W        W21964   0.443  12.051   5.169 -0.0607  0.1504  0.2590
 6156W        W21965   8.293  13.011   0.382 -0.1026 -0.1278 -0.1663
 6157W        W21966   8.754  15.354   3.465 -0.4422 -0.1884  0.0503
 6158W        W21967   9.584   8.190   3.387  0.1196 -0.1412 -0.0320
 6159W        W21968   6.463  17.804  14.981  0.4427 -0.0507  0.0543
 6160W        W21969  13.616   4.802  14.684 -0.1905  0.0452  0.1798
 6161W        W21970   5.732  17.657   3.056  0.0046  0.2575  0.0880
 6162W        W21971   7.187   2.771  14.256 -0.0256 -0.2973  0.2623
 6163W        W21972  16.877  12.341   0.289  0.1511  0.0326 -0.2081
 6164W        W21973   5.682   6.786  15.484 -0.0320 -0.2837 -0.1001
 6165W        W21974  16.188  17.348   4.620  0.2244  0.1263 -0.1095
 6166W        W21975  14.909  13.059   4.574 -0.0638 -0.0214 -0.1140
 6167W        W21976  12.355   2.289   0.768  0.1631 -0.0044 -0.2226
 6168W        W21977  15.200  10.713   1.873  0.4083 -0.1039  0.2281
 6169W        W21978  11.384  12.183   5.005 -0.0895  0.0767 -0.0990
 6170W        W21979   8.836   0.631  12.333 -0.1374 -0.1659  0.2032
 6171W        W21980  11.613   7.365  15.066  0.0555  0.1846  0.1693
 6172W        W21981  16.331  14.729  15.756 -0.0839 -0.3829  0.0416
 6173W        W21982   4.722  12.395  13.377  0.1653 -0.1442  0.0237
 6174W        W21983   4.416  14.924   5.824  0.0528  0.1382 -0.0320
 6175W        W21984  12.315  15.632   4.199  0.0682 -0.0413 -0.1075
 6176W        W21985  13.024   5.305  13.694  0.1629  0.2014 -0.0730
 6177W        W21986  11.384  12.648   3.875  0.1038  0.0656  0.1538
 6178W        W21987  16.182  13.373   4.841  0.2721  0.0142 -0.0878
 6179W        W21988  18.246  16.374   4.443  0.0872 -0.1053 -0.3025
 6180W        W21989   4.255   0.898  14.632 -0.3347  0.1958 -0.1516
 6181W        W21990   7.253   3.306  11.392 -0.2246 -0.3657  0.1827
 6182W        W21991   5.177   2.763  15.346 -0.0423  0.2202 -0.1235
 6183W        W21992  11.535  18.199  11.298  0.0412  0.2392  0.0126
 6184W        W21993  17.908   5.115  11.774 -0.0175  0.0044  0.1543
 6185W        W21994   9.906   6.812   4.048  0.3126 -0.1294  0.2400
 6186W        W21995  10.525  15.019   0.354 -0.0836  0.0248  0.0161
 6187W        W21996  10.080  17.812  11.260 -0.0012 -0.1564 -0.3494
 6188W        W21997   5.901   4.536   3.277 -0.3503 -0.0996  0.4015
 6189W        W21998  16.405   1.492   5.464 -0.1421  0.3397  0.0638
 6190W        W21999  17.963   8.911   1.313 -0.0542 -0.1082 -0.0925
 6191W        W22000  10.699  15.284   3.269 -0.2886  0.0831  0.2753
 6192W        W22001  12.013  15.110  10.996  0.0540 -0.1215  0.1606
 6193W        W22002   4.685  18.121   5.621  0.0143  0.1596 -0.0162
 6194W        W22003  14.149  12.200   2.154  0.1906  0.2726  0.2489
 6195W        W22004  13.223   0.681  12.127 -0.1430  0.3788  0.1331
 6196W        W22005   6.620  17.637  12.644 -0.1612  0.1564  0.2148
 6197W        W22006  16.500  14.038   1.438  0.1899  0.0374 -0.3226
 6198W        W22007  14.091   7.107   0.359  0.3891 -0.1661  0.0361
 6199W        W22008   3.253   7.164   1.622 -0.1369  0.0232 -0.1254
 6200W        W22009   3.635   4.349  15.929 -0.1722  0.3773 -0.0510
 6201W        W22010   1.769  12.309   0.040  0.1918  0.1427 -0.0514
 6202W        W22011  13.778  17.838   3.409  0.0725 -0.1990 -0.0700
 6203W        W22012   7.136  17.362   4.386 -0.0722 -0.0957  0.1117
 6204W        W22013  13.126  14.465  13.834  0.0929 -0.2756 -0.4508
 6205W        W22014  11.840  16.280  15.481 -0.0370 -0.2049 -0.3057
 6206W        W22015  14.701   6.085   5.752 -0.0334 -0.0122  0.0361
 6207W        W22016  11.667   6.990   4.284  0.0269  0.2175  0.0135
 6208W        W22017  18.187  15.707  14.321 -0.1098 -0.0178 -0.2596
 6209W        W22018   9.004   2.198   1.166  0.1041  0.2674  0.0491
 6210W        W22019   2.404  14.244   0.842 -0.4960  0.1013 -0.0956
 6211W        W22020  15.864  10.353   0.621  0.1287  0.0348 -0.0043
 6212W        W22021  14.097   1.420   3.922  0.1782 -0.2171 -0.0743
 6213W        W22022   5.429  12.147   5.246 -0.2291 -0.0052  0.2483
 6214W        W22023   6.976  12.201   2.316  0.1276 -0.2262  0.0255
 6215W        W22024  12.608  12.424  13.574  0.1793  0.1612 -0.0865
 6216W        W22025  11.192   9.230  13.713  0.1905 -0.0092 -0.1125
 6217W        W22026   2.619   3.128   2.702 -0.0765 -0.0401  0.0169
 6218W        W22027  16.899  12.426   0.885  0.2903  0.0866 -0.1154
 6219W        W22028   5.604   1.017  15.698 -0.1764 -0.1909 -0.0355
 6220W        W22029  14.929  15.468   4.326  0.2662  0.3532  0.2540
 6221W        W22030  16.513   4.757  13.591  0.0800  0.2248 -0.5334
 6222W        W22031   3.772  10.674   1.969 -0.1425 -0.0167  0.2808
 6223W        W22032  12.942  16.800  12.973  0.0982 -0.0626  0.1998
 6224W        W22033   2.600  16.959   0.955 -0.2200 -0.6610  0.1258
 6225W        W22034  14.146   1.665   2.638 -0.2248 -0.0326  0.4672
 6226W        W22035  17.385   6.076   3.734 -0.1515  0.2957 -0.0597
 6227W        W22036   4.992   2.997   0.593 -0.3198 -0.0211 -0.0590
 6228W        W22037   2.464   6.042  14.000 -0.0634  0.2141  0.2685
 6229W        W22038   1.803  16.287   3.625 -0.0590  0.0700  0.0352
 6230W        W22039   3.837  14.081   3.932 -0.0660 -0.0170 -0.0614
 6231W        W22040  13.034  17.846  15.167 -0.2178 -0.3332 -0.2880
 6232W        W22041   2.164  18.256   3.944 -0.1364 -0.1120  0.1299
 6233W        W22042  16.448   4.995   1.147  0.1023  0.1444 -0.0095
 6234W        W22043  17.429   4.750  14.160  0.2953  0.3157  0.1564
 6235W        W22044  11.245  12.999   2.825 -0.3119 -0.3801 -0.1855
 6236W        W22045   6.050   1.123   1.294  0.2609  0.1446  0.1688
 6237W        W22046  11.650  14.529  13.107  0.0244 -0.1544  0.0978
 6238W        W22047  11.070  16.173   2.727 -0.0075 -0.2152  0.0705
 6239W        W22048  13.650   4.986   4.112  0.2169  0.1514 -0.0906
 6240W        W22049  14.199   2.031   1.277  0.2717 -0.0437 -0.2662
 6241W        W22050  12.759   6.997   2.334  0.0549  0.0035  0.3101
 6242W        W22051   7.504  11.365   0.955 -0.0021  0.2193 -0.1621
 6243W        W22052  16.538   4.398   1.749 -0.0414 -0.0488 -0.1982
 6244W        W22053   1.206   6.881  16.063  0.2453  0.3883  0.0911
 6245W        W22054  14.169   6.713   4.602  0.2521  0.2846  0.1076
 6246W        W22055  15.606  15.394   1.718 -0.0137  0.1109 -0.1477
 6247W        W22056   0.636   2.238  11.210 -0.0316 -0.2217 -0.0278
 6248W        W22057  16.477   3.102  13.969 -0.2003 -0.0451  0.1959
 6249W        W22058  13.504  10.698  13.167  0.0395 -0.1200  0.0747
 6250W        W22059   2.327   7.292   4.703  0.0393  0.0413  0.3836
 6251W        W22060  16.107   9.782  13.854  0.0228 -0.0350  0.0130
 6252W        W22061   5.258  12.441   2.199 -0.1419  0.1711 -0.1788
 6253W        W22062  13.524  16.109  14.687 -0.2079 -0.1401 -0.3272
 6254W        W22063   3.470   6.710  13.466  0.1905  0.1409  0.0656
 6255W        W22064  14.569   6.311  10.961  0.0157  0.0201 -0.0643
 6256W        W22065  15.641  16.778   3.070 -0.1597 -0.1848 -0.0361
 6257W        W22066   9.125  15.305  16.017 -0.0824 -0.0911 -0.2646
 6258W        W22067  15.437   9.484   0.306  0.0641  0.0840  0.1086
 6259W        W22068  15.694   0.610   0.678 -0.0982  0.1607  0.2219
 6260W        W22069   7.955   4.536  13.831  0.3423 -0.1594  0.0150
 6261W        W22070   5.445  10.239  14.851  0.1586 -0.0980 -0.1203
 6262W        W22071  15.370  10.449   1.415  0.1442  0.1043 -0.1440
 6263W        W22072   0.913  14.629  15.240 -0.1956 -0.0072 -0.2607
 6264W        W22073  14.592   4.107  11.248 -0.2663 -0.2468  0.1296
 6265W        W22074  15.523   5.271   0.791  0.0508 -0.2465 -0.0787
 6266W        W22075   0.144  13.317   0.163 -0.0049  0.1061 -0.1905
 6267W        W22076  14.879   8.893   0.839  0.1801 -0.2515 -0.1937
 6268W        W22077   3.007   1.553  11.490  0.1116 -0.0400  0.1388
 6269W        W22078  15.666   0.773  14.890  0.1699 -0.1260 -0.0526
 6270W        W22079  17.813  15.409   0.203  0.0312  0.0347  0.1391
 6271W        W22080  10.427  16.802   1.582 -0.1685  0.1018  0.1569
 6272W        W22081   4.971   4.602   2.498  0.2071 -0.1469  0.0167
 6273W        W22082  13.632   9.286   2.940  0.1688 -0.0944  0.0807
 6274W        W22083   2.315  11.882   0.524 -0.1583  0.1732  0.0884
 6275W        W22084  10.332  16.244   0.793  0.1302 -0.0596  0.0265
 6276W        W22085   8.801  12.956  16.007  0.0028 -0.7370  0.0432
 6277W        W22086   1.088   8.368   4.451 -0.0573  0.1340 -0.2042
 6278W        W22087   4.306  10.406   1.946 -0.0954  0.2825  0.3267
 6279W        W22088   3.773  17.411   2.353  0.2301  0.0219 -0.1983
 6280W        W22089  16.422   3.571   4.167 -0.2929 -0.0638 -0.0182
 6281W        W22090   6.097   5.112  10.506 -0.1229 -0.1732 -0.0106
 6282W        W22091   9.110  18.038   2.462  0.1304 -0.2711  0.3123
 6283W        W22092  13.306  14.969   0.160  0.1758  0.0516  0.0263
 6284W        W22093   5.842   7.507  13.360 -0.0493  0.0441  0.2737
 6285W        W22094  15.722   0.131   4.500  0.0574 -0.0753 -0.2133
 6286W        W22095  12.718   7.180  15.829  0.0865 -0.2052 -0.1385
 6287W        W22096   5.051  16.124  15.069 -0.1572  0.0145  0.0501
 6288W        W22097   6.081  17.625  14.160 -0.1049  0.0445 -0.1497
 6289W        W22098   9.519   0.953   0.557 -0.1372  0.0324 -0.2858
 6290W        W22099   5.343  17.385  13.511  0.0141 -0.2289 -0.1013
 6291W        W22100   1.206  13.493  11.764 -0.1934  0.3459 -0.0965
 6292W        W22101  11.000   3.117  12.659 -0.1057 -0.0908 -0.1055
 6293W        W22102   2.767   1.994  15.282  0.2112  0.1468  0.2851
 6294W        W22103   4.862   9.862   3.021 -0.0798  0.0001  0.0438
 6295W        W22104   0.670  14.789  14.861  0.1897  0.1368 -0.3245
 6296W        W22105   3.714  10.867  15.256 -0.2598 -0.2518 -0.0162
 6297W        W22106  17.808   3.400   4.371 -0.1781  0.0745 -0.0339
 6298W        W22107   5.699   8.989  12.724 -0.1187 -0.1035  0.1566
 6299W        W22108   8.514   0.234   1.392  0.0615 -0.0112 -0.2302
 6300W        W22109  15.732  12.426  12.827 -0.2146 -0.1916 -0.3214
 6301W        W22110   7.300   7.505   0.030 -0.0444 -0.0554  0.0181
 6302W        W22111  16.691   6.463  11.232  0.0595 -0.0085 -0.0034
 6303W        W22112  14.960   9.397   0.476  0.3996 -0.2541 -0.1920
 6304W        W22113  14.855  14.857   2.450  0.0052  0.1017  0.0124
 6305W        W22114  12.086   2.718   1.538 -0.1514  0.0292 -0.2499
 6306W        W22115   1.174   2.217  12.217 -0.2615  0.1955  0.1239
 6307W        W22116   1.831  13.793   5.401 -0.0739  0.1420  0.0133
 6308W        W22117  16.050   9.436   0.575  0.0956 -0.1565  0.0554
 6309W        W22118   3.764   2.077   3.555 -0.0111  0.1223 -0.1936
 6310W        W22119  17.937   7.354  14.012  0.4698  0.1169 -0.3262
 6311W        W22120   7.247   7.305   2.923 -0.4183  0.2292 -0.2000
 6312W        W22121   9.156   1.163  15.471  0.2099  0.1531 -0.0348
 6313W        W22122   1.801  11.580   2.903  0.1583 -0.2493 -0.0877
 6314W        W22123   6.605   2.697   4.863  0.3023 -0.1199 -0.3274
 6315W        W22124   7.650  12.110   4.992  0.1384 -0.0171 -0.2641
 6316W        W22125  10.331  11.052   5.657 -0.0343  0.0910  0.2203
 6317W        W22126   6.431  15.130  12.289 -0.0969  0.1726 -0.1218
 6318W        W22127  11.279   3.025   1.734  0.1431 -0.1014  0.1463
 6319W        W22128   0.937   0.039   3.299 -0.3543  0.1771  0.1337
 6320W        W22129   7.511   6.801   2.939 -0.0224 -0.0829 -0.0205
 6321W        W22130   7.708   6.074  13.336  0.1583 -0.1155 -0.1570
 6322W        W22131  11.895  12.834  14.432 -0.1619 -0.2497  0.0858
 6323W        W22132  13.618  11.472  13.428  0.2574 -0.0186  0.0105
 6324W        W22133   9.776   5.455  11.564 -0.1047  0.3212 -0.1912
 6325W        W22134  15.020   3.362   4.866 -0.0605 -0.0234  0.0851
 6326W        W22135   7.044   0.107  11.679  0.1495 -0.2835  0.2356
 6327W        W22136  12.634   6.764  15.237 -0.0086 -0.0186 -0.0290
 6328W        W22137   3.976   1.336  13.214  0.1411 -0.1651  0.1658
 6329W        W22138   9.654  16.302  10.584  0.0147  0.1937 -0.1805
 6330W        W22139   6.494   3.111   3.828 -0.0235 -0.0366  0.0010
 6331W        W22140  11.198   8.893   3.513  0.2534  0.1821 -0.1181
 6332W        W22141  14.667   8.363   2.534  0.0665  0.2419 -0.1755
 6333W        W22142  12.771  12.882   0.564  0.1121 -0.1791 -0.1011
 6334W        W22143   3.961  13.204   0.520  0.4102  0.0842  0.2067
 6335W        W22144   8.303   9.957  15.257 -0.0507 -0.0952 -0.1501
 6336W        W22145  15.370   0.114   5.133 -0.1121  0.1591  0.1472
 6337W        W22146   2.989  14.366   0.895 -0.0260  0.0266 -0.0147
 6338W        W22147   0.088  12.907   1.450 -0.0915 -0.3861  0.0757
 6339W        W22148   1.668   3.601   5.977 -0.1768  0.0757 -0.0465
 6340W        W22149  12.324  11.836  15.443  0.1085  0.2830  0.0512
 6341W        W22150  15.296  12.149  13.017  0.2029 -0.0948  0.2018
 6342W        W22151  10.528  12.976   5.840  0.0178  0.0927  0.1808
 6343W        W22152   5.223   0.728   3.158  0.2491  0.1750  0.0134
 6344W        W22153   7.890  12.860  14.509 -0.0088  0.1526  0.1555
 6345W        W22154   2.808  12.901  13.176  0.1934 -0.0359 -0.0958
 6346W        W22155  13.259   3.034  12.317  0.4823  0.2808 -0.0152
 6347W        W22156   9.533  17.919   3.740 -0.3272  0.1087  0.2171
 6348W        W22157  13.301   2.286   1.666 -0.1714  0.2145 -0.0242
 6349W        W22158  16.225  14.256   5.164  0.0857  0.1218 -0.1534
 6350W        W22159   9.704  14.076   0.500 -0.1746  0.0019  0.2748
 6351W        W22160  13.605  14.276   2.501  0.2752  0.0647 -0.0222
 6352W        W22161  13.170  15.557  15.774  0.0628  0.2709  0.0889
 6353W        W22162   4.042   6.565   1.118  0.0401  0.2868 -0.0049
 6354W        W22163   0.009   8.403   3.198  0.0457  0.1334  0.0403
 6355W        W22164  13.060  12.570   0.936 -0.1617  0.1650 -0.1522
 6356W        W22165  15.546   4.869   3.194 -0.0856  0.0960  0.1152
 6357W        W22166   3.620   4.933   3.153  0.3445  0.2419 -0.1681
 6358W        W22167  16.245   9.526   1.512 -0.1813  0.1514 -0.0369
 6359W        W22168   1.012  13.006  15.496  0.3474 -0.0008 -0.1041
 6360W        W22169  17.618  16.769   3.796  0.2107 -0.1999  0.1477
 6361W        W22170   9.706   6.373   2.108 -0.5112  0.0612 -0.0613
 6362W        W22171   2.971   9.162   3.604  0.0627 -0.0120  0.0550
 6363W        W22172  17.142   9.818  15.611  0.1005  0.0018 -0.2158
 6364W        W22173   6.175   5.159   5.836 -0.0796 -0.0932 -0.3539
 6365W        W22174   4.375   8.829   2.599 -0.3307  0.0380  0.1652
 6366W        W22175   2.473  10.945   3.835  0.1169 -0.2010 -0.2233
 6367W        W22176  14.699   6.026   4.845  0.0301  0.1209 -0.0126
 6368W        W22177  12.115  13.653   0.893  0.3915 -0.1785  0.0184
 6369W        W22178  17.744   2.155   0.989 -0.1022  0.0511  0.2940
 6370W        W22179   5.700   3.878   2.077 -0.1748  0.1869  0.0896
 6371W        W22180  11.738  14.656   5.480  0.0168 -0.0958 -0.1357
 6372W        W22181   7.613   2.698   1.194 -0.0508  0.1409  0.0035
 6373W        W22182  12.218  18.087  14.010  0.1318  0.0128 -0.2355
 6374W        W22183   7.933  13.130  11.235 -0.0886  0.0358  0.0332
 6375W        W22184   1.194   3.427   0.364 -0.1666  0.1575 -0.5769
 6376W        W22185  15.935   6.115  15.617 -0.0678 -0.1951  0.0667
 6377W        W22186  15.986  14.677   4.964 -0.0212  0.1743 -0.2215
 6378W        W22187   3.770   5.929   4.027  0.1398  0.1525 -0.1098
 6379W        W22188  16.135  14.755   1.407  0.1654  0.2340 -0.0602
 6380W        W22189   9.262  17.588  11.772  0.0182 -0.2729  0.2241
 6381W        W22190  16.669  12.723   1.259  0.2350 -0.0525  0.0081
 6382W        W22191  10.050   1.141   1.073 -0.1666  0.0333  0.3712
 6383W        W22192   1.160  12.482  11.202  0.1068  0.2625  0.0282
 6384W        W22193  14.664  14.257   4.809  0.0850  0.0248 -0.1995
 6385W        W22194   9.965   0.639   1.110  0.0188 -0.3401 -0.1424
 6386W        W22195   8.964  10.860  12.826  0.0952 -0.2877  0.0253
 6387W        W22196   3.422   3.917   3.319 -0.0454  0.2420 -0.0261
 6388W        W22197  12.256  14.040  14.838  0.0665  0.0518  0.0033
 6389W        W22198  15.147  18.098   1.287  0.0208  0.0713  0.2591
 6390W        W22199   0.853  12.028   3.273 -0.2293 -0.1986 -0.0143
 6391W        W22200  17.543  10.301   2.811  0.1859 -0.0847 -0.1317
 6392W        W22201  15.638   0.148  13.080 -0.1099  0.1551 -0.1447
 6393W        W22202   3.988  12.653   1.507 -0.0738 -0.0199  0.0796
 6394W        W22203  13.853  11.071   4.343  0.0092 -0.0756  0.2663
 6395W        W22204   0.492   0.528   3.936  0.0923  0.0306 -0.1753
 6396W        W22205  14.620  16.028  11.626 -0.2806 -0.2933  0.1404
 6397W        W22206   0.775  12.269   0.617 -0.0783  0.3510 -0.1928
 6398W        W22207   5.116   4.481  13.150 -0.0898  0.2186 -0.0441
 6399W        W22208  13.323   1.397   5.239  0.1170 -0.0994  0.0579
 6400W        W22209   0.885  17.102  14.081  0.0781 -0.2811 -0.3392
 6401W        W22210   0.367  17.579   3.359  0.1867 -0.0136 -0.0371
 6402W        W22211   8.962  15.427   5.631  0.1812  0.0866 -0.0092
 6403W        W22212   6.628   0.861  13.335  0.0585  0.0700 -0.0898
 6404W        W22213   8.709  11.016   0.697  0.1860 -0.1641 -0.4576
 6405W        W22214  11.671  11.088   6.105  0.1628 -0.1008 -0.0843
 6406W        W22215  15.292   1.025  12.071  0.0477  0.1675 -0.3967
 6407W        W22216   8.832   8.654  12.976  0.0893  0.2016 -0.2418
 6408W        W22217   1.976   4.191  13.496 -0.1108 -0.0583  0.1506
 6409W        W22218   6.339  16.905   1.407 -0.1874 -0.2283 -0.0302
 6410W        W22219  17.103   1.136   3.318  0.0044 -0.3194 -0.0984
 6411W        W22220   0.204  17.354  11.666  0.1829  0.0686 -0.3356
 6412W        W22221   1.778  10.040  12.114  0.3838 -0.3044  0.0643
 6413W        W22222   5.886  14.688   2.337 -0.2492 -0.0313  0.0440
 6414W        W22223  10.868   4.349   2.882 -0.1774  0.0953 -0.0798
 6415W        W22224   3.000   7.545   0.111 -0.1282  0.0746  0.0047
 6416W        W22225  12.571  18.233   1.208  0.0324  0.0404 -0.5034
 6417W        W22226  17.251   3.648  13.386  0.0297  0.1954  0.1074
 6418W        W22227   6.904   5.462  13.192 -0.1749  0.1773 -0.0341
 6419W        W22228  12.183   3.270   0.179 -0.1936 -0.1175 -0.3236
 6420W        W22229  12.485   6.884   1.227 -0.2319 -0.3026 -0.0295
 6421W        W22230   1.346   7.605  11.235  0.0078 -0.2961 -0.0122
 6422W        W22231  10.700  14.915  14.266 -0.1229  0.1088 -0.1021
 6423W        W22232   7.368  12.461  12.341  0.0579  0.1809 -0.2224
 6424W        W22233  15.635   6.233   3.950  0.2271  0.0127 -0.3239
 6425W        W22234  14.934   4.208   0.224  0.3885  0.1298 -0.3233
 6426W        W22235  14.217   3.889   3.616  0.1391 -0.1769  0.1692
 6427W        W22236  16.690   0.844   0.681 -0.0820  0.0389 -0.2168
 6428W        W22237   2.876   4.391  11.993 -0.2065 -0.0811  0.0346
 6429W        W22238   6.947   6.159   4.602 -0.0085 -0.4222  0.2511
 6430W        W22239  13.597  17.305  14.285  0.1444  0.1357  0.0811
 6431W        W22240   6.909  17.907  10.841 -0.0573 -0.0760 -0.2074
 6432W        W22241   2.139  10.999  11.863 -0.1532  0.2650 -0.1775
 6433W        W22242   0.693  13.677  11.632 -0.0577 -0.3379 -0.0099
 6434W        W22243   7.305   9.837  12.874 -0.0378  0.2613 -0.0326
 6435W        W22244   4.145  11.180  15.170 -0.0356 -0.4291 -0.0616
 6436W        W22245   8.004  11.768  11.871 -0.3652  0.2888 -0.1306
 6437W        W22246   5.708  11.089   1.859  0.1082 -0.1200 -0.2762
 6438W        W22247   9.596   4.909   1.703 -0.0268  0.0413  0.2124
 6439W        W22248   5.289   8.987   1.022 -0.4603  0.1462 -0.1809
 6440W        W22249  13.523   8.266  14.635 -0.1794 -0.2912  0.2274
 6441W        W22250   1.748  16.002   4.464  0.0531 -0.0070 -0.2000
 6442W        W22251   8.104   9.334   1.169  0.4058 -0.0123  0.1399
 6443W        W22252   9.428  10.284   0.050  0.0922 -0.0007 -0.1537
 6444W        W22253   2.609  10.017   1.491 -0.2010  0.0063 -0.0204
 6445W        W22254  17.705   9.961  13.996 -0.1347  0.1188 -0.3470
 6446W        W22255  11.552   2.352   0.169  0.0923  0.3341 -0.1253
 6447W        W22256  11.797  10.200  14.150 -0.0032 -0.0131  0.0264
 6448W        W22257  12.291  18.004   3.112  0.1301 -0.1468  0.3662
 6449W        W22258  16.168  16.286   1.524 -0.0485 -0.1757  0.0937
 6450W        W22259  18.219  17.904  13.026  0.2743  0.5899  0.1770
 6451W        W22260  15.563  10.593   2.194  0.1065  0.3880 -0.0542
 6452W        W22261   0.948   8.992  13.620  0.1200 -0.1160 -0.0601
 6453W        W22262  11.253   7.802  13.180  0.0246  0.3119  0.1356
 6454W        W22263   8.763   3.959  15.284 -0.0170  0.0691  0.2392
 6455W        W22264   7.990  10.336   1.796  0.0226 -0.4185 -0.1283
 6456W        W22265  12.519  10.146  15.292  0.3482  0.2642 -0.1496
 6457W        W22266   0.302  14.301  13.033  0.0630  0.1301 -0.0503
 6458W        W22267  16.223   4.546   3.886 -0.0491 -0.0216 -0.1391
 6459W        W22268  13.889  10.930   3.845 -0.0399 -0.1080  0.2444
 6460W        W22269  12.869  17.986   4.814 -0.1173  0.1608  0.2678
 6461W        W22270  16.597   5.033  15.221  0.0727  0.0274  0.1552
 6462W        W22271   8.521  18.086   3.772  0.1842 -0.1115  0.1210
 6463W        W22272   5.139   7.203   5.178  0.0471 -0.1431 -0.2693
 6464W        W22273   8.886   4.200  14.808  0.0274  0.2539 -0.1726
 6465W        W22274  15.867   7.606   4.719  0.3442 -0.0812  0.0434
 6466W        W22275  12.890   2.489   5.541 -0.0217 -0.1024  0.0335
 6467W        W22276   1.736  17.963  11.281  0.0280  0.0998  0.0557
 6468W        W22277   7.201  14.097  11.025  0.0223  0.0136 -0.2288
 6469W        W22278  17.027  13.743  12.495  0.0405  0.1984  0.2397
 6470W        W22279  11.727  10.183   2.115 -0.2392  0.0467  0.2757
 6471W        W22280   4.437  14.374  13.870 -0.0310  0.3008  0.0110
 6472W        W22281   5.551  17.406  12.547 -0.2073 -0.1194  0.3153
 6473W        W22282   0.149   2.641   2.379  0.1576  0.1985  0.2460
 6474W        W22283  18.172   5.848  12.253 -0.0301 -0.2088  0.0013
 6475W        W22284  17.564  12.794  11.255 -0.1719  0.0023  0.0691
 6476W        W22285  16.528   0.590   3.668 -0.2584  0.3311  0.0709
 6477W        W22286   8.509   3.546  15.537  0.5332 -0.2744  0.0968
 6478W        W22287  10.040   7.561   0.609  0.2810  0.1219  0.3754
 6479W        W22288   2.522   2.920  11.449  0.0512 -0.5969 -0.0200
 6480W        W22289  15.597  11.494  12.612 -0.0408 -0.1928  0.1113
 6481W        W22290  17.603   6.380  10.913  0.1465 -0.0214 -0.1787
 6482W        W22291   2.673  15.848  14.214  0.0949 -0.1130 -0.3303
 6483W        W22292  13.434   0.271   1.018 -0.0874  0.1658 -0.1538
 6484W        W22293   5.602   5.629   3.309 -0.0718  0.0335  0.0207
 6485W        W22294  10.759   8.003  11.347 -0.1532  0.1795  0.2766
 6486W        W22295  11.541   1.201   4.077 -0.1032 -0.0158  0.0877
 6487W        W22296   7.105   4.249  11.215 -0.1945  0.0350  0.1028
 6488W        W22297  10.042   2.618   2.973  0.1263 -0.0782  0.0449
 6489W        W22298   2.619  10.458   2.957 -0.2948  0.2348 -0.1102
 6490W        W22299   5.039   5.592   1.081  0.1663  0.0952 -0.4911
 6491W        W22300   3.024  12.924   3.621 -0.0226  0.1757 -0.0981
 6492W        W22301   6.147   9.737  12.166 -0.0305 -0.2147 -0.2895
 6493W        W22302   5.689   6.473   3.616 -0.1914  0.0424 -0.0792
 6494W        W22303  11.586   4.434   2.615 -0.5805 -0.0124 -0.2541
 6495W        W22304  14.424  14.261  14.926  0.3543 -0.2101  0.2321
 6496W        W22305   4.756   0.722   0.012  0.2728 -0.0728  0.3497
 6497W        W22306   7.750   2.170   2.705  0.1027  0.0003  0.3358
 6498W        W22307  13.880   2.502  12.555 -0.2320  0.2274 -0.0154
 6499W        W22308   7.789  16.422   5.768 -0.3546  0.2982 -0.0050
 6500W        W22309  14.593   7.302   4.898 -0.0511 -0.0039  0.1617
 6501W        W22310  18.174   5.264  14.424  0.1354 -0.0145 -0.3752
 6502W        W22311   1.979  13.760   3.585  0.0709 -0.2110 -0.3159
 6503W        W22312  11.439   2.263   2.007 -0.1979  0.1290 -0.1926
 6504W        W22313  17.896   7.894  10.783 -0.0249  0.0999 -0.0175
 6505W        W22314   8.362  13.924  11.229 -0.3325 -0.1658  0.0590
 6506W        W22315   8.383  12.630  15.975  0.1196 -0.2314  0.0665
 6507W        W22316   3.217   0.047  13.351  0.4338 -0.3567 -0.1471
 6508W        W22317  17.590   3.730   0.413 -0.1997 -0.1129 -0.0638
 6509W        W22318  18.174  17.128  12.011 -0.0335 -0.0618  0.0694
 6510W        W22319  12.669   8.362   2.215  0.0033 -0.4082 -0.0062
 6511W        W22320   4.127   2.553   4.477 -0.3083 -0.0029 -0.0469
 6512W        W22321  12.432  10.270   5.276 -0.1868 -0.2150  0.2504
 6513W        W22322   3.135   8.250  13.373  0.2252  0.2058 -0.4898
 6514W        W22323  18.173   5.516  11.001  0.0929  0.0616 -0.1874
 6515W        W22324   6.877   1.392   1.992  0.2308  0.4664  0.1208
 6516W        W22325   4.748  12.777  10.874  0.0799 -0.0718 -0.0308
 6517W        W22326  13.383   9.274   1.805  0.0244  0.0692  0.0877
 6518W        W22327   3.820   6.967   4.976 -0.4445  0.0855 -0.0719
 6519W        W22328   6.293   8.999  11.536  0.0891 -0.0890  0.0392
 6520W        W22329  15.616   0.073   3.388  0.5471 -0.0477 -0.0334
 6521W        W22330   4.559   4.279   2.804  0.0360 -0.1810 -0.1202
 6522W        W22331   5.447   8.062  13.229  0.0203 -0.2407 -0.2246
 6523W        W22332   7.600  12.619   0.685 -0.1429 -0.0215 -0.2729
 6524W        W22333   5.885  13.429   4.389 -0.0727 -0.2235  0.3821
 6525W        W22334   6.123   6.766  10.894 -0.1001  0.0675  0.1203
 6526W        W22335   7.088  10.103  15.432 -0.2568 -0.0519  0.4172
 6527W        W22336  16.863  12.690   3.240  0.0277  0.1314 -0.1290
 6528W        W22337  13.562   4.144  15.658  0.0769  0.2828 -0.2420
 6529W        W22338  13.745   3.828  12.462  0.2248  0.1619 -0.2965
 6530W        W22339   3.370  17.165   2.175 -0.0578  0.3798 -0.0922
 6531W        W22340   0.074  14.650  11.176 -0.1294 -0.2524 -0.0505
 6532W        W22341   5.882  15.716  14.916  0.2259 -0.2933  0.2274
 6533W        W22342   4.600   6.037  12.516 -0.0592  0.1145 -0.2792
 6534W        W22343   9.017  13.664  14.603  0.4107 -0.2647  0.0872
 6535W        W22344   0.653  14.718   4.462 -0.0315 -0.1264 -0.0286
 6536W        W22345  17.428   2.357   4.461 -0.3237 -0.1083 -0.0210
 6537W        W22346   2.674   1.162   4.395  0.2781  0.4304  0.1716
 6538W        W22347  15.031   7.124   4.085 -0.1317 -0.2242 -0.2536
 6539W        W22348  11.230   7.275   2.516  0.1476 -0.0490  0.0222
 6540W        W22349   5.196   4.968  13.107  0.0050 -0.0042 -0.0780
 6541W        W22350   2.029   2.661   1.009 -0.1051  0.1650 -0.3089
 6542W        W22351   7.254   1.845  14.180  0.1755 -0.0586 -0.0174
 6543W        W22352   5.695   7.324  14.392  0.1192  0.2960 -0.0271
 6544W        W22353  17.802  13.659  15.695 -0.0030 -0.3029  0.2200
 6545W        W22354   3.877  10.418   1.486  0.1246 -0.1406 -0.3455
 6546W        W22355  10.159   6.525   2.401 -0.1250 -0.0643 -0.1773
 6547W        W22356  14.852  12.943  15.838  0.0779 -0.0303  0.2489
 6548W        W22357  16.976   0.553   1.011  0.1522 -0.1860 -0.0764
 6549W        W22358  15.846  17.947   5.418 -0.1050  0.0692 -0.3493
 6550W        W22359   4.774   5.586   4.506  0.1385  0.4176  0.1205
 6551W        W22360   9.998  15.741   1.353  0.0369  0.0053  0.2129
 6552W        W22361   3.230   7.463   5.498 -0.1184  0.3881 -0.2520
 6553W        W22362  13.705   6.930   4.569 -0.0998 -0.0979  0.3837
 6554W        W22363  17.153  17.016   2.347  0.1385  0.0908 -0.0244
 6555W        W22364  16.425  12.548   0.124  0.0149  0.3950  0.1023
 6556W        W22365   3.375   6.656  12.265  0.0021  0.0270 -0.1294
 6557W        W22366  15.019  16.349   4.364 -0.0947  0.0107 -0.0492
 6558W        W22367  14.993  12.726   4.190  0.0287 -0.1881 -0.1110
 6559W        W22368  13.566  14.344  14.886  0.0152 -0.2862  0.0724
 6560W        W22369  10.464  11.582   2.094 -0.0906 -0.0404  0.1391
 6561W        W22370   2.887  12.283  12.074  0.3133  0.1255  0.1683
 6562W        W22371  15.137  15.892   1.613  0.0556 -0.0103 -0.3259
 6563W        W22372  17.756   2.652   2.140  0.0404  0.0401 -0.1981
 6564W        W22373   3.578  10.822   1.493  0.0064  0.0099 -0.0293
 6565W        W22374   6.236   7.633   1.158 -0.0964  0.2752  0.1211
 6566W        W22375  11.927  15.524  14.640  0.0504  0.2626 -0.0093
 6567W        W22376  10.081   8.107   3.197 -0.0448  0.2738  0.0346
 6568W        W22377  10.741   7.620   2.433 -0.2363 -0.0504 -0.0135
 6569W        W22378   7.241  15.017   5.250  0.2468  0.1981 -0.0284
 6570W        W22379  17.152  13.052  11.117 -0.0031 -0.2417 -0.0100
 6571W        W22380   9.706  16.632   1.787  0.2740 -0.0254  0.0523
 6572W        W22381   7.432  13.661   1.058  0.1001 -0.0409 -0.2762
 6573W        W22382   2.002   7.193   2.991  0.2698  0.1082 -0.1537
 6574W        W22383   5.081   0.807  15.192 -0.3382  0.2548 -0.2294
 6575W        W22384   3.024  11.847  11.221  0.1779  0.1951 -0.1561
 6576W        W22385   2.641  17.284   1.429 -0.2635 -0.0161 -0.0780
 6577W        W22386  14.615  16.281   2.596 -0.0347 -0.0273  0.0999
 6578W        W22387  10.811   3.570  15.076 -0.1054  0.2227 -0.1856
 6579W        W22388  14.786  11.864  14.461  0.0188 -0.2050 -0.1747
 6580W        W22389   7.082   6.699   3.477 -0.3804  0.1594  0.0781
 6581W        W22390   0.051   1.810   5.394 -0.0445  0.0584 -0.1179
 6582W        W22391  16.574  12.419  14.737  0.0879 -0.0957 -0.0925
 6583W        W22392   1.014  15.465   0.397 -0.3237 -0.3379  0.1879
 6584W        W22393  11.154   2.106   3.575 -0.0171 -0.1215  0.0426
 6585W        W22394  16.454  18.239  10.938 -0.1225  0.2930 -0.0616
 6586W        W22395  14.969   4.068  13.159  0.2421 -0.2121  0.0159
 6587W        W22396  11.426  11.557  15.351  0.0224  0.1863  0.1381
 6588W        W22397   4.680   5.579   2.361  0.0639 -0.1959 -0.1053
 6589W        W22398   2.930   5.352   1.957 -0.2643  0.0890 -0.1956
 6590W        W22399   8.499  15.353  10.819  0.1813  0.0256 -0.2402
 6591W        W22400  17.101  16.921   0.995  0.0689 -0.0895 -0.2340
 6592W        W22401   3.732  14.201   2.950 -0.1774  0.0855  0.1993
 6593W        W22402   0.866   3.028   0.423  0.1761 -0.0876 -0.0629
 6594W        W22403  13.328  12.362  15.820 -0.2132 -0.3792  0.1026
 6595W        W22404  13.632   0.901  13.397  0.1246 -0.0397  0.1856
 6596W        W22405   5.139  16.315   6.559  0.1767  0.0890 -0.0162
 6597W        W22406  10.184  17.677   1.182  0.2642 -0.2054 -0.2861
 6598W        W22407   3.453   9.566  15.414 -0.2158  0.2245  0.1244
 6599W        W22408   7.236  12.550  14.907  0.0405  0.0949  0.1297
 6600W        W22409   2.116  16.051   0.776  0.2154  0.1256 -0.1007
 6601W        W22410   5.864   8.159   4.724  0.1263  0.0067 -0.0239
 6602W        W22411   9.643  15.233   3.557 -0.0050 -0.0502 -0.0182
 6603W        W22412  11.057  17.708   2.761 -0.0846  0.0133  0.1202
 6604W        W22413   7.178   2.190  12.992  0.1559  0.0758 -0.2314
 6605W        W22414  14.163   5.586   3.114 -0.3199 -0.2725 -0.0568
 6606W        W22415  11.531   9.692   5.346  0.1613 -0.0873  0.0073
 6607W        W22416  11.833  16.134  13.762  0.0338  0.2760 -0.0662
 6608W        W22417   7.410   1.426  11.783  0.1813  0.3026 -0.0158
 6609W        W22418  12.820  10.045   4.951  0.1248 -0.0913  0.0796
 6610W        W22419  15.323  13.428   0.654  0.1895  0.1094 -0.2480
 6611W        W22420  15.235   1.054   3.560 -0.2662  0.0688  0.3623
 6612W        W22421  10.950  18.226  15.863 -0.0493 -0.3263 -0.2943
 6613W        W22422  18.082   8.838   4.022 -0.1683  0.3069  0.0777
 6614W        W22423  10.634   9.740   5.653  0.2372 -0.1892  0.1397
 6615W        W22424   4.476   1.300   5.389 -0.2371  0.0270  0.1229
 6616W        W22425   4.927   5.566  15.971 -0.0315 -0.0910  0.1824
 6617W        W22426   8.942   6.432  14.477 -0.1483  0.0351  0.0317
 6618W        W22427  15.092   1.500   0.348 -0.4164 -0.2353 -0.0843
 6619W        W22428  17.012  14.164  14.185  0.0741 -0.0338 -0.1161
 6620W        W22429  15.347   5.348  15.898 -0.0833 -0.1917 -0.0649
 6621W        W22430  11.123   9.575   4.141 -0.0443 -0.0832 -0.2075
 6622W        W22431  13.056  12.926  15.203 -0.1809 -0.4017 -0.0062
 6623W        W22432  15.144   5.446   0.310 -0.1531 -0.4541  0.2625
 6624W        W22433   3.267   5.931   0.805  0.0847 -0.1195 -0.1168
 6625W        W22434  13.781  10.743   2.963 -0.1616 -0.0091  0.1360
 6626W        W22435   7.186  11.643  12.008  0.1023  0.1014  0.0037
 6627W        W22436   6.241  12.982   4.467  0.0356 -0.1002 -0.0625
 6628W        W22437  10.551   4.334  11.352 -0.0114  0.1714 -0.1837
 6629W        W22438  10.131   6.534   4.486 -0.1009 -0.0134 -0.0133
 6630W        W22439  16.023   8.560   2.825  0.1306  0.2212 -0.0618
 6631W        W22440   2.424   8.457   3.861 -0.0002  0.0112 -0.0095
 6632W        W22441   7.283   2.323  11.580 -0.1175  0.0146  0.2000
 6633W        W22442   8.009   9.557  15.030  0.0139  0.0012 -0.2732
 6634W        W22443   7.256  16.397  13.669  0.0966  0.1702 -0.1025
 6635W        W22444  11.273  14.716   4.544 -0.2269  0.0339 -0.2451
 6636W        W22445   6.454   2.484   1.196 -0.0156  0.0258  0.0019
 6637W        W22446  16.131  12.676  14.852 -0.0036  0.2911 -0.0272
 6638W        W22447   8.101  17.077  12.132  0.0723 -0.0985 -0.0197
 6639W        W22448   4.645  11.899  13.944 -0.1265  0.0658  0.2129
 6640W        W22449  10.590  14.065   0.085  0.0118  0.1327  0.0118
 6641W        W22450  16.033   5.277   0.944  0.0090 -0.2394  0.0543
 6642W        W22451  17.060   6.225  15.111 -0.1437  0.0742  0.0272
 6643W        W22452   1.039   5.515  14.815  0.2743 -0.1687  0.0746
 6644W        W22453  12.447   7.045   3.350  0.3478 -0.1214 -0.1424
 6645W        W22454   5.326  11.674  13.267  0.0039 -0.1252  0.0845
 6646W        W22455   2.129   8.755   4.654  0.0924 -0.2108  0.2344
 6647W        W22456  10.399  13.335   4.785 -0.0593  0.0714  0.0999
 6648W        W22457   0.010   3.390   4.105  0.2688 -0.3017  0.2445
 6649W        W22458  16.250   6.127   1.274  0.0016  0.1446 -0.1791
 6650W        W22459  13.125  17.469  13.445 -0.4986 -0.0963  0.1032
 6651W        W22460   3.906  16.470  11.032  0.1655  0.0037  0.0840
 6652W        W22461  11.223   0.162  15.494 -0.0984 -0.1088 -0.0931
 6653W        W22462   6.008  11.902   5.090 -0.0255 -0.3383 -0.2327
 6654W        W22463  10.887  10.825  14.946 -0.0874  0.2683  0.0186
 6655W        W22464   7.414  16.319  12.631 -0.2656  0.1075 -0.0652
 6656W        W22465   0.930   9.915   0.512  0.3610  0.1889 -0.1627
 6657W        W22466   2.604  11.526  11.409  0.2403  0.1322  0.0818
 6658W        W22467   5.802  11.029  15.761 -0.0994  0.1289 -0.0371
 6659W        W22468   7.266   2.011   2.766 -0.0184  0.3137 -0.0361
 6660W        W22469  12.514  18.053   3.542 -0.2181  0.0086  0.3564
 6661W        W22470   3.301   5.666  11.496 -0.3102 -0.2873 -0.2077
 6662W        W22471  10.963   8.874  12.473 -0.1797  0.2354 -0.4347
 6663W        W22472   8.238  16.415   1.997 -0.1158  0.1768  0.3126
 6664W        W22473  12.468  16.510   1.461 -0.0384 -0.2026 -0.2354
 6665W        W22474   7.090  11.482   3.833  0.0406 -0.0037  0.0030
 6666W        W22475  15.047   1.957   5.267  0.1285  0.0234 -0.0740
 6667W        W22476   2.529  13.634  11.291 -0.2625  0.0283  0.1658
 6668W        W22477  18.214   0.333  12.147 -0.2226 -0.2122 -0.1009
 6669W        W22478  12.904   7.105  11.307  0.3912 -0.1358  0.0888
 6670W        W22479   9.185  17.846   4.960  0.0625 -0.2969  0.1034
 6671W        W22480   0.889  13.373  14.489 -0.0493 -0.1703  0.3450
 6672W        W22481   3.988  14.621  11.336 -0.0180 -0.3396 -0.0922
 6673W        W22482   8.301  15.908   4.111  0.2253 -0.1057 -0.0984
 6674W        W22483  11.315   3.490   4.959 -0.1405 -0.1449 -0.1846
 6675W        W22484   6.432   4.621  12.218 -0.0882  0.1514 -0.1660
 6676W        W22485   1.151   0.325  10.975 -0.1869  0.0172 -0.1168
 6677W        W22486  13.535  13.271  15.911 -0.0107 -0.0930 -0.1658
 6678W        W22487   3.061  18.257  10.765 -0.0763 -0.1598 -0.1933
 6679W        W22488  13.477   5.453   1.868 -0.2481  0.0013 -0.0091
 6680W        W22489  16.084   7.217  11.154  0.0246  0.2260 -0.0822
 6681W        W22490   4.093   2.079  10.078 -0.0530  0.0001  0.1849
 6682W        W22491  12.737   7.902  13.019 -0.2096  0.0670 -0.0080
 6683W        W22492  14.230   3.840  11.547 -0.0510 -0.0945 -0.2621
 6684W        W22493  10.988  13.970  11.355 -0.1813  0.1216 -0.2498
 6685W        W22494  13.256   7.523   5.426  0.0803  0.0917  0.0779
 6686W        W22495  14.900  11.064   1.673  0.3543  0.2454  0.0598
 6687W        W22496  11.157   6.023   0.965 -0.2161 -0.0957 -0.1393
 6688W        W22497   0.674   5.813   0.075  0.0294 -0.2155  0.2291
 6689W        W22498   5.988  16.082   4.157  0.1473 -0.0026 -0.1450
 6690W        W22499   4.175   9.776   3.737 -0.1417  0.0892 -0.0704
 6691W        W22500   1.516   0.462   1.235 -0.0415 -0.2244 -0.2002
 6692W        W22501  11.177   6.842   0.143 -0.4422  0.0972  0.2233
 6693W        W22502   0.001   7.699  15.917 -0.0965  0.2828 -0.1196
 6694W        W22503  12.982   0.389  12.481 -0.0714 -0.0829 -0.2622
 6695W        W22504   0.301  11.981   1.997 -0.2143 -0.2659 -0.1681
 6696W        W22505   0.763  14.647  13.850  0.0028  0.2825  0.1139
 6697W        W22506  14.066  12.290   2.712  0.0732  0.3776  0.1329
 6698W        W22507   7.611   9.447   2.418 -0.3065  0.1289  0.0614
 6699W        W22508  11.040   7.624  12.786  0.2943 -0.0387  0.2387
 6700W        W22509  15.561   1.932  15.781  0.2500 -0.0010 -0.0173
 6701W        W22510  13.435   0.453  11.055  0.4341 -0.0904  0.1547
 6702W        W22511  11.620  13.106   4.173 -0.1821 -0.2788 -0.1161
 6703W        W22512  14.421   0.654   3.135 -0.0210 -0.1080  0.1140
 6704W        W22513   0.189   5.249   4.466 -0.0543  0.0057  0.2712
 6705W        W22514   9.571   1.489  13.945 -0.0269 -0.0972  0.0575
 6706W        W22515  10.408  10.893  13.058  0.1656  0.0584 -0.2604
 6707W        W22516   9.244  13.184  14.257 -0.0122  0.1353 -0.1797
 6708W        W22517   9.654  17.399  12.629  0.1755  0.0604  0.0409
 6709W        W22518  14.965   9.632  14.849  0.0998  0.2529  0.0293
 6710W        W22519   2.519   7.267  10.476  0.1177  0.0441  0.2237
 6711W        W22520   6.749  17.384  14.774  0.1330  0.3218  0.4340
 6712W        W22521   6.086   4.421   4.510  0.1722 -0.0640 -0.0402
 6713W        W22522  12.404   4.963   0.441  0.2366 -0.0087 -0.2152
 6714W        W22523  13.668  15.730  11.493 -0.0072  0.0039  0.1526
 6715W        W22524   6.014   6.631  13.378 -0.0083  0.0147  0.0203
 6716W        W22525   2.649   6.186  10.815  0.0613 -0.0639  0.1211
 6717W        W22526   0.761  11.143   3.020 -0.1454 -0.0888  0.1279
 6718W        W22527   3.511  16.283   0.181  0.1208  0.0299  0.0725
 6719W        W22528  15.886  17.894   4.579  0.0037 -0.1845  0.0612
 6720W        W22529  16.973  13.973  13.265 -0.1418  0.2425 -0.0022
 6721W        W22530  16.157   7.902   3.934 -0.2291  0.1468  0.2030
 6722W        W22531   7.815   6.090   2.614  0.0321  0.4310  0.0872
 6723W        W22532  15.621   1.171   2.257 -0.3038  0.1529  0.2364
 6724W        W22533  11.105  17.307  14.661 -0.0950  0.1380 -0.0409
 6725W        W22534   8.334   1.961   1.850 -0.1310 -0.0592  0.0063
 6726W        W22535  13.320  16.115   1.926 -0.1655  0.0806 -0.2012
 6727W        W22536  16.595   2.879   0.952  0.2041 -0.0548 -0.0749
 6728W        W22537  10.400   1.157   3.751 -0.3575 -0.0626  0.1896
 6729W        W22538  15.829  16.959   6.102 -0.0014  0.0690  0.1872
 6730W        W22539  10.112  14.590   2.369 -0.0440  0.1587  0.0548
 6731W        W22540  10.077   0.753   4.505  0.2144  0.4561 -0.0809
 6732W        W22541  13.039   9.654   4.184  0.0683 -0.2912  0.0015
 6733W        W22542   1.314  12.050  12.292 -0.2333  0.2433  0.1720
 6734W        W22543   3.187   0.210   3.761 -0.5233 -0.0213 -0.1602
 6735W        W22544   8.509   2.787  11.180  0.0635  0.2057 -0.0059
 6736W        W22545  11.520   3.712   1.670 -0.0556  0.3980 -0.0386
 6737W        W22546  15.578   0.128   0.823 -0.2675  0.1028 -0.2950
 6738W        W22547  15.948  13.185  12.027 -0.2309  0.1318 -0.3632
 6739W        W22548   9.236   6.667   2.768  0.0029 -0.0589 -0.0219
 6740W        W22549  12.572  11.448   5.430 -0.0586  0.1025  0.0859
 6741W        W22550  12.397  17.535  15.718 -0.1183 -0.2483  0.1050
 6742W        W22551   6.782   1.980  15.803 -0.0584 -0.0834  0.0591
 6743W        W22552  12.929  13.570   1.964 -0.0865  0.0631 -0.1518
 6744W        W22553   4.738  18.199  16.042 -0.1767  0.1728  0.3444
 6745W        W22554  11.527   7.387  12.186 -0.1491 -0.0120  0.1543
 6746W        W22555  18.050  18.163  11.881 -0.0944  0.0872 -0.0582
 6747W        W22556  13.639  10.627   5.004 -0.0320  0.2042  0.1217
 6748W        W22557  17.896  14.242   5.924  0.0946 -0.0063  0.3790
 6749W        W22558   9.906  17.572   5.815  0.0184  0.0068 -0.0098
 6750W        W22559  15.935  11.840  11.091  0.2205 -0.5905 -0.1169
 6751W        W22560  17.829   3.611   3.911 -0.1556 -0.0938  0.0421
 6752W        W22561  12.461   7.136  11.113  0.0928  0.0017 -0.0119
 6753W        W22562  11.755   5.666   0.835 -0.0056  0.1135  0.2481
 6754W        W22563  15.511  12.377   5.608 -0.0125 -0.2338 -0.0129
 6755W        W22564   9.599   7.662  14.519 -0.0484 -0.0509  0.1013
 6756W        W22565   5.625   1.431   3.679 -0.2317  0.1271  0.0059
 6757W        W22566  15.154   3.790   3.747  0.2996  0.0276  0.1582
 6758W        W22567  16.512   7.893  13.607 -0.2009 -0.1888 -0.2824
 6759W        W22568   7.952   8.337  14.612  0.0931 -0.0856 -0.1976
 6760W        W22569   4.181   0.443  15.343  0.0042  0.1798  0.4042
 6761W        W22570   6.271   8.036  15.357  0.2022 -0.0541 -0.2835
 6762W        W22571   8.254  14.013  11.713 -0.1972  0.0907  0.1168
 6763W        W22572  13.797   0.780   1.894  0.1679  0.0124 -0.0611
 6764W        W22573  18.032   7.849   2.301  0.1091  0.0872 -0.1602
 6765W        W22574  17.873   7.504  13.008 -0.0450  0.2349 -0.1546
 6766W        W22575  12.958   5.028   6.537 -0.0410  0.1035  0.0196
 6767W        W22576  17.031   0.827  15.271 -0.0390  0.1227 -0.2243
 6768W        W22577   8.763  10.070  13.822 -0.0217 -0.1115 -0.0946
 6769W        W22578  11.514   7.300   5.296 -0.3371  0.1440  0.3146
 6770W        W22579   4.032   8.661  14.511  0.0155 -0.1264 -0.0038
 6771W        W22580  15.701  18.247   2.416 -0.2856  0.2477  0.4016
 6772W        W22581  17.255  11.013  14.606  0.0064  0.0826 -0.0034
 6773W        W22582  13.811  11.901   3.502  0.0807 -0.0362  0.1264
 6774W        W22583  13.109   8.479   4.464  0.1342 -0.2159  0.1755
 6775W        W22584  10.521   9.521   1.114  0.2118  0.1340 -0.0528
 6776W        W22585  15.354   6.749   2.686  0.2135  0.1081 -0.1823
 6777W        W22586   3.320  14.353   5.838  0.1349  0.0176 -0.2071
 6778W        W22587   9.971   4.896  14.934 -0.0971  0.1005  0.0181
 6779W        W22588  12.628   0.784   4.765  0.2332  0.0198  0.0641
 6780W        W22589   5.081   3.423   1.306 -0.0599 -0.1199  0.0531
 6781W        W22590  11.744   9.481   3.393 -0.0720 -0.2185 -0.3131
 6782W        W22591  16.228  11.545   4.970 -0.0238 -0.3709  0.0466
 6783W        W22592   0.910   3.328  13.062 -0.2870 -0.2882 -0.3276
 6784W        W22593  15.413   1.763  15.345 -0.1594 -0.2490  0.2033
 6785W        W22594  14.658  13.594   4.590 -0.3367  0.3562  0.0853
 6786W        W22595   3.131   3.905  12.493 -0.2064  0.2649  0.1552
 6787W        W22596  15.982   7.002  13.198  0.0372 -0.3081 -0.0898
 6788W        W22597   2.070   6.673   3.143  0.0526  0.1582  0.1928
 6789W        W22598   4.120   2.397  13.896  0.2861 -0.0622  0.2925
 6790W        W22599   3.562   5.687  16.064  0.1457 -0.0107  0.1079
 6791W        W22600   5.232   9.894  12.117  0.0046 -0.1895  0.0356
 6792W        W22601   1.141   2.958   2.105  0.1992 -0.0505 -0.1211
 6793W        W22602   2.418  13.039   2.894 -0.0101  0.1569  0.3205
 6794W        W22603   8.273   7.175  14.450  0.0914 -0.0481 -0.0481
 6795W        W22604  10.453  10.286  13.241 -0.0132  0.2682  0.1778
 6796W        W22605  16.731  14.784  13.500  0.1920 -0.1833  0.0691
 6797W        W22606  16.702  15.868   2.008  0.0114 -0.1375 -0.1124
 6798W        W22607   6.741  17.934   1.086 -0.0848 -0.0567 -0.0282
 6799W        W22608   7.052   2.038   0.699 -0.3423 -0.4530 -0.0229
 6800W        W22609   3.325   2.173   3.741 -0.1225 -0.1170  0.0525
 6801W        W22610  10.265   4.046  11.689  0.0468  0.2475  0.0967
 6802W        W22611  13.112  15.256   1.369 -0.0945  0.1362  0.7707
 6803W        W22612  17.087   6.546   3.110  0.2251 -0.1228 -0.2733
 6804W        W22613  11.655  16.570  14.382 -0.1865  0.0316  0.1944
 6805W        W22614  14.735  13.104   0.235  0.1931 -0.1064  0.1720
 6806W        W22615   8.222  11.898  13.690 -0.0463 -0.3212  0.0312
 6807W        W22616  16.364   2.339   2.686  0.0409 -0.0489  0.0405
 6808W        W22617   3.348   0.822   3.159  0.0841 -0.0707  0.0205
 6809W        W22618   3.843   7.448   0.567 -0.0207 -0.2292  0.1769
 6810W        W22619   4.397   5.169   4.266  0.0559  0.2118  0.1353
 6811W        W22620   2.853   4.042  15.888 -0.0156  0.2312  0.2033
 6812W        W22621   2.820   0.747  14.950  0.0675 -0.0115 -0.1317
 6813W        W22622   0.789   6.292  13.174 -0.0940  0.1666  0.0421
 6814W        W22623  12.624   4.590   5.748  0.0425  0.2014  0.0382
 6815W        W22624   2.266   6.339  16.010  0.2890 -0.0113 -0.0438
 6816W        W22625   3.351  10.283   3.571  0.0202 -0.0024  0.1206
 6817W        W22626  11.968   4.094  12.625 -0.0309  0.0320  0.0949
 6818W        W22627   4.391  15.162   4.618  0.1682 -0.0796  0.2421
 6819W        W22628   9.148   3.768  13.000 -0.1687  0.0884 -0.1970
 6820W        W22629   4.213  15.097   0.036 -0.3459  0.0365  0.0226
 6821W        W22630  15.108  17.014  13.348 -0.0298 -0.0821 -0.0921
 6822W        W22631   7.915  15.420  10.210  0.0310  0.2313  0.0763
 6823W        W22632   5.067   4.184   4.320 -0.0717 -0.0685  0.1072
 6824W        W22633   2.366  12.347   0.706 -0.0827 -0.0562  0.1606
 6825W        W22634   2.480  15.317   0.684 -0.0010 -0.1628  0.1278
 6826W        W22635  14.632   0.277   0.386  0.0919  0.2495  0.1995
 6827W        W22636  17.226  16.495   3.065 -0.1445  0.2351  0.2386
 6828W        W22637  15.966  16.880   1.270 -0.1377  0.0153  0.0536
 6829W        W22638   0.974  14.602   3.587  0.0576 -0.0215  0.0302
 6830W        W22639  13.581   5.457  11.645 -0.0704  0.0267 -0.0414
 6831W        W22640  17.458   3.221  15.830 -0.1366 -0.0914  0.0641
 6832W        W22641  12.650  12.317   2.559 -0.0763 -0.0001  0.0526
 6833W        W22642   7.441   9.029  13.241 -0.0406 -0.1416  0.1218
 6834W        W22643   4.847   6.656  15.185  0.1297  0.0146 -0.2233
 6835W        W22644  17.127   9.327  14.522 -0.4281  0.1311 -0.0472
 6836W        W22645  16.038  11.216  12.932  0.1371  0.3056  0.2922
 6837W        W22646   5.102  10.275  10.676 -0.0346 -0.2764 -0.1527
 6838W        W22647   8.524  12.750   0.904 -0.0492 -0.1348  0.0593
 6839W        W22648  17.945  15.666   0.645 -0.0200 -0.1492  0.1821
 6840W        W22649  11.553   0.933   1.455  0.1042  0.0585 -0.0308
 6841W        W22650  16.157  14.062  11.973 -0.1002  0.4128 -0.1298
 6842W        W22651   8.628   0.930   4.880  0.0006 -0.3341  0.0431
 6843W        W22652  13.240  13.368   1.404  0.1901 -0.1696  0.1379
 6844W        W22653  12.132   5.093  16.062  0.1066 -0.1340  0.1350
 6845W        W22654   1.251  14.314  15.057 -0.0813  0.0097  0.4148
 6846W        W22655  13.834   7.191  12.687  0.0913  0.3710  0.2132
 6847W        W22656   9.348   6.116   3.950 -0.1057 -0.2760 -0.1422
 6848W        W22657  11.491   7.162  14.447 -0.0029 -0.0392 -0.0262
 6849W        W22658  10.683   1.384  14.734  0.1282  0.0922 -0.1253
 6850W        W22659  14.216   4.290  14.873  0.0603  0.0403  0.0034
 6851W        W22660   2.860   8.817   5.793  0.0694  0.0169 -0.1591
 6852W        W22661   6.404  17.941   2.353 -0.1188 -0.1514 -0.0362
 6853W        W22662   6.904  13.883  15.184 -0.3251  0.2272  0.1351
 6854W        W22663   9.482  10.731   1.943  0.0219 -0.1660  0.4456
 6855W        W22664   4.112   5.354   1.092  0.0096  0.1801  0.1376
 6856W        W22665   5.472   7.462   3.262 -0.0787 -0.0501 -0.0476
 6857W        W22666   8.200  15.936  13.189  0.0173  0.1589  0.0658
 6858W        W22667   9.342  11.412  15.549  0.1253  0.1114  0.1015
 6859W        W22668  16.305  11.766  15.875  0.1873  0.2003  0.0094
 6860W        W22669   9.066   7.177   2.040 -0.0661 -0.1171 -0.2981
 6861W        W22670  16.573  17.653   1.661  0.0824 -0.1962 -0.2294
 6862W        W22671  16.120   8.524  14.573  0.1862 -0.1038 -0.0813
 6863W        W22672  16.918   2.347   5.437  0.0266  0.0688  0.0259
 6864W        W22673  10.741   2.090   4.712  0.0513 -0.2809 -0.0198
 6865W        W22674  17.150   7.354   5.457  0.1122  0.2050  0.1723
 6866W        W22675  15.267   1.454   4.715 -0.0301 -0.0279 -0.2855
 6867W        W22676   5.840   8.868  14.307  0.0383 -0.2328 -0.0339
 6868W        W22677  13.236  15.565   3.734 -0.0815  0.0885  0.3323
 6869W        W22678  16.703   6.269   1.431  0.0376  0.2310 -0.0579
 6870W        W22679  16.282   4.034   5.335 -0.1590 -0.2431 -0.1877
 6871W        W22680  10.370   0.414  13.546  0.0147 -0.0229  0.0337
 6872W        W22681  17.891  12.131   4.099 -0.0959 -0.3125  0.2434
 6873W        W22682   5.819  12.818  11.284  0.0934  0.0980 -0.2848
 6874W        W22683  14.396   1.476   4.826 -0.1137  0.1315  0.1552
 6875W        W22684  14.092   8.167   4.526 -0.0540  0.2895  0.1613
 6876W        W22685   4.130  13.603   3.977 -0.1854 -0.4062  0.1425
 6877W        W22686   8.693  16.543  15.883  0.0399 -0.0685 -0.1982
 6878W        W22687  11.583  11.924   1.469  0.0688 -0.0754  0.1866
 6879W        W22688  18.165   6.179  11.776 -0.0647 -0.0313 -0.3010
 6880W        W22689  13.751   7.033   1.438 -0.1138 -0.0319 -0.0944
 6881W        W22690  10.056   7.455  11.792 -0.2225  0.1458  0.1533
 6882W        W22691  16.031  13.927   5.483 -0.1528 -0.0532 -0.1258
 6883W        W22692  16.907  13.562  15.526 -0.2333  0.3304  0.1237
 6884W        W22693  13.294   1.135   3.833 -0.1549  0.0704 -0.1026
 6885W        W22694   8.991  12.070   2.144  0.1386  0.2434  0.4018
 6886W        W22695  13.935  17.153   0.915  0.0577 -0.0785  0.2055
 6887W        W22696  12.570   9.914   1.609  0.2091  0.2422  0.2489
 6888W        W22697   7.228   8.824  14.226 -0.0386 -0.0220  0.2118
 6889W        W22698   6.558  10.008   2.919 -0.2593 -0.0512 -0.0209
 6890W        W22699  16.393   1.100  15.926 -0.0059 -0.0863  0.2251
 6891W        W22700   5.949   6.849   3.010  0.1560 -0.0618  0.2567
 6892W        W22701   9.389  12.363  14.956  0.1984 -0.0956  0.0529
 6893W        W22702  11.877  15.629   3.974 -0.0102 -0.1533 -0.0378
 6894W        W22703   7.059  14.158   2.042  0.2900  0.5169 -0.0079
 6895W        W22704  16.485  12.328  10.620  0.0492  0.0403  0.0926
 6896W        W22705   4.340   9.566   1.541 -0.1111  0.1247  0.0952
 6897W        W22706  12.070  16.754   1.736 -0.0232 -0.0621  0.2772
 6898W        W22707   7.456  16.686   2.952 -0.0437 -0.0065  0.2235
 6899W        W22708   2.965   4.938  13.954 -0.1634 -0.0921  0.1724
 6900W        W22709   8.440  16.029   0.025  0.1576  0.0580  0.0322
 6901W        W22710   0.287  17.109  11.239  0.1417  0.1767 -0.0844
 6902W        W22711   5.899   2.802  13.535  0.3128  0.2741  0.2447
 6903W        W22712  18.083   9.033   0.202 -0.1313 -0.0681  0.0570
 6904W        W22713  17.782   7.304   1.357 -0.1407 -0.1274 -0.0782
 6905W        W22714   0.340   9.691  15.594 -0.3461 -0.2995  0.0244
 6906W        W22715   6.136  13.689   3.073 -0.0077  0.0807 -0.2806
 6907W        W22716  12.610   4.556  15.342  0.2214  0.2269  0.1390
 6908W        W22717   5.974   0.120  11.720  0.1521  0.1402  0.0730
 6909W        W22718  10.802  12.080  11.488  0.0521 -0.0645  0.1384
 6910W        W22719   8.041   5.610   3.357  0.0197 -0.1597  0.0248
 6911W        W22720   4.667  10.064  10.489  0.1028  0.0322 -0.0497
 6912W        W22721   3.795  14.658   1.686  0.2609  0.2481 -0.1128
 6913W        W22722  16.955  13.982  11.964 -0.1234  0.3729  0.0022
 6914W        W22723  10.785   7.240   4.281 -0.3710 -0.2041 -0.2057
 6915W        W22724  17.908   0.536   5.338 -0.3736  0.0655 -0.0898
 6916W        W22725   7.757   4.674  11.929 -0.1826  0.1940  0.0432
 6917W        W22726  16.338   5.927  15.254 -0.0296 -0.1093  0.1169
 6918W        W22727   3.276   8.836  12.505  0.0840  0.0915  0.3121
 6919W        W22728   2.359   3.721   3.382  0.0785 -0.2033 -0.1643
 6920W        W22729  18.040  17.765  15.438 -0.0774 -0.1736 -0.2055
 6921W        W22730  16.448   1.990  14.789  0.3519 -0.0218 -0.1823
 6922W        W22731  12.195  12.972   1.696 -0.1165  0.0440  0.1138
 6923W        W22732   9.623  12.619   4.062  0.0174  0.4353  0.1657
 6924W        W22733   0.212  10.077   1.787 -0.1037  0.0059 -0.0638
 6925W        W22734   5.989   8.673  12.321  0.1089  0.0538 -0.1081
 6926W        W22735   1.110   9.464   0.742 -0.3229 -0.0479 -0.3992
 6927W        W22736  14.994   2.012  15.100 -0.0048 -0.2224 -0.1176
 6928W        W22737   6.542   5.672  14.523  0.0745 -0.0352  0.0152
 6929W        W22738   0.186   1.383   5.077  0.0290 -0.2135  0.0703
 6930W        W22739  10.643   7.840   1.919 -0.1516  0.0617  0.0046
 6931W        W22740   3.785  14.331   1.300 -0.0557  0.5729  0.2333
 6932W        W22741  11.533  13.012   0.525 -0.0150 -0.2237  0.2607
 6933W        W22742  10.057   7.718  15.128  0.0366  0.0421 -0.0594
 6934W        W22743   8.003  12.184  15.009 -0.3134 -0.0557 -0.0928
 6935W        W22744   6.916  14.164   4.725 -0.1112 -0.1518 -0.2799
 6936W        W22745   3.803   5.286   2.877 -0.0104  0.1841  0.1956
 6937W        W22746  16.013  13.830  14.014  0.3881  0.1967  0.1060
 6938W        W22747   4.214   2.231   3.336  0.1524  0.1723 -0.1401
 6939W        W22748   9.933   7.693  13.223 -0.0150  0.0203  0.0205
 6940W        W22749   0.580   3.288   3.283  0.0308  0.2403 -0.3058
 6941W        W22750  13.039  12.599   2.431 -0.0094  0.0931  0.1666
 6942W        W22751  10.867  11.946   4.557 -0.0105  0.0760 -0.0615
 6943W        W22752  11.245   9.105  15.548  0.2379 -0.1674 -0.4329
 6944W        W22753   2.745   1.128  15.825 -0.1654  0.0710 -0.0852
 6945W        W22754   0.843  14.454   5.238 -0.0522 -0.1037 -0.2247
 6946W        W22755   9.137  10.805  13.736  0.1675  0.2150  0.1021
 6947W        W22756   1.298   5.153  12.212  0.0404 -0.0712  0.2273
 6948W        W22757   3.387   4.774  15.020 -0.0157 -0.0511  0.1939
 6949W        W22758   2.546  10.164   0.464  0.2550  0.4646  0.2646
 6950W        W22759  10.205   8.033   4.636  0.0764 -0.0407 -0.0837
 6951W        W22760  14.905   3.841   4.334  0.1454  0.1849  0.0459
 6952W        W22761  14.814  14.947   0.466  0.0279 -0.0483 -0.1905
 6953W        W22762  17.056   1.688   3.050  0.0210 -0.1302  0.1785
 6954W        W22763  12.465  11.725  13.026 -0.2404  0.2403  0.1510
 6955W        W22764   3.930  16.670  15.390  0.1303  0.0234  0.0992
 6956W        W22765  15.724  11.849  14.726  0.1929 -0.5114 -0.0558
 6957W        W22766   3.401  12.903  12.529  0.1525  0.4445  0.0041
 6958W        W22767  16.060   4.499  15.690 -0.0142  0.0490 -0.0212
 6959W        W22768  14.932  10.010   2.541  0.0152 -0.0799  0.1222
 6960W        W22769   6.877  11.731   0.391  0.2920 -0.2029 -0.0873
 6961W        W22770   9.269   8.526  13.195 -0.0635  0.0985  0.0460
 6962W        W22771  12.889  14.715  13.412 -0.0692  0.0388  0.0393
 6963W        W22772  16.359   8.803  14.935 -0.1969  0.0524 -0.0580
 6964W        W22773   7.318   0.639  14.253 -0.0591 -0.0900 -0.1638
 6965W        W22774  12.458   2.758  13.965  0.1065 -0.1830 -0.2943
 6966W        W22775   4.469   0.739   6.060 -0.0913  0.1177  0.2840
 6967W        W22776  13.364  17.514  12.236  0.0533 -0.0597  0.1743
 6968W        W22777  11.791   6.037   6.119  0.0619  0.1744  0.2462
 6969W        W22778   6.770   5.561  15.857 -0.0100 -0.2228 -0.2083
 6970W        W22779   6.151  17.703   5.700  0.0657  0.0916  0.3468
 6971W        W22780  15.008   0.209  13.714 -0.0419 -0.3581  0.1593
 6972W        W22781   6.894  11.148   2.187 -0.1110  0.2869  0.0680
 6973W        W22782   4.410   4.037  10.276 -0.2239  0.0959 -0.2798
 6974W        W22783   8.592   9.313   2.492 -0.0914  0.0947 -0.1073
 6975W        W22784  12.196  12.151   2.418  0.0442 -0.4529 -0.1002
 6976W        W22785  13.273  13.522   5.138  0.1342 -0.1058  0.1517
 6977W        W22786   1.234  14.931  14.773 -0.0880 -0.0090  0.0992
 6978W        W22787   9.136   0.571   0.633 -0.2265  0.0892  0.0824
 6979W        W22788   3.497   9.058  15.726 -0.0140  0.1692  0.3677
 6980W        W22789   0.292   2.949  14.420  0.0562  0.0351 -0.2373
 6981W        W22790  13.552  12.491  11.219 -0.1996 -0.1770  0.0034
 6982W        W22791  15.741   2.232   4.793 -0.1003 -0.1726 -0.0381
 6983W        W22792  12.325  10.987   4.856  0.0530 -0.3306  0.0119
 6984W        W22793  11.726   9.119  15.222  0.2645  0.3133  0.2199
 6985W        W22794  13.066  11.793   3.650 -0.0811  0.1108 -0.0650
 6986W        W22795   5.075   3.223  15.178  0.0523 -0.1847 -0.0204
 6987W        W22796   7.215   4.874  15.376  0.1665 -0.0358  0.1225
 6988W        W22797  12.558   9.311  11.561 -0.2152  0.0562 -0.1052
 6989W        W22798  11.528   4.962   2.726 -0.1374 -0.1385  0.0643
 6990W        W22799  13.483  15.023   2.559  0.2507  0.1394 -0.2765
 6991W        W22800   8.718   7.622   3.839 -0.2505  0.1554  0.3366
 6992W        W22801   6.606  12.273  12.128 -0.4062 -0.1532  0.1686
 6993W        W22802   2.675   5.135  12.450  0.0464 -0.0623 -0.0878
 6994W        W22803  11.325   1.623   2.802 -0.0840 -0.2162 -0.3150
 6995W        W22804  10.534   1.742   1.470  0.0560  0.3275  0.1936
 6996W        W22805  17.105   5.255   4.715 -0.0926 -0.2658 -0.0034
 6997W        W22806   9.094  13.170   1.474  0.2710 -0.2395  0.0946
 6998W        W22807  12.628  12.789   1.158  0.1658 -0.1555 -0.2979
 6999W        W22808  16.987  15.005   4.735  0.0857 -0.1302  0.0674
 7000W        W22809   9.958  17.019   0.518 -0.0147 -0.0743 -0.0275
 7001W        W22810   7.464   2.123  10.000 -0.1604 -0.0077  0.1368
 7002W        W22811   4.110   4.499  11.458 -0.0020  0.1070 -0.0562
 7003W        W22812  17.692   9.462  13.271  0.0983  0.2773 -0.0116
 7004W        W22813   1.798   1.915  11.940 -0.1429 -0.0409  0.0614
 7005W        W22814  11.937  14.861  11.887  0.1735 -0.0876  0.0929
 7006W        W22815  18.203   2.731   3.324  0.0860  0.2818 -0.2720
 7007W        W22816   2.620  14.937   2.824 -0.0504 -0.1688  0.3715
 7008W        W22817   0.651   6.480   1.241 -0.2384  0.0988  0.0678
 7009W        W22818   8.092  16.713   0.104 -0.4679  0.0424 -0.1530
 7010W        W22819   4.813  16.455   5.076 -0.2146 -0.0997  0.2254
 7011W        W22820  11.397  15.012  14.864  0.1863  0.0444 -0.1764
 7012W        W22821   6.823  11.989   0.990 -0.1277  0.1035 -0.0276
 7013W        W22822   5.499   4.931  12.661 -0.1339 -0.0592 -0.3356
 7014W        W22823   6.207  11.976  13.448 -0.0840  0.0329 -0.2231
 7015W        W22824   6.191  13.835   4.247  0.0741  0.1627 -0.2940
 7016W        W22825   4.744  15.170  10.989 -0.3250  0.0976 -0.0593
 7017W        W22826   6.404   4.315   4.129  0.0073  0.1006  0.0232
 7018W        W22827  16.244  13.545   2.125  0.1356 -0.1839 -0.0001
 7019W        W22828   6.692  10.452  13.358 -0.3651  0.2457 -0.0343
 7020W        W22829   7.796  16.559  14.900  0.0168  0.2644 -0.0797
 7021W        W22830  17.635   7.797  12.657  0.1069 -0.0715  0.1184
 7022W        W22831  16.807  15.120   1.795 -0.1185  0.0704  0.0050
 7023W        W22832  15.829   5.624  13.195  0.1840 -0.0239  0.1093
 7024W        W22833   4.053  18.096   2.660  0.1395  0.2713  0.0996
 7025W        W22834   3.375  13.052   2.010  0.4952  0.0134  0.0130
 7026W        W22835   7.949  18.245   0.787  0.0498  0.0538 -0.1503
 7027W        W22836   8.326   7.507   3.389  0.0630  0.1424  0.1393
 7028W        W22837   0.814   9.186  14.443  0.1129  0.0823 -0.0222
 7029W        W22838   7.032   5.924   0.055  0.1547  0.1438  0.1888
 7030W        W22839   7.459   1.563   3.611 -0.0946 -0.1749 -0.1021
 7031W        W22840   1.919   6.486  10.036 -0.2807  0.1406 -0.2111
 7032W        W22841  14.720  13.026  10.084 -0.0179  0.0222 -0.2304
 7033W        W22842   4.463  15.743  14.524 -0.2285  0.3576  0.2645
 7034W        W22843   9.861  17.106   1.838 -0.2215 -0.0612  0.1971
 7035W        W22844  14.991  12.448   0.097  0.0591  0.0429 -0.2699
 7036W        W22845   8.522   8.973   0.869  0.1501 -0.0551 -0.0310
 7037W        W22846   0.719  14.107   0.959 -0.1982  0.1364 -0.0263
 7038W        W22847  15.157   1.063  11.559 -0.0417  0.1700 -0.1296
 7039W        W22848   1.831  16.566   5.965  0.0469  0.1156 -0.2812
 7040W        W22849  16.789  14.387   2.533  0.0880 -0.1820 -0.4127
 7041W        W22850   2.820   2.022  11.631 -0.0412  0.1903 -0.0221
 7042W        W22851   9.861   3.446  13.494 -0.0261  0.2335 -0.0690
 7043W        W22852   2.323  16.318  15.740 -0.0847  0.2471 -0.2060
 7044W        W22853  12.169   7.437  12.902 -0.0872  0.0072  0.1332
 7045W        W22854  15.840   8.961  14.221  0.0790 -0.2699 -0.2372
 7046W        W22855   5.672   5.522  12.081  0.0504 -0.3321  0.2490
 7047W        W22856   1.793   3.102   2.887  0.1975 -0.0458 -0.0650
 7048W        W22857   9.864  15.093   3.152 -0.0865 -0.3302 -0.2825
 7049W        W22858  14.888   6.331   3.930 -0.1801 -0.0848 -0.1170
 7050W        W22859   4.114   7.188  12.009 -0.0726  0.1229 -0.0246
 7051W        W22860   4.040   9.452   3.380 -0.3426  0.1833 -0.1302
 7052W        W22861   2.289  15.577  13.043 -0.1317 -0.0870  0.2121
 7053W        W22862   7.153   2.778  10.694 -0.0675 -0.3644 -0.1127
 7054W        W22863   8.812   0.334   3.727  0.0743  0.2972 -0.2586
 7055W        W22864   4.281  15.584  15.054 -0.5074  0.0996 -0.2939
 7056W        W22865   7.388  17.669  12.198 -0.2023  0.1169  0.1636
 7057W        W22866  15.976  16.668  15.526 -0.1302 -0.1903 -0.1627
 7058W        W22867   6.571   2.101   5.780  0.2183  0.0019  0.2731
 7059W        W22868   0.663  10.566  12.987 -0.1285  0.0110  0.0394
 7060W        W22869   0.181  10.022  10.244  0.2241 -0.1423 -0.1005
 7061W        W22870  10.430  15.821   1.080 -0.0823  0.1458  0.0115
 7062W        W22871   1.240   1.164   2.421  0.0185  0.0871  0.3525
 7063W        W22872  17.514   3.003  15.206 -0.0128 -0.0388  0.3387
 7064W        W22873   2.691   6.298   0.257 -0.2628 -0.1619 -0.0398
 7065W        W22874   6.237   8.555   3.241 -0.0371 -0.1360 -0.2409
 7066W        W22875   1.846   6.446   1.798 -0.1059 -0.1336 -0.2944
 7067W        W22876   5.857   6.259  15.299 -0.0847  0.0565  0.0340
 7068W        W22877   7.625   1.654   1.533 -0.0649  0.2116  0.3247
 7069W        W22878   0.061  10.770   1.802  0.1640  0.1032  0.1040
 7070W        W22879  16.885   8.439   3.917 -0.0063 -0.0202 -0.2532
 7071W        W22880   3.274   2.385  11.998  0.1311 -0.0693  0.2589
 7072W        W22881  10.682  15.036   3.768  0.2805 -0.3360 -0.4817
 7073W        W22882   5.651   3.194   3.461  0.1661  0.1471  0.1968
 7074W        W22883  11.530   1.516   0.676 -0.1302 -0.3188 -0.1409
 7075W        W22884  11.161   7.508   0.707 -0.0060 -0.2829  0.3286
 7076W        W22885  16.139  11.877   1.442 -0.1488  0.0553 -0.1018
 7077W        W22886   3.793  10.454  12.015  0.0264 -0.1523  0.1242
 7078W        W22887  11.026   2.068  12.717 -0.1043 -0.1134  0.1538
 7079W        W22888   6.288   5.117   2.002  0.1740  0.1520  0.0060
 7080W        W22889   9.833  13.674   3.021 -0.1197  0.2205  0.1332
 7081W        W22890  15.878  15.922   2.781 -0.1573 -0.3181  0.0286
 7082W        W22891   9.953   8.000   0.331  0.0931 -0.0596 -0.1331
 7083W        W22892  13.325  13.879   1.318 -0.1411 -0.2702  0.2821
 7084W        W22893   6.315  16.420  12.618 -0.4036 -0.1552 -0.1277
 7085W        W22894   6.915  13.667  11.988  0.1094  0.2988  0.0762
 7086W        W22895  16.484  10.022  12.699 -0.0267 -0.2610  0.1955
 7087W        W22896   3.455  13.786   2.688  0.1210 -0.0079 -0.3310
 7088W        W22897   8.514   8.373  15.240  0.0982  0.0858  0.3257
 7089W        W22898   9.570   9.261  11.897 -0.1143  0.2391 -0.0564
 7090W        W22899  10.654  17.953   0.117  0.2601 -0.1950  0.1317
 7091W        W22900   7.313   3.153   0.324  0.1591 -0.0616 -0.3705
 7092W        W22901   0.593  17.385  14.500 -0.0693 -0.1401 -0.1399
 7093W        W22902   7.011  16.005   3.862 -0.1666 -0.1027 -0.3559
 7094W        W22903  11.681   5.551  11.310 -0.2320 -0.1214 -0.0403
 7095W        W22904  17.000   9.283   4.468  0.0596  0.1436  0.0518
 7096W        W22905   1.228  13.804  15.138 -0.0993  0.0174 -0.1517
 7097W        W22906  10.852  11.910   2.053  0.2604 -0.1575  0.1996
 7098W        W22907  15.093   7.400   5.234  0.0088 -0.1955 -0.0869
 7099W        W22908   7.523   0.110   1.027  0.1249 -0.0374  0.1774
 7100W        W22909  11.681  15.944   1.499 -0.0039  0.1604  0.1249
 7101W        W22910  13.346  17.768  14.421 -0.0609 -0.1839  0.2244
 7102W        W22911   8.055  11.238  14.931 -0.1074  0.1279 -0.2091
 7103W        W22912   0.831   5.634  11.413  0.3270 -0.0984 -0.0140
 7104W        W22913  11.239   4.857  13.400 -0.1677  0.3944 -0.0567
 7105W        W22914  14.660   8.556   1.622  0.1134 -0.0054  0.1971
 7106W        W22915   9.914  10.256   4.068  0.1713 -0.1856 -0.0156
 7107W        W22916   7.144  16.474   5.386 -0.0798  0.2822  0.4199
 7108W        W22917   0.062  16.670   5.491  0.1277 -0.0535  0.1540
 7109W        W22918  13.654   8.436   2.443  0.1562  0.1360  0.0912
 7110W        W22919  17.582  11.001   1.754  0.2097  0.0035 -0.1458
 7111W        W22920   5.557  11.994  12.398  0.4594  0.1607  0.1775
 7112W        W22921   3.923   2.371   2.620 -0.3395  0.3243 -0.0980
 7113W        W22922  10.672   3.298   4.413  0.1714 -0.0246  0.1352
 7114W        W22923   1.169  17.526  10.427  0.2077 -0.1525 -0.3124
 7115W        W22924   7.461  16.231  14.856  0.1129  0.2377  0.0971
 7116W        W22925   5.225  11.274   4.831 -0.1688  0.1551 -0.0750
 7117W        W22926  17.653   7.051  14.827 -0.0727  0.1476 -0.0061
 7118W        W22927   7.056   7.722   1.330  0.0275  0.1197 -0.0730
 7119W        W22928  11.586   1.753   4.277  0.0768 -0.3696  0.0721
 7120W        W22929   0.701   2.358  14.998  0.2305  0.0961 -0.0510
 7121W        W22930  10.951  16.456  15.597 -0.1543  0.0027  0.2326
 7122W        W22931   6.087   3.734  10.833 -0.2467 -0.4983 -0.0984
 7123W        W22932   8.173   3.732  15.939 -0.1037  0.0413  0.0928
 7124W        W22933   0.542  12.520   5.283 -0.1904 -0.0663  0.0865
 7125W        W22934   8.299  12.783  11.109 -0.1430 -0.1799 -0.2295
 7126W        W22935  10.853   3.914  14.746  0.0559  0.1611  0.3405
 7127W        W22936   4.254   9.286   1.162  0.0291  0.3532  0.0625
 7128W        W22937   8.663  16.818   3.273  0.0791  0.0771  0.0082
 7129W        W22938   5.886   8.791   5.534  0.4895  0.0969 -0.2010
 7130W        W22939  17.117   5.209  12.806  0.3045 -0.3383 -0.1062
 7131W        W22940   5.145   9.647  15.991 -0.0927 -0.1778  0.2411
 7132W        W22941   0.638   2.365   5.798  0.4072  0.0054 -0.0405
 7133W        W22942  13.608  12.399   4.188  0.0181  0.2181 -0.2199
 7134W        W22943   0.116   6.037   0.600  0.2850  0.0122 -0.2629
 7135W        W22944   1.522   4.440   0.637 -0.1448 -0.1892  0.0508
 7136W        W22945  12.320  12.485  14.325 -0.1564 -0.0888 -0.2008
 7137W        W22946   3.662  15.595   3.697  0.2352  0.1614  0.2257
 7138W        W22947  11.748   0.439   1.371  0.2078 -0.2626 -0.0787
 7139W        W22948  16.515   1.008   5.397 -0.4015 -0.2633 -0.0292
 7140W        W22949  17.811   6.099   0.010 -0.3220 -0.2089  0.1423
 7141W        W22950  17.095   1.188   0.571 -0.0375 -0.1818 -0.0643
 7142W        W22951  13.947   4.176  15.347 -0.0329 -0.1054  0.2691
 7143W        W22952   5.627   6.207  14.315 -0.2317  0.0264 -0.0946
 7144W        W22953   9.098  13.900   2.570  0.1510 -0.1215 -0.3443
 7145W        W22954   4.091   9.080  15.622  0.0450  0.1038  0.0943
 7146W        W22955  12.758   5.743   2.436  0.1183 -0.0230  0.1413
 7147W        W22956   9.082   1.585   2.388 -0.0949 -0.0840  0.2717
 7148W        W22957   0.791   5.009  11.958  0.1388  0.0527  0.1123
 7149W        W22958   0.284  16.065   3.584 -0.1877  0.0808  0.3450
 7150W        W22959   0.954   5.027  13.009 -0.1917 -0.2179 -0.0836
 7151W        W22960   3.295   0.820   0.238  0.0572  0.0690  0.2978
 7152W        W22961   6.262  10.179  15.089 -0.1614  0.0293 -0.3875
 7153W        W22962   5.128   3.612   2.764 -0.1602 -0.3800 -0.0791
 7154W        W22963   8.951  12.014  14.459  0.1448 -0.0011  0.2522
 7155W        W22964   0.284  14.517   2.455 -0.0159 -0.0835  0.0297
 7156W        W22965   5.912   9.286   0.324  0.1006 -0.0475  0.2715
 7157W        W22966   6.373  12.479   3.005 -0.2706 -0.1891 -0.1641
 7158W        W22967  14.985   3.915   4.982 -0.1342 -0.1170  0.0041
 7159W        W22968   1.532  10.927   0.918 -0.1263 -0.1524 -0.0597
 7160W        W22969  17.683   1.334   5.085 -0.0963 -0.1873 -0.1354
 7161W        W22970  17.856   7.158  11.978 -0.3481  0.1566  0.1083
 7162W        W22971  16.381   7.248   2.775  0.2706 -0.1221 -0.1159
 7163W        W22972   1.937   9.829   0.301  0.1480 -0.2758  0.1537
 7164W        W22973  10.188  17.745  14.104  0.2885  0.0429 -0.3071
 7165W        W22974  13.467   3.705  11.919 -0.2308  0.0303 -0.3273
 7166W        W22975  12.579   0.761   1.245 -0.0525 -0.1698  0.1138
 7167W        W22976   5.064   2.574  14.043  0.0514 -0.1339  0.0108
 7168W        W22977  11.246  17.739  14.408 -0.1314  0.0869  0.3476
 7169W        W22978  12.120   8.785  12.957  0.0343  0.0637 -0.3543
 7170W        W22979  11.261  16.816  15.891  0.0201 -0.1435  0.0050
 7171W        W22980   3.881  16.717   2.886  0.1336 -0.0976  0.1072
 7172W        W22981   3.604   2.719   1.029  0.5349 -0.0446  0.1654
 7173W        W22982   0.858  16.290  14.548  0.0557 -0.0574  0.2626
 7174W        W22983  16.311   8.941   1.647  0.3030 -0.1466 -0.0652
 7175W        W22984   2.228  14.927  11.800 -0.0917 -0.0066 -0.0393
 7176W        W22985   5.089   6.989  15.427 -0.0897 -0.1340 -0.0569
 7177W        W22986   5.503  17.308   0.486  0.2617 -0.0466 -0.4152
 7178W        W22987   9.738   5.702  12.440 -0.0157 -0.0946  0.1565
 7179W        W22988   1.956   4.152  13.052  0.1055  0.0471  0.1526
 7180W        W22989   1.790  12.839   0.162  0.0098  0.2536  0.0237
 7181W        W22990   6.029   0.773   3.301 -0.0497 -0.1925  0.3033
 7182W        W22991  10.606   2.167   0.643  0.0421 -0.3033 -0.0199
 7183W        W22992  12.334   7.241  11.562 -0.0722  0.3597 -0.3555
 7184W        W22993   5.143  16.618   1.027 -0.0078 -0.1342 -0.1034
 7185W        W22994  16.445  12.220   2.424  0.0785  0.4901 -0.0298
 7186W        W22995   0.641  13.960  13.784  0.1980  0.1326  0.2577
 7187W        W22996  12.831   9.699   5.613  0.0446  0.0286 -0.0595
 7188W        W22997   9.815   8.358  15.908  0.0684  0.4909  0.0585
 7189W        W22998   2.317   1.341   4.028 -0.0331 -0.1202  0.0183
 7190W        W22999  14.225   1.525  11.751  0.1477 -0.1947  0.1574
 7191W        W23000  11.476   0.533   6.253 -0.1742  0.1228 -0.2230
 7192W        W23001  12.794  13.121  12.234 -0.1649 -0.0505  0.1553
 7193W        W23002  11.283   5.229   1.914 -0.0401 -0.1169  0.3964
 7194W        W23003  17.027  15.991   2.372  0.1433 -0.0599 -0.1399
 7195W        W23004  12.406  11.107  13.826  0.0355 -0.2871  0.1907
 7196W        W23005   2.051   8.428  15.208  0.0586 -0.2025  0.2071
 7197W        W23006   7.515  12.583  14.163  0.2973  0.1202 -0.0762
 7198W        W23007  12.591   5.206  11.166  0.0096 -0.1366  0.1000
 7199W        W23008  13.313   7.145  13.841  0.0051 -0.0479  0.0755
 7200W        W23009  13.102   2.753   2.601  0.3846  0.2108 -0.3822
 7201W        W23010   8.227   7.755  13.718 -0.1851  0.1686 -0.0978
 7202W        W23011   0.393   0.667   1.102 -0.1240 -0.0965  0.4446
 7203W        W23012   8.618   0.604  15.777  0.0242  0.3855 -0.2033
 7204W        W23013   5.852   0.087   5.268 -0.1737  0.0908  0.0886
 7205W        W23014   5.504  13.670   2.745  0.1918  0.2078 -0.0574
 7206W        W23015   9.292   5.303   2.928 -0.0368 -0.0950  0.0812
 7207W        W23016   2.277  16.238   5.124  0.0545  0.1923  0.1541
 7208W        W23017   9.624  12.579   0.367 -0.0253 -0.2838 -0.0955
 7209W        W23018   5.459   4.409   2.716  0.0759 -0.1862  0.2201
 7210W        W23019   6.802   0.323   2.752 -0.0310 -0.0074  0.4098
 7211W        W23020   2.214   6.828   2.320 -0.0058  0.1199  0.1316
 7212W        W23021   5.158  12.154   3.408 -0.3526 -0.0938 -0.0748
 7213W        W23022   9.314  11.770  12.982 -0.1066 -0.0319 -0.0065
 7214W        W23023   8.076  11.991  11.441  0.1442  0.2362  0.0881
 7215W        W23024   3.420  17.308   1.157 -0.0896 -0.1811  0.1230
 7216W        W23025  12.609  16.449  13.114 -0.0492 -0.0540 -0.2021
 7217W        W23026   7.932  14.653  12.806 -0.1536  0.0336 -0.1115
 7218W        W23027   8.542  15.751   2.813 -0.0613  0.0555 -0.0259
 7219W        W23028   7.236  13.231   2.463  0.1368 -0.2698 -0.3082
 7220W        W23029  16.568   9.189   1.286  0.3243 -0.0065 -0.1572
 7221W        W23030   0.679  14.626  15.659 -0.2273  0.3460 -0.0469
 7222W        W23031   6.269  14.991   1.690  0.0616 -0.1713  0.2510
 7223W        W23032   0.596   2.728   4.314 -0.0992  0.0728  0.0232
 7224W        W23033   3.704  18.129  10.070  0.0782  0.1567  0.0106
 7225W        W23034  14.320   2.381  15.009  0.2704 -0.0451  0.0460
 7226W        W23035  17.483  17.087   5.321 -0.0863  0.0229 -0.0737
 7227W        W23036   4.926   9.043   1.980  0.0437 -0.1602 -0.1091
 7228W        W23037   6.051   0.231   3.148 -0.0475  0.1685  0.2518
 7229W        W23038   5.309   0.750   5.795  0.4265 -0.0385  0.0941
 7230W        W23039   5.026   4.060   2.515 -0.2391 -0.0652  0.0700
 7231W        W23040   7.460   4.490   0.208 -0.1805  0.0408  0.3528
 7232W        W23041   3.072  11.090  11.924  0.1447 -0.1802 -0.1376
 7233W        W23042   1.897  17.492  12.200 -0.2221  0.1736  0.0164
 7234W        W23043   6.236  16.375   5.095 -0.0927  0.0213  0.2952
 7235W        W23044   5.516  15.296   1.729 -0.3422  0.0143 -0.2607
 7236W        W23045  15.830  12.799  11.169  0.1214 -0.0477 -0.1422
 7237W        W23046  14.076   4.521   2.365  0.0698 -0.1036  0.2487
 7238W        W23047   1.789  16.161  14.953 -0.1814 -0.1126  0.2110
 7239W        W23048  11.730   3.113   5.091 -0.0009  0.0034 -0.1470
 7240W        W23049   9.032   3.481   3.968 -0.1717 -0.0649  0.2276
 7241W        W23050   8.658  14.912   3.229  0.1097  0.2840 -0.0636
 7242W        W23051   2.810   8.762  15.471 -0.2338  0.1027  0.1408
 7243W        W23052  14.002  10.105  13.844 -0.0664 -0.0799  0.1005
 7244W        W23053   0.557  16.780   2.556  0.3631  0.0339  0.2208
 7245W        W23054  13.460   2.344  13.352  0.0040  0.2813  0.1312
 7246W        W23055   1.959   9.963   3.278 -0.0119  0.0753 -0.1509
 7247W        W23056   3.429  15.951  14.917 -0.0323  0.0253 -0.1961
 7248W        W23057  11.157   2.650  12.361  0.1743  0.1054 -0.0345
 7249W        W23058  15.179  17.701   6.418  0.2111 -0.0688 -0.0740
 7250W        W23059   1.711   4.247  14.052  0.1446 -0.0459  0.2651
 7251W        W23060  13.555   0.568   3.580  0.1433 -0.1155 -0.0448
 7252W        W23061   7.508  14.234   0.267  0.0047 -0.2375 -0.0552
 7253W        W23062   1.723  14.235   5.272 -0.0392  0.1907  0.1961
 7254W        W23063   8.659   6.077   2.799  0.2356  0.1744 -0.0896
 7255W        W23064  11.518  18.139   4.545 -0.1335 -0.0896  0.1341
 7256W        W23065   7.432  17.302   2.964 -0.1295  0.0619  0.1000
 7257W        W23066   5.245  14.564   4.806 -0.0931 -0.1058  0.1404
 7258W        W23067   7.417  13.794  11.935 -0.1874  0.1164 -0.0590
 7259W        W23068   4.727   2.989   3.639  0.1302 -0.1715 -0.1446
 7260W        W23069   2.515   1.579  11.333 -0.0828 -0.1860  0.0733
 7261W        W23070   8.263   9.012  11.770  0.1291  0.2050  0.2374
 7262W        W23071   1.567   5.307   5.502 -0.1970 -0.1701  0.3971
 7263W        W23072  10.895  10.090  13.349  0.1207 -0.2253 -0.1828
 7264W        W23073   6.148  16.003   1.805 -0.1108 -0.1430  0.0606
 7265W        W23074  15.508  18.011   4.194 -0.1711 -0.0757  0.3007
 7266W        W23075   6.329  17.322   4.847 -0.0779 -0.0406  0.1356
 7267W        W23076   6.106  13.217  15.412  0.0909 -0.0098 -0.1033
 7268W        W23077   8.378   8.869  11.300 -0.2258 -0.0311 -0.2841
 7269W        W23078  10.337   7.298   2.435  0.0673 -0.1304 -0.0097
 7270W        W23079  10.430  17.692   3.635  0.1220  0.0210 -0.1114
 7271W        W23080  14.588   3.727   4.819 -0.2232 -0.1714 -0.0989
 7272W        W23081  14.981   8.715  14.730 -0.1729 -0.1740 -0.0413
 7273W        W23082  17.396   6.094   3.227 -0.1143 -0.1050  0.0625
 7274W        W23083  13.644  17.086   1.925 -0.3372  0.0457  0.0435
 7275W        W23084  16.401   4.908   0.511  0.1916  0.1653 -0.2101
 7276W        W23085   0.456  18.221   2.558 -0.0223  0.1217  0.0129
 7277W        W23086   9.942  10.476   1.899  0.0401  0.1777  0.2841
 7278W        W23087   6.988   4.938  11.853 -0.2155 -0.0831 -0.1903
 7279W        W23088  12.015  15.111   5.435 -0.0654 -0.1129  0.0260
 7280W        W23089   1.919   2.304  11.563  0.3312  0.0342 -0.0964
 7281W        W23090  13.659   2.112   3.811  0.0605  0.1737 -0.0719
 7282W        W23091  12.746  13.701  14.819 -0.0042  0.1674  0.0083
 7283W        W23092   9.617   4.166  11.147  0.1882  0.0940  0.0126
 7284W        W23093   2.739   3.481   3.899  0.2617 -0.2518 -0.1245
 7285W        W23094  12.907  11.738  15.717  0.1446  0.0965  0.1436
 7286W        W23095  14.659  14.554   0.724 -0.4066  0.0668 -0.0321
 7287W        W23096  18.129   6.751  14.643  0.1236  0.1334 -0.0590
 7288W        W23097   6.951   9.330   0.674  0.1302  0.0318  0.0362
 7289W        W23098  17.882  12.541  14.598  0.1126  0.0238  0.0376
 7290W        W23099   7.713   6.061   3.345 -0.0174 -0.2139  0.2225
 7291W        W23100   1.426   4.563  15.737  0.0488  0.1362 -0.0002
 7292W        W23101  10.550   0.574  12.140 -0.0186 -0.1631 -0.0628
 7293W        W23102   6.696   0.257   1.040 -0.0282 -0.0997 -0.4225
 7294W        W23103  12.468   0.636   5.953 -0.0356 -0.6602  0.1466
 7295W        W23104  15.422   9.245   5.418 -0.0835 -0.1938  0.1756
 7296W        W23105  16.128   6.324   5.375 -0.0497  0.1164 -0.0170
 7297W        W23106   3.776   1.953   4.866 -0.1134 -0.1885  0.2013
 7298W        W23107   1.495   3.591   3.750  0.0439  0.0056  0.0028
 7299W        W23108   0.518  10.855   5.127 -0.0524 -0.0134  0.2859
 7300W        W23109   2.175   1.944   5.762  0.2776 -0.2689  0.1369
 7301W        W23110  11.504   5.468  14.494  0.4364 -0.1644  0.1861
 7302W        W23111  10.218  14.714  11.167 -0.0426 -0.2112  0.4103
 7303W        W23112   7.297   7.438  12.105  0.1085 -0.1331 -0.0516
 7304W        W23113   9.264   5.728   4.347 -0.0236 -0.1484 -0.0850
 7305W        W23114   6.248   7.182   0.787 -0.0526 -0.0756  0.0122
 7306W        W23115   2.543   6.310   5.730 -0.0138 -0.2665  0.0589
 7307W        W23116   3.288   0.780   5.464 -0.0723 -0.1328 -0.3702
 7308W        W23117  12.707   7.565   5.377 -0.2744  0.2817  0.0575
 7309W        W23118  11.450   9.244   0.632  0.1558  0.1573 -0.1612
 7310W        W23119  15.533  10.540   3.484 -0.1046  0.3640 -0.1708
 7311W        W23120  13.832  17.772   3.898  0.3877  0.0033  0.0003
 7312W        W23121   8.991  10.376  13.365 -0.1470 -0.0164 -0.0578
 7313W        W23122   2.379  15.487   0.147  0.1024 -0.1823 -0.0918
 7314W        W23123  15.398  13.940  12.524  0.0871 -0.1592 -0.0917
 7315W        W23124   0.207   5.420  14.902  0.0557  0.1749  0.2989
 7316W        W23125  14.009   6.777  14.994  0.0718  0.1117 -0.0509
 7317W        W23126   6.193   7.231  14.208  0.1302  0.0507 -0.1701
 7318W        W23127  16.122   8.251  12.159  0.1557 -0.1906 -0.1124
 7319W        W23128  12.390   5.049   4.843  0.1850 -0.2252 -0.1588
 7320W        W23129  14.327   3.855  13.909  0.3254  0.1188 -0.2354
 7321W        W23130   1.022  16.386   1.599  0.2073  0.0987 -0.1245
 7322W        W23131  10.910  16.049   0.550  0.0739 -0.1783  0.2686
 7323W        W23132  17.377  16.837   4.455 -0.0573  0.0414  0.0073
 7324W        W23133  10.802   3.588  12.748 -0.2647 -0.3492  0.3989
 7325W        W23134   7.708   5.827  12.338  0.0677 -0.0376  0.1268
 7326W        W23135   9.508  13.027  12.899  0.2827 -0.0722 -0.2811
 7327W        W23136  10.797   1.128   3.386 -0.2935  0.2072 -0.0112
 7328W        W23137   3.966   9.221   2.428 -0.1342 -0.0370  0.1775
 7329W        W23138   3.225   8.519   1.609  0.1433  0.0967  0.2073
 7330W        W23139  14.211  18.108  11.114  0.0222 -0.1980 -0.0120
 7331W        W23140   6.749  13.820   1.801  0.1338  0.2549  0.1704
 7332W        W23141   2.253  17.797   0.429 -0.0064 -0.2234 -0.0766
 7333W        W23142  15.831   7.665   1.053  0.0645  0.0063 -0.0903
 7334W        W23143   7.155   0.945   0.018 -0.3756 -0.4281  0.0393
 7335W        W23144   8.609   1.444   3.531  0.2681 -0.1977  0.2294
 7336W        W23145  11.953   9.888  11.033  0.1472 -0.0375 -0.0681
 7337W        W23146   8.320  12.582   3.776 -0.1601  0.3030  0.0456
 7338W        W23147  11.198  17.099   5.851  0.0654  0.0741 -0.2050
 7339W        W23148   8.968   8.714   0.971 -0.2512 -0.1090 -0.1361
 7340W        W23149   6.767  12.466  15.227 -0.1159 -0.0234 -0.3532
 7341W        W23150  15.254  13.055   3.224 -0.0775 -0.1040 -0.3441
 7342W        W23151  11.780  12.924  13.563 -0.1503 -0.1871 -0.1266
 7343W        W23152   2.699   8.338  13.142  0.0343 -0.1457  0.0225
 7344W        W23153   5.821   5.043   5.042 -0.0295 -0.0362 -0.0268
 7345W        W23154  15.615   3.954   4.911  0.1569 -0.1178 -0.1871
 7346W        W23155  17.050   1.125   2.101 -0.0637  0.0067 -0.1554
 7347W        W23156   8.727  11.701  14.870 -0.3644  0.0099 -0.0034
 7348W        W23157  17.218   1.448  12.780 -0.2073 -0.0915 -0.0696
 7349W        W23158   4.102   0.900   3.141  0.0198 -0.0468 -0.1513
 7350W        W23159  10.067   0.066   2.232  0.1376  0.0432 -0.0720
 7351W        W23160   3.738   6.496  14.252  0.3172 -0.1677 -0.0339
 7352W        W23161   2.983   8.540  13.841 -0.0537  0.3860  0.1329
 7353W        W23162   4.310   0.501   0.231  0.0673 -0.2175  0.0006
 7354W        W23163   7.847   3.338   0.393 -0.1652 -0.2466  0.0495
 7355W        W23164   1.125   5.248  11.631 -0.1764 -0.0310 -0.1659
 7356W        W23165   7.879   5.634   1.700  0.2547  0.2956 -0.1532
 7357W        W23166   9.292  15.777  13.141 -0.1255  0.0416 -0.2352
 7358W        W23167  14.493  15.955   5.732  0.1264  0.3817 -0.1989
 7359W        W23168  10.804   9.192  14.689 -0.0298 -0.2317 -0.0909
 7360W        W23169   8.126   6.597  13.812 -0.1237 -0.1095  0.0541
 7361W        W23170   8.083   7.041   3.549  0.0006 -0.2153  0.1681
 7362W        W23171  16.176   1.513   1.043 -0.2462  0.3259 -0.1900
 7363W        W23172   8.305   0.487   0.126  0.0314  0.0305  0.1268
 7364W        W23173   7.859   4.564   4.936  0.0103  0.0691 -0.0658
 7365W        W23174   9.376   9.252   0.834 -0.2578 -0.1069  0.1261
 7366W        W23175  13.257   6.258   1.650 -0.0836 -0.0883 -0.2998
 7367W        W23176  15.751   8.849   4.151  0.0314  0.0300 -0.1538
 7368W        W23177  10.869   0.556   4.178 -0.0931 -0.0820  0.2144
 7369W        W23178   1.701  15.324   3.678  0.2157  0.0437 -0.2189
 7370W        W23179  18.233  17.509   3.023 -0.3516 -0.0175  0.1306
 7371W        W23180  10.517  18.161  13.627 -0.2324 -0.2718  0.0564
 7372W        W23181   8.937  16.893  14.625  0.2404 -0.2597 -0.1956
 7373W        W23182  14.892   9.469   4.232 -0.0959 -0.0910  0.1797
 7374W        W23183  16.706  12.179  11.090 -0.2536  0.0597  0.2496
 7375W        W23184   6.389   6.005  10.622 -0.1653 -0.3141 -0.5626
 7376W        W23185   3.507   0.141   3.315 -0.0925 -0.0591 -0.1432
 7377W        W23186   0.047  10.045  13.629  0.0374 -0.0455 -0.0572
 7378W        W23187   3.661  16.213  10.280  0.1006 -0.0825  0.1224
 7379W        W23188   6.906  10.931  13.235  0.0002  0.1186  0.0762
 7380W        W23189   2.011   2.865  12.051 -0.0277  0.0939 -0.1973
 7381W        W23190  17.414  11.247   5.064  0.0043 -0.1897 -0.2039
 7382W        W23191   0.604  17.970  15.299 -0.0013 -0.3149  0.0894
 7383W        W23192   5.149  16.294   1.971  0.2892 -0.1602  0.1281
 7384W        W23193  12.668   9.385  11.033 -0.2697  0.1388 -0.0271
 7385W        W23194   8.253   6.201  13.457  0.0639 -0.2453  0.1303
 7386W        W23195  17.977  12.598   1.152  0.0856 -0.1781 -0.0368
 7387W        W23196  14.887   8.248   3.475  0.1868  0.1778 -0.0419
 7388W        W23197   4.028   2.685   3.045  0.0727 -0.2095  0.0728
 7389W        W23198   6.589   0.753   2.888 -0.0025 -0.0467 -0.0833
 7390W        W23199  15.142  17.640   5.928  0.0118  0.0249 -0.2655
 7391W        W23200  17.007   3.392  14.520  0.0447 -0.0371 -0.3212
 7392W        W23201   8.210   7.805   0.253  0.4334 -0.0235  0.1495
 7393W        W23202  12.279   7.979  12.378  0.1199 -0.1802 -0.2569
 7394W        W23203  16.556  17.490   4.319  0.0560  0.2567  0.2112
 7395W        W23204   0.901   6.461   0.212  0.2094 -0.0882  0.0292
 7396W        W23205   6.340   6.815  11.975 -0.0663 -0.1424 -0.0807
 7397W        W23206   2.110  11.285  14.460  0.2515  0.0010 -0.0317
 7398W        W23207  17.603  17.178   2.131 -0.0721 -0.2732  0.0051
 7399W        W23208  10.697   5.579  16.024  0.0993  0.2370  0.1572
 7400W        W23209   3.019   2.056   5.423 -0.1774  0.1082 -0.0060
 7401W        W23210  17.882   9.329   2.667  0.2685 -0.0536  0.0880
 7402W        W23211   2.960  17.052   0.154  0.1195 -0.2723 -0.0280
 7403W        W23212   9.855  17.285  15.313  0.0531 -0.0143  0.0136
 7404W        W23213   2.245  15.855  13.923 -0.3221 -0.2702  0.2149
 7405W        W23214   2.118   2.680   1.842  0.0250  0.4158 -0.0872
 7406W        W23215   1.872   6.080  13.824 -0.2337  0.0741  0.2758
 7407W        W23216  10.576   7.957  14.767 -0.0687  0.2674  0.3374
 7408W        W23217   5.093   1.120  14.523  0.0014 -0.2511 -0.0801
 7409W        W23218  15.679  13.939   2.272  0.1249  0.0478 -0.0192
 7410W        W23219   2.014   9.349   2.257  0.0253  0.0542  0.2151
 7411W        W23220  16.784  13.708   1.194  0.1305 -0.1314 -0.0612
 7412W        W23221   1.420  18.142  11.625  0.2053  0.4073 -0.0359
 7413W        W23222  16.808   2.889  15.535  0.0491 -0.2415 -0.0199
 7414W        W23223   0.487  14.529   4.941  0.2545 -0.0033  0.3372
 7415W        W23224   3.676   4.552  12.406 -0.0206 -0.0434  0.3086
 7416W        W23225  11.956   4.503   5.277 -0.1064 -0.4492  0.2796
 7417W        W23226   3.299   2.274   0.827  0.2372  0.0850  0.2293
 7418W        W23227   8.280   8.848   0.273  0.2138 -0.0323  0.0477
 7419W        W23228  16.665  10.404  11.673 -0.1310  0.0134  0.1408
 7420W        W23229  13.968  18.261   4.458  0.3414  0.0459  0.0496
 7421W        W23230   7.088   2.552  15.995 -0.2041 -0.0715 -0.0998
 7422W        W23231  15.173   2.464   0.290  0.3412 -0.1442 -0.0517
 7423W        W23232   6.203   5.563   4.520 -0.0966 -0.0309  0.3272
 7424W        W23233  12.431  16.895  12.995  0.0728  0.0255 -0.4445
 7425W        W23234  12.784  15.764  11.295  0.0726 -0.1164  0.1056
 7426W        W23235  16.998  16.505  13.912 -0.5422  0.0632  0.1931
 7427W        W23236   5.628   0.412   2.887 -0.0342 -0.1182 -0.0019
 7428W        W23237   0.130   8.964  14.860 -0.0006  0.1679  0.2255
 7429W        W23238   6.011   6.654  12.701  0.0345 -0.1596 -0.0950
 7430W        W23239  13.311  14.926  13.323  0.1587 -0.0395  0.3731
 7431W        W23240   1.139  12.777  12.580 -0.0547  0.1521 -0.2338
 7432W        W23241  15.555  10.941  13.790  0.0605  0.3178 -0.0383
 7433W        W23242  18.009   6.546  13.187 -0.2109  0.0881 -0.0410
 7434W        W23243  14.039  15.898   5.142 -0.3234  0.3264  0.1067
 7435W        W23244   7.765  18.231  13.357  0.0909  0.1359 -0.0638
 7436W        W23245  11.012   9.942  10.582 -0.2963 -0.3312  0.2047
 7437W        W23246   5.538   6.600  12.168  0.1267  0.0182 -0.0092
 7438W        W23247   0.013   3.700   3.623 -0.0040 -0.2152 -0.1224
 7439W        W23248  12.061   6.193   5.061  0.2155  0.0914 -0.2283
 7440W        W23249   9.723   0.205   4.789 -0.0660  0.1362  0.0838
 7441W        W23250   0.256   6.045   4.981 -0.1246  0.0448  0.0609
 7442W        W23251   7.359   0.210   4.630  0.1988 -0.0226 -0.1888
 7443W        W23252   5.750   3.748  11.226  0.3764  0.1085  0.0799
 7444W        W23253   6.191   1.812  13.466  0.0932  0.0673  0.3062
 7445W        W23254  10.562   4.516   5.792  0.1056  0.0676 -0.3436
 7446W        W23255  16.951   7.101  10.775 -0.0873  0.2701  0.0952
 7447W        W23256   5.058  16.341   5.601 -0.0514  0.1508  0.0270
 7448W        W23257   3.381   0.627   5.975 -0.1282  0.2881  0.0357
 7449W        W23258   5.477   8.008  15.876  0.1708 -0.0560  0.1053
 7450W        W23259  16.777  10.696  14.524  0.0275 -0.1637  0.0473
 7451W        W23260   0.481   4.127  12.646 -0.1561 -0.2407 -0.1824
 7452W        W23261  12.973  14.351  15.253  0.0266  0.1034  0.0727
 7453W        W23262   3.140  14.801  12.104 -0.0197  0.3418 -0.2700
 7454W        W23263  14.757   4.972   2.773 -0.1828 -0.2855  0.1779
 7455W        W23264  12.019   3.902   3.300  0.2921 -0.1426 -0.1348
 7456W        W23265   2.347   0.517   5.610 -0.0109 -0.0952  0.1071
 7457W        W23266  14.839   8.642  15.942 -0.0488 -0.0913 -0.1054
 7458W        W23267   0.862   5.056   2.422  0.4306 -0.0913  0.1397
 7459W        W23268   1.408  12.018  10.921  0.2706  0.0392  0.0185
 7460W        W23269  16.095  11.540  13.764  0.1750  0.0530  0.0039
 7461W        W23270  13.604   5.880   3.440  0.2265 -0.0876 -0.0565
 7462W        W23271  17.557  17.868  15.884  0.1587 -0.2812  0.0072
 7463W        W23272   7.483   9.529  14.954  0.1347  0.1003 -0.0095
 7464W        W23273  11.489  14.902   5.090 -0.1717 -0.0181  0.0811
 7465W        W23274  17.798  15.070   1.892 -0.1005  0.0978 -0.0483
 7466W        W23275   4.881  10.827   2.551  0.2342 -0.0487 -0.0635
 7467W        W23276   4.217   3.615   2.357  0.2357  0.3186 -0.3256
 7468W        W23277   3.614   7.347  15.375 -0.0556 -0.0365  0.1324
 7469W        W23278   0.405  12.772  13.228 -0.0760 -0.0049 -0.1942
 7470W        W23279  15.850  14.214  12.288  0.3922 -0.2060  0.2092
 7471W        W23280   5.070   3.156   1.823  0.2034 -0.0511  0.1235
 7472W        W23281   7.776  14.963  10.140 -0.0959  0.0343 -0.0987
 7473W        W23282  11.471   3.061  12.535  0.2736  0.0983 -0.0709
 7474W        W23283   7.226   9.435  15.409  0.0284 -0.1858 -0.3039
 7475W        W23284  17.733   5.209   2.460  0.0425  0.0230 -0.1323
 7476W        W23285   8.020  14.867  11.195  0.2145 -0.3312  0.0887
 7477W        W23286  17.499  10.569   1.914 -0.0856  0.3094 -0.0310
 7478W        W23287  10.264   9.191   0.827  0.0427 -0.1859  0.3790
 7479W        W23288  16.097   4.752  11.193  0.2613 -0.1882 -0.2552
 7480W        W23289   6.604   5.135   3.107  0.2147  0.0753  0.1518
 7481W        W23290   3.922  16.357   4.052  0.0258 -0.4154  0.0101
 7482W        W23291   0.243  10.921  14.019  0.0213 -0.0739 -0.0752
 7483W        W23292  17.390  14.714  15.595  0.2691  0.0278  0.0838
 7484W        W23293  10.819  14.045  15.249 -0.0577  0.1044 -0.1362
 7485W        W23294  15.914   8.150   3.429  0.0377 -0.0369  0.2709
 7486W        W23295  14.323   2.777   0.609 -0.0660 -0.0920 -0.0946
 7487W        W23296  13.964  14.135   0.229 -0.0425 -0.1931  0.2846
 7488W        W23297   3.505   3.024  11.407  0.0259 -0.0553 -0.0781
 7489W        W23298   3.627   3.815  11.076  0.1472  0.0083  0.5290
 7490W        W23299  11.567  12.076   3.107 -0.0521  0.1471  0.0377
 7491W        W23300  10.063   9.417   5.144  0.2639  0.1031 -0.1799
 7492W        W23301   7.165   0.031  14.515 -0.3682  0.3183  0.0772
 7493W        W23302  10.880  10.231  12.828 -0.7556 -0.0754 -0.2036
 7494W        W23303   8.628   7.025  11.980  0.0075  0.2346  0.2393
 7495W        W23304   0.019   8.007   2.924 -0.1414  0.1442 -0.0566
 7496W        W23305  10.418  15.935   5.841 -0.0381 -0.1739 -0.0432
 7497W        W23306   7.767   8.634  13.266  0.1398  0.4436 -0.1942
 7498W        W23307   2.991   5.362  11.238 -0.5764  0.0618  0.1162
 7499W        W23308  13.355  11.391  15.826  0.4493  0.1146 -0.0044
 7500W        W23309   2.211   1.337  11.740 -0.1444  0.1565 -0.2903
 7501W        W23310   0.677  15.858   0.995 -0.1909  0.2095  0.1142
 7502W        W23311   5.427  16.542  15.874 -0.1578 -0.1965  0.1075
 7503W        W23312  15.170   2.749  11.984  0.1056 -0.1180 -0.0667
 7504W        W23313   1.362  12.649  15.559 -0.1641  0.0171  0.0417
 7505W        W23314  12.308  14.391   4.837  0.2658  0.1008 -0.1226
 7506W        W23315   1.754   6.649   0.308  0.0182 -0.0320  0.3760
 7507W        W23316   2.295  12.473  14.324  0.1038  0.3134  0.0594
 7508W        W23317  17.627   3.048   0.819  0.0388 -0.0206 -0.0620
 7509W        W23318   3.910  12.915   4.114  0.1748 -0.1766  0.1618
 7510W        W23319  13.551  13.291   3.073  0.2873  0.1338 -0.1695
 7511W        W23320  12.108   5.174  11.094  0.1915  0.0759 -0.1996
 7512W        W23321   7.947   1.271  11.524  0.0361 -0.0836 -0.2092
 7513W        W23322   9.644   8.020   4.527  0.1350  0.1304  0.2184
 7514W        W23323   1.690   2.045   5.700  0.1230 -0.0041 -0.1752
 7515W        W23324  11.892   3.507   2.552  0.1988  0.1203 -0.1086
 7516W        W23325  11.683  17.497   0.732 -0.0831 -0.3515  0.0888
 7517W        W23326  10.642  11.050   4.497 -0.0635 -0.1227  0.3289
 7518W        W23327  15.316  15.166  15.733 -0.0766 -0.0895 -0.1474
 7519W        W23328   9.391   1.146   1.649  0.1700  0.2604 -0.0392
 7520W        W23329  10.764  15.766  10.920  0.0495 -0.0562  0.1826
 7521W        W23330  12.662  10.920  14.243 -0.3139 -0.3837  0.1997
 7522W        W23331   6.685  12.493   6.043  0.2497 -0.0293  0.1127
 7523W        W23332  17.177   3.226   3.340 -0.1542  0.1967 -0.0957
 7524W        W23333  17.489  12.493  13.165 -0.1814 -0.2254  0.3847
 7525W        W23334  11.292  10.753  15.941  0.0203  0.0336 -0.0007
 7526W        W23335   7.895   0.674  14.452  0.1993 -0.1473 -0.1282
 7527W        W23336  17.609   9.205   0.248  0.0972 -0.1839 -0.1038
 7528W        W23337   0.122   8.265   0.880 -0.1993  0.1517  0.3765
 7529W        W23338   8.246  11.376   3.236 -0.0019 -0.4375 -0.0598
 7530W        W23339  12.412   2.423   3.687 -0.3435  0.0134 -0.1855
 7531W        W23340  17.817   5.502  12.115 -0.1646  0.0150  0.0786
 7532W        W23341   2.346   1.619   3.532 -0.2290 -0.1993 -0.2794
 7533W        W23342   8.233  14.246  12.815 -0.0757  0.0349  0.0919
 7534W        W23343  15.102  14.881  12.518  0.0887 -0.0719  0.1235
 7535W        W23344   3.563   6.392  13.093 -0.4622 -0.3509 -0.0448
 7536W        W23345  13.671  17.345   4.210  0.1814 -0.1348 -0.1194
 7537W        W23346   5.511   8.543  15.347  0.0009  0.2082 -0.1052
 7538W        W23347   3.705  15.265   0.829  0.1355  0.0935 -0.0150
 7539W        W23348   3.505  15.247   4.974  0.1845  0.0887  0.1474
 7540W        W23349   6.226  13.631  15.739  0.0042  0.0577  0.0084
 7541W        W23350   8.760  12.284   0.060 -0.0701 -0.0476  0.1153
 7542W        W23351   6.094  12.952  10.326  0.0931 -0.0636  0.3873
 7543W        W23352   2.396  16.446   0.318 -0.1923  0.0709  0.3190
 7544W        W23353   9.280  17.942   0.477 -0.0312  0.1793 -0.2747
 7545W        W23354   0.435   9.004  13.396  0.0227  0.0746 -0.0754
 7546W        W23355   0.189   0.117  11.793  0.1786 -0.0494 -0.0030
 7547W        W23356  12.983  10.955  15.170  0.1509 -0.0305 -0.1553
 7548W        W23357  11.199  17.035  11.771  0.1612 -0.0491 -0.1610
 7549W        W23358   2.623   7.184   0.215  0.1136 -0.1744  0.0877
 7550W        W23359  15.841   2.950   2.075  0.0220 -0.2569 -0.0327
 7551W        W23360   7.900   6.961  10.407  0.0646 -0.0035  0.3245
 7552W        W23361  12.552  15.488  13.095 -0.2758 -0.2443  0.1008
 7553W        W23362   3.367  15.276  14.244 -0.0278  0.0745  0.1959
 7554W        W23363   2.702  17.247   5.219  0.1322  0.1139 -0.1893
 7555W        W23364   5.690   9.256   5.494  0.2295 -0.0993 -0.3490
 7556W        W23365   7.935   3.563  11.635  0.1421  0.0489 -0.0725
 7557W        W23366   6.390  17.828   5.250  0.0795 -0.1034  0.2634
 7558W        W23367   7.425  16.391   3.921  0.1085 -0.2422  0.3161
 7559W        W23368  18.125  14.298   3.185 -0.0644 -0.2083  0.2662
 7560W        W23369   6.980   1.991  10.274  0.1375  0.2129 -0.0961
 7561W        W23370   1.229  13.004  14.351 -0.1106  0.3248  0.0975
 7562W        W23371  14.556  12.750   4.520  0.0712  0.4113 -0.0600
 7563W        W23372   2.984  11.641   4.413 -0.1751  0.2688  0.0987
 7564W        W23373   5.067   1.534   1.545 -0.2747  0.0587 -0.1080
 7565W        W23374  11.601   2.840   3.275 -0.0676  0.0522 -0.0587
 7566W        W23375   9.597   1.684  10.912  0.0010  0.0164  0.1769
 7567W        W23376   1.573   1.324  14.329  0.4012  0.2841 -0.0751
 7568W        W23377   5.923   8.164   3.404  0.0292  0.0181 -0.1177
 7569W        W23378   5.039   0.048  15.625  0.2395  0.0223  0.1072
 7570W        W23379   3.181   3.674   1.635 -0.0702  0.2683 -0.1681
 7571W        W23380  11.408  11.112  14.895  0.0220  0.4452 -0.0181
 7572W        W23381  17.296  18.153   2.304 -0.0685  0.0642  0.0731
 7573W        W23382  10.302   2.932   1.692 -0.1767  0.3371 -0.3542
 7574W        W23383   4.873   7.340  13.153  0.2607 -0.0110  0.0450
 7575W        W23384  14.024   9.246   5.499  0.1378 -0.1329 -0.1984
 7576W        W23385   5.189  12.410  14.220 -0.1048  0.0298 -0.0406
 7577W        W23386  17.471   6.273   4.250 -0.1048  0.0874  0.1661
 7578W        W23387   8.761   3.592   5.102  0.1755  0.2349 -0.3783
 7579W        W23388   0.035   9.309   3.169  0.2980 -0.1519 -0.2105
 7580W        W23389  18.179   8.760  13.254  0.1133  0.1743 -0.1142
 7581W        W23390  10.850  15.225  15.682  0.0195 -0.0022 -0.1844
 7582W        W23391  14.565   1.181  12.731 -0.0728  0.1778  0.1732
 7583W        W23392  16.660  10.623   0.741  0.0916  0.1677  0.0967
 7584W        W23393  15.491  14.628   4.900  0.0542  0.2689 -0.2259
 7585W        W23394  14.315   3.994  12.102 -0.1080 -0.1180 -0.0475
 7586W        W23395  14.236   0.776  14.103 -0.2172  0.0178 -0.2648
 7587W        W23396   8.746   9.621   4.215  0.1446  0.0232 -0.2874
 7588W        W23397  18.135   7.593  11.104  0.1158  0.0744  0.1972
 7589W        W23398   4.077  10.400  15.840 -0.0796  0.2222 -0.2733
 7590W        W23399   8.142  13.342  15.547 -0.1304 -0.0077 -0.2487
 7591W        W23400  15.239  15.915   4.441 -0.0719 -0.4592  0.1352
 7592W        W23401   8.910  16.031  15.404  0.0209 -0.1290  0.2371
 7593W        W23402  13.087   7.529   2.097  0.2165 -0.0598  0.2190
 7594W        W23403   5.605  13.039  15.323  0.0142 -0.0996  0.1631
 7595W        W23404   6.454  17.093   2.674 -0.1020  0.0323 -0.2541
 7596W        W23405  14.168  13.525  10.870 -0.1891 -0.2347 -0.1511
 7597W        W23406   7.445   5.977  14.258 -0.2043  0.0944  0.3055
 7598W        W23407   6.804  14.026  13.536 -0.1175  0.3449 -0.2157
 7599W        W23408  10.475  11.862   2.795  0.3148  0.1836  0.0122
 7600W        W23409   3.149   9.098  11.893 -0.0158  0.1229  0.0977
 7601W        W23410  12.664   8.939   5.239  0.3187  0.0364 -0.0232
 7602W        W23411  17.700  16.552  14.191 -0.1095 -0.0027 -0.0715
 7603W        W23412   2.596  16.797  14.873 -0.1485 -0.3653 -0.1335
 7604W        W23413  14.546  16.333  13.849 -0.1827  0.2681 -0.0703
 7605W        W23414   1.951   1.276   3.580  0.0176  0.0815 -0.0207
 7606W        W23415   3.830  12.185  11.663  0.0899 -0.1866 -0.1502
 7607W        W23416   2.960   3.180   1.704  0.0356  0.2330 -0.0206
 7608W        W23417  14.461   4.897   3.667 -0.0449  0.0177 -0.2757
 7609W        W23418   7.431   6.139   0.256 -0.0918 -0.1441  0.1567
 7610W        W23419   1.756  16.948  11.330  0.3195  0.2225 -0.0488
 7611W        W23420  16.590  11.748   5.731  0.1592 -0.2997  0.0071
 7612W        W23421   6.496  13.733   5.579 -0.2989  0.0585 -0.0136
 7613W        W23422  17.149   2.028   0.266 -0.0641  0.2444  0.2927
 7614W        W23423  17.103  17.266  13.854 -0.0453 -0.0367 -0.2177
 7615W        W23424  12.475  13.451   4.136  0.0465 -0.1606  0.2897
 7616W        W23425   9.895  11.538   1.979 -0.0141 -0.1649  0.0506
 7617W        W23426   8.522  14.313   3.778 -0.1376  0.2559  0.0376
 7618W        W23427   1.347  10.956   4.883  0.3330  0.0206  0.1697
 7619W        W23428   7.359   9.190   3.825 -0.1542 -0.1866  0.0014
 7620W        W23429  17.470  10.155   0.230 -0.0794 -0.0113 -0.2718
 7621W        W23430   8.506  15.044  13.421 -0.0515 -0.3047  0.1058
 7622W        W23431   8.924   3.003  11.372  0.0849  0.0389 -0.1158
 7623W        W23432   9.042   8.131   5.238 -0.1194  0.4085  0.0290
 7624W        W23433   4.425   6.900  12.494 -0.2938 -0.0218 -0.1354
 7625W        W23434  18.178   6.472   6.143  0.4184  0.1906  0.3212
 7626W        W23435   9.060  17.553  13.396  0.5039  0.1874 -0.3144
 7627W        W23436   5.625  11.562   5.007 -0.1697  0.0174 -0.0455
 7628W        W23437  11.816   3.582   3.745 -0.1899 -0.1321 -0.1883
 7629W        W23438   3.029  10.688  12.938 -0.0368 -0.1979  0.1267
 7630W        W23439  12.454  11.566  14.852 -0.0904  0.2900 -0.0309
 7631W        W23440   1.792   3.264  13.160  0.0206 -0.3127 -0.2255
 7632W        W23441   3.876   3.588   0.039 -0.0464 -0.0285 -0.0551
 7633W        W23442   2.962   3.276   4.376  0.0716 -0.1595 -0.1081
 7634W        W23443   1.753  10.984   1.387 -0.0500 -0.3676  0.0193
 7635W        W23444   7.431  16.031   5.327 -0.3057  0.1204  0.0228
 7636W        W23445  13.082  15.290  12.133 -0.2354 -0.0029  0.1274
 7637W        W23446   8.582   6.228   4.519 -0.1218  0.1948 -0.1717
 7638W        W23447   2.646   8.165  12.670 -0.0476  0.0656 -0.3146
 7639W        W23448   9.973   1.354  12.165 -0.2127  0.3057 -0.1751
 7640W        W23449  13.721   4.328  12.761 -0.0631 -0.2224 -0.0520
 7641W        W23450  16.767  14.227  15.092  0.0596  0.0905 -0.1184
 7642W        W23451  17.531   7.296  10.025 -0.0478  0.1452 -0.3051
 7643W        W23452  15.879   7.387  15.278 -0.2145 -0.3174  0.3594
 7644W        W23453   2.973   5.325   5.856  0.2964 -0.0543  0.0154
 7645W        W23454  16.031  10.279   3.074 -0.1193  0.0730 -0.0001
 7646W        W23455   7.885   4.379  15.160  0.1153 -0.0180 -0.0252
 7647W        W23456  16.395   9.352  11.564  0.3143  0.1984  0.1500
 7648W        W23457  15.517   7.254  12.355  0.1523  0.1766 -0.1424
 7649W        W23458  18.042  13.328   3.466 -0.4232  0.0601 -0.3419
 7650W        W23459  11.286   0.282   2.564  0.1015 -0.2434  0.1586
 7651W        W23460   0.004  14.745  15.244 -0.1207  0.0325 -0.2187
 7652W        W23461  10.567   6.808   0.304  0.0217  0.2514 -0.0720
 7653W        W23462  16.353   2.702  14.303  0.1690  0.2301 -0.2718
 7654W        W23463   8.328   5.122  13.934 -0.2463  0.1066 -0.0792
 7655W        W23464  10.193   8.663   1.738  0.6343  0.0213  0.0740
 7656W        W23465   8.401  14.236   1.153  0.1852 -0.1658  0.0777
 7657W        W23466   2.028   6.965  14.684 -0.2675  0.3985  0.0289
 7658W        W23467  16.829  16.156   0.814 -0.1646 -0.3453  0.0653
 7659W        W23468  15.742  16.925   1.692  0.1241  0.1854  0.1350
 7660W        W23469  11.313   2.781   0.113 -0.3017 -0.1680  0.1802
 7661W        W23470   0.300  10.745  15.070 -0.1251 -0.4692  0.0861
 7662W        W23471   2.752   3.611   5.464 -0.2375 -0.0785 -0.2294
 7663W        W23472   9.330  11.294   4.555 -0.1564  0.0851 -0.0917
 7664W        W23473   8.988  13.776   4.661 -0.2073  0.0200 -0.2612
 7665W        W23474   1.186  10.315  12.786 -0.0695 -0.0440 -0.0782
 7666W        W23475  14.277  13.543   2.241  0.1950  0.0338  0.1549
 7667W        W23476   2.567   8.895   1.592  0.0182  0.3659  0.1023
 7668W        W23477   1.974  13.437   1.311 -0.1349  0.1686  0.0267
 7669W        W23478   8.465  13.327  11.988 -0.0712  0.1610 -0.3043
 7670W        W23479   1.719   4.508   2.607 -0.0756 -0.0475 -0.1792
 7671W        W23480   2.587  17.143  10.022  0.2427  0.1337 -0.0089
 7672W        W23481   0.019   3.336   5.203  0.1156 -0.1929 -0.1198
 7673W        W23482  10.703  13.365   5.458  0.1858  0.0500 -0.2061
 7674W        W23483  14.119   4.376  11.875  0.1276 -0.1613  0.0621
 7675W        W23484   4.052   6.835   2.197 -0.1407  0.1382 -0.0027
 7676W        W23485  15.030   8.142  10.695  0.2525 -0.1039 -0.2827
 7677W        W23486  17.159  16.474  15.994 -0.0142 -0.0329 -0.1273
 7678W        W23487  11.903   0.715   0.443 -0.3915 -0.1694  0.1336
 7679W        W23488   3.745   7.617   0.985 -0.0120 -0.1877  0.0815
 7680W        W23489  10.397  12.905  12.367 -0.4672 -0.1927 -0.0400
 7681W        W23490  12.241   9.986   2.886  0.0780 -0.1694  0.0618
 7682W        W23491  11.650   1.566   0.057 -0.0597  0.0477  0.1762
 7683W        W23492   3.651   9.732  11.550  0.1448 -0.0137 -0.0336
 7684W        W23493   4.820   0.022  14.562 -0.1522  0.1681  0.1542
 7685W        W23494   9.526  12.475  13.600 -0.0738 -0.2369 -0.1204
 7686W        W23495  12.614   7.156  13.557  0.1822  0.1868 -0.1252
 7687W        W23496   1.431   1.916  13.169 -0.2512  0.0892 -0.0090
 7688W        W23497  15.498   1.399   3.215  0.0330  0.1858 -0.1602
 7689W        W23498   0.132  10.312  14.906 -0.2862 -0.1699  0.2800
 7690W        W23499  13.883  11.995   4.448  0.0789 -0.3010 -0.0498
 7691W        W23500  15.943  10.171   5.558  0.0813 -0.0926  0.0654
 7692W        W23501  11.487   7.741  15.374 -0.0982 -0.0222  0.1774
 7693W        W23502  10.563   1.637  11.783 -0.3460 -0.4954  0.0907
 7694W        W23503  17.003   1.245  14.522  0.0093 -0.1467  0.2138
 7695W        W23504  16.011  13.621  11.739 -0.1725  0.0559  0.0566
 7696W        W23505   7.405   5.222   2.662  0.1185  0.0503  0.0545
 7697W        W23506   0.221   8.304  16.002  0.0141 -0.3656  0.0724
 7698W        W23507  16.281  17.317  12.956 -0.1515  0.0245 -0.1014
 7699W        W23508   7.922   2.677  14.473 -0.1915  0.2248 -0.2154
 7700W        W23509   8.509   3.302   3.756 -0.1431  0.2246  0.0635
 7701W        W23510   7.068  14.372  15.216 -0.0548 -0.3470  0.0375
 7702W        W23511   6.676  11.409  15.568  0.0729 -0.3374  0.0879
 7703W        W23512   7.075   8.303   0.558  0.0681 -0.0145  0.0028
 7704W        W23513  16.463  15.865   0.604 -0.2375  0.0566  0.0535
 7705W        W23514   7.464  18.268  11.349 -0.1431  0.1751  0.0446
 7706W        W23515   9.171   3.915  15.671  0.1332  0.0225  0.0146
 7707W        W23516   9.446   1.398   2.836  0.2104 -0.0805  0.1731
 7708W        W23517   1.541  17.719   3.866 -0.0045  0.2627 -0.2401
 7709W        W23518   5.006   4.142  11.378 -0.0258 -0.1195 -0.3916
 7710W        W23519  11.742  10.036  15.573 -0.3723  0.0428  0.1445
 7711W        W23520  13.352   1.447  11.726 -0.2006 -0.3281 -0.1154
 7712W        W23521   6.806  10.779   2.527 -0.0300  0.1954 -0.0297
 7713W        W23522  15.573  16.099   2.435  0.0615 -0.3021 -0.0069
 7714W        W23523   3.589   4.630  11.449 -0.0493 -0.0557  0.1151
 7715W        W23524   7.827  16.048   2.992  0.2104  0.1403 -0.2034
 7716W        W23525   7.058   7.869  12.353  0.0996  0.1192  0.1026
 7717W        W23526  12.702  15.876   0.673 -0.0290  0.1665  0.1243
 7718W        W23527   2.043   1.465  11.247  0.0494 -0.1499 -0.3547
 7719W        W23528  13.546  16.291   0.715  0.0597  0.1404  0.3267
 7720W        W23529  12.701  14.751   1.293  0.2434 -0.0488  0.0239
 7721W        W23530   9.022  14.975  13.473  0.0394  0.2071 -0.0057
 7722W        W23531  10.632   7.403   0.864 -0.1525 -0.0566 -0.1044
 7723W        W23532  17.087   4.503   3.997 -0.0728 -0.0185 -0.1576
 7724W        W23533  13.612   0.384  13.371 -0.4079  0.0366 -0.1846
 7725W        W23534   0.598   9.512   0.636 -0.2948  0.0454  0.1917
 7726W        W23535   8.844  13.191  14.646 -0.2729  0.1951 -0.2636
 7727W        W23536   9.557   6.944  12.680  0.1496 -0.0641 -0.2570
 7728W        W23537   0.952  11.574  13.735 -0.1907  0.0901  0.2844
 7729W        W23538   6.693   0.235  15.401  0.2346  0.3313 -0.2969
 7730W        W23539  12.356  17.744   1.162  0.0988  0.1937  0.1317
 7731W        W23540  17.944   3.366  15.197 -0.1142  0.2110  0.1632
 7732W        W23541   2.170  16.767   3.595 -0.1109  0.1882 -0.0110
 7733W        W23542   3.223   2.962   3.389  0.0569 -0.0273 -0.2079
 7734W        W23543  13.077   6.693  12.678 -0.3529  0.0990 -0.1492
 7735W        W23544   9.237  18.026  10.638  0.0562 -0.4160  0.0628
 7736W        W23545  11.996   3.644   5.126 -0.0406  0.1571 -0.3719
 7737W        W23546  14.904  12.825   5.309  0.1020 -0.0780 -0.2031
 7738W        W23547   5.071  10.440   3.553 -0.0733 -0.2552 -0.2982
 7739W        W23548   6.715   7.434   2.004 -0.1617  0.1803  0.1141
 7740W        W23549  18.057   2.991   4.919 -0.0022 -0.2017  0.1942
 7741W        W23550   6.552   0.361   4.134  0.0317 -0.2138  0.0117
 7742W        W23551  17.950  11.610   0.654 -0.0873  0.0432 -0.1271
 7743W        W23552   2.336  15.822  15.779  0.2200  0.1055 -0.1581
 7744W        W23553   3.147   5.296   1.530 -0.2740  0.0492  0.0161
 7745W        W23554  10.277   7.307   4.155 -0.1474  0.0563 -0.0990
 7746W        W23555   3.320  15.624   4.083  0.0941 -0.0754  0.3218
 7747W        W23556   1.061  15.136  15.179 -0.2737 -0.1350 -0.0023
 7748W        W23557   0.866   8.766  12.752 -0.0239 -0.0021  0.1334
 7749W        W23558  13.933   5.805   4.188 -0.3178 -0.4944  0.0462
 7750W        W23559   9.190  15.147  12.996 -0.0917 -0.2624  0.1944
 7751W        W23560  14.910  15.603  11.450  0.3619  0.2087  0.0934
 7752W        W23561  12.311   1.932   3.711 -0.0530  0.2492  0.1084
 7753W        W23562  15.706   7.463  14.768  0.1834  0.1010  0.0250
 7754W        W23563   3.792   0.090   0.286 -0.3983 -0.1082 -0.2407
 7755W        W23564   6.692   7.704   2.482  0.2674 -0.0194 -0.1127
 7756W        W23565  11.162  10.203   2.511 -0.1356  0.1185  0.0427
 7757W        W23566   3.977  17.608   2.872  0.1766 -0.0995  0.0908
 7758W        W23567   6.744  12.337   1.419  0.0431  0.3793  0.2934
 7759W        W23568  14.158  17.934  13.859  0.1571 -0.0221  0.0150
 7760W        W23569  12.751  11.661  14.378 -0.1872  0.1156 -0.1253
 7761W        W23570   6.971  11.446  14.025  0.1425 -0.2810 -0.0670
 7762W        W23571  13.943   6.125   2.966  0.1694  0.0223 -0.1186
 7763W        W23572   9.215   7.060  13.088  0.0966 -0.3653 -0.2228
 7764W        W23573   7.251   4.527  15.809 -0.1608  0.2311 -0.0913
 7765W        W23574   5.741  11.030   0.750  0.1229  0.0025 -0.3096
 7766W        W23575   6.969   6.807  12.757 -0.1079 -0.0450  0.0768
 7767W        W23576  13.385  15.900   2.741 -0.2161 -0.0896  0.3812
 7768W        W23577  14.783   3.603  11.669  0.0087  0.3295  0.2098
 7769W        W23578  11.357   6.769   5.048  0.3463 -0.1278  0.0557
 7770W        W23579  10.201   2.873  14.299 -0.1326 -0.1069 -0.0171
 7771W        W23580  16.384   3.659  15.030 -0.0165 -0.3656  0.0804
 7772W        W23581  12.679   1.044   5.185  0.0418  0.0293  0.1351
 7773W        W23582   3.580   5.129  14.663 -0.1410 -0.0258  0.0406
 7774W        W23583  15.013   9.961  15.199 -0.1277  0.0691  0.2452
 7775W        W23584   8.755  16.166   3.946  0.0936 -0.1864  0.0287
 7776W        W23585  14.952  14.257   4.136  0.3846 -0.1411  0.1590
 7777W        W23586   1.858   6.202   0.290  0.0906 -0.3240  0.0881
 7778W        W23587   9.489  10.245   2.149 -0.4717  0.0282  0.0256
 7779W        W23588   6.013  11.695  12.549  0.0156 -0.1332 -0.1435
 7780W        W23589  16.997  16.649  15.532 -0.0498  0.1257 -0.1482
 7781W        W23590   1.524   8.335   1.066 -0.3553  0.0821  0.1081
 7782W        W23591   2.617   7.867  11.703  0.0910  0.2558 -0.0457
 7783W        W23592  13.496   3.037   0.735  0.0278 -0.3822  0.1059
 7784W        W23593  14.024  16.124   0.964 -0.1844  0.2965 -0.0440
 7785W        W23594   5.855   7.861   2.581 -0.3508 -0.0027 -0.1122
 7786W        W23595   9.761   7.271  11.114  0.0477 -0.3701 -0.1462
 7787W        W23596   4.770  12.351   3.124 -0.0618  0.0830 -0.1851
 7788W        W23597   4.875  13.130  15.931 -0.0528 -0.0729 -0.0089
 7789W        W23598   4.406  17.401  15.420 -0.0553 -0.0877 -0.1433
 7790W        W23599   6.268  13.416  13.196  0.0045 -0.0056 -0.1710
 7791W        W23600   5.063   2.184  13.698  0.1385 -0.0479  0.2686
 7792W        W23601  11.239   1.723   2.291  0.2223  0.2843 -0.0419
 7793W        W23602  15.839  13.061  14.622  0.1254 -0.3574 -0.1214
 7794W        W23603  16.245   3.252  12.576  0.1154 -0.0893 -0.2612
 7795W        W23604   9.558   2.197  14.695 -0.0154 -0.2612 -0.3104
 7796W        W23605   8.177   3.631  13.285  0.0084  0.0163 -0.2080
 7797W        W23606   5.475   2.997  14.054  0.2329 -0.0423 -0.0079
 7798W        W23607   3.250   7.460   3.234  0.2562  0.0402  0.1242
 7799W        W23608   2.836   2.087  13.928  0.0571 -0.1226  0.2898
 7800W        W23609  15.066  16.472  12.972  0.0374  0.0013  0.1669
 7801W        W23610   0.903   2.830  15.746 -0.1233 -0.1487 -0.0525
 7802W        W23611   0.477   5.139  12.654  0.1196 -0.2432 -0.2657
 7803W        W23612  11.120  10.081  11.508 -0.0115  0.2886  0.0125
 7804W        W23613   8.651   5.040   4.172 -0.0068  0.1031  0.0485
 7805W        W23614   0.022  17.255   4.606  0.3328  0.1004 -0.2240
 7806W        W23615   0.803   3.040   2.839  0.0469 -0.0599 -0.0392
 7807W        W23616   5.792  15.179  15.735  0.1651  0.2556  0.3338
 7808W        W23617   5.339  10.399   1.334 -0.2147 -0.2756 -0.1195
 7809W        W23618   7.061   6.984   2.072 -0.2248  0.1672 -0.0630
 7810W        W23619  16.423   6.957   6.057  0.3296  0.2283  0.1503
 7811W        W23620   6.835  16.519  16.065 -0.1005  0.2338 -0.2020
 7812W        W23621  10.761   0.996  11.727  0.4400 -0.2381 -0.1706
 7813W        W23622   1.989   1.992  12.450  0.0434 -0.0699 -0.0403
 7814W        W23623  12.588  13.971   1.810 -0.1273 -0.2208  0.2919
 7815W        W23624   2.939  14.472  14.690 -0.2842  0.2124  0.0614
 7816W        W23625  16.653  11.104  12.060 -0.1739 -0.0567  0.1176
 7817W        W23626   3.541   6.336   0.754  0.4230  0.0763  0.1413
 7818W        W23627  15.328   7.681  12.533 -0.1342 -0.2777 -0.5039
 7819W        W23628   2.371  11.065   0.357  0.0440 -0.0975 -0.0992
 7820W        W23629   0.653  11.767   0.889 -0.3039 -0.1799  0.2527
 7821W        W23630   5.445  14.895   4.034  0.0709 -0.0688  0.0182
 7822W        W23631   1.922   4.393   3.859  0.0314 -0.0544  0.1227
 7823W        W23632   9.353  11.540   3.776  0.3514 -0.2281  0.1341
 7824W        W23633  15.009   4.535  13.031  0.1858 -0.2698 -0.0703
 7825W        W23634   8.457  15.285   5.590  0.0132 -0.0119  0.0320
 7826W        W23635   8.869  10.117  10.591 -0.5181 -0.1726 -0.0233
 7827W        W23636  17.959   6.354   4.569  0.0305  0.2088 -0.0214
 7828W        W23637   6.863   4.223  12.863 -0.3623  0.0500 -0.0674
 7829W        W23638  17.544   7.168   4.056  0.1047 -0.1268  0.2954
 7830W        W23639   6.328  14.461  11.662  0.2546 -0.1356  0.0266
 7831W        W23640   4.199   8.908   4.151 -0.1404 -0.0122 -0.0997
 7832W        W23641   7.997  11.130   1.735  0.2814  0.3760 -0.2893
 7833W        W23642   6.831  17.543   5.167 -0.0270 -0.0295 -0.1977
 7834W        W23643   6.619  11.572  15.135 -0.4069  0.1142  0.2031
 7835W        W23644  10.742   0.168   2.403  0.2379  0.0095 -0.0008
 7836W        W23645   1.256  16.116   3.660  0.1027 -0.3222  0.1124
 7837W        W23646  15.935  11.112   4.971 -0.3785 -0.0994  0.1110
 7838W        W23647  14.574   6.756  13.117  0.1484 -0.2052  0.0944
 7839W        W23648  17.195  12.423   5.306  0.2189 -0.0323 -0.0006
 7840W        W23649   5.351  13.841  14.148 -0.0822 -0.0424 -0.1273
 7841W        W23650   6.808   4.674  15.657  0.1959 -0.0673  0.0744
 7842W        W23651  15.151   0.538   5.208  0.3520 -0.1399  0.0052
 7843W        W23652   1.235  16.928   5.487 -0.0882 -0.3387  0.3985
 7844W        W23653   6.310  11.760  13.038  0.0516 -0.0337  0.0401
 7845W        W23654   5.311  18.247   1.001  0.1531  0.0116 -0.2956
 7846W        W23655   6.431   2.432  14.797  0.1304 -0.2405 -0.2109
 7847W        W23656  14.956   7.126   2.672 -0.1793 -0.2404 -0.2842
 7848W        W23657  12.453  15.559  13.974  0.1032  0.1287 -0.2840
 7849W        W23658   9.085   2.563   2.378 -0.1885  0.0720  0.3201
 7850W        W23659   4.134  11.667   1.198  0.1434 -0.0962  0.2205
 7851W        W23660  16.962   0.274   5.136 -0.3017  0.0988  0.0242
 7852W        W23661  11.770   4.046  13.818  0.2404 -0.1933  0.0993
 7853W        W23662   5.747  12.020   1.637 -0.1707 -0.1414 -0.0227
 7854W        W23663  17.635  10.458  13.456 -0.0511 -0.2032 -0.0444
 7855W        W23664   8.432   6.916  15.828 -0.2769 -0.2991 -0.0064
 7856W        W23665  11.911  11.212   4.762  0.3444  0.1650 -0.1698
 7857W        W23666   4.409   1.667  13.062 -0.1163 -0.0046 -0.0591
 7858W        W23667   0.563  11.153  11.464  0.1640 -0.1144 -0.0101
 7859W        W23668   8.336   8.221  12.515  0.0495  0.0997 -0.0588
 7860W        W23669  13.017  15.089  11.532 -0.0408 -0.3810 -0.1353
 7861W        W23670  15.393  13.341   2.044  0.0015  0.0495 -0.2245
 7862W        W23671   3.392   1.262  13.882  0.1100  0.0237 -0.1344
 7863W        W23672   7.503  11.911   2.490  0.0360 -0.3103 -0.2183
 7864W        W23673   3.566   0.937  10.752  0.0157 -0.2353 -0.1671
 7865W        W23674   6.840   2.424  13.380  0.3647  0.1507 -0.1882
 7866W        W23675  13.197  14.194   4.926 -0.1343 -0.0366 -0.1420
 7867W        W23676  13.685   9.259  13.356 -0.0393  0.0167 -0.1344
 7868W        W23677  15.897  15.422   1.304 -0.3296  0.0731 -0.1752
 7869W        W23678   9.136   9.118  12.806 -0.1364 -0.0522  0.1059
 7870W        W23679   1.718   7.336  11.559  0.1890  0.0849  0.0551
 7871W        W23680   3.579  15.033  11.362 -0.1648 -0.0022 -0.4131
 7872W        W23681  10.066   1.663  11.771 -0.1946 -0.1134  0.0962
 7873W        W23682  12.107  13.916   1.769  0.0736  0.1535  0.1355
 7874W        W23683  16.203   4.796  14.925 -0.1460  0.0995  0.0301
 7875W        W23684   5.075   0.388  12.458  0.0768  0.0708  0.2744
 7876W        W23685  15.767   3.756   0.112  0.3802  0.2859 -0.1068
 7877W        W23686   2.540   6.464   2.896 -0.1722  0.2042  0.1167
 7878W        W23687   9.259   5.040   3.631 -0.0728 -0.1218 -0.2742
 7879W        W23688   6.511   4.004   0.131  0.3062  0.1475 -0.0604
 7880W        W23689  11.580   2.858  14.276  0.1141  0.0661  0.1328
 7881W        W23690  14.134   3.792   2.657 -0.2973 -0.1640  0.0999
 7882W        W23691   2.695  16.854   4.502 -0.0030 -0.0054  0.2326
 7883W        W23692  17.914  18.255  15.625  0.0594  0.3190 -0.2599
 7884W        W23693  12.122  13.288  11.519 -0.0158 -0.0925  0.3164
 7885W        W23694   2.634   0.910   0.222 -0.0492 -0.0549  0.0807
 7886W        W23695   4.809  15.557   3.069 -0.4039  0.0021 -0.0691
 7887W        W23696   5.432   9.720   3.956  0.0111  0.1455 -0.1566
 7888W        W23697  15.199  16.328  12.198  0.1712  0.1556  0.0544
 7889W        W23698   3.272   6.081  12.833 -0.2617 -0.0567  0.0509
 7890W        W23699   5.700   2.686  15.349 -0.0451  0.1968 -0.0803
 7891W        W23700   1.152   7.153   2.512 -0.0557  0.0487  0.3119
 7892W        W23701  12.090   5.691  14.417 -0.0743  0.3017 -0.0238
 7893W        W23702   0.865  13.526  14.939 -0.1031 -0.4929 -0.0432
 7894W        W23703  13.195  12.866  13.028 -0.1128 -0.2389 -0.0997
 7895W        W23704   9.176  12.211  15.433  0.2970 -0.0662 -0.0002
 7896W        W23705   1.387   2.075   0.716  0.1763 -0.1625  0.1216
 7897W        W23706   6.568  14.531   4.930 -0.1080 -0.1658 -0.1834
 7898W        W23707  16.935   4.160  12.002 -0.0054  0.2693  0.1200
 7899W        W23708   0.705   4.544  11.642 -0.1105 -0.1530  0.1014
 7900W        W23709  10.099  15.136  14.943  0.2005 -0.0674 -0.2096
 7901W        W23710  10.894  13.257   4.950 -0.1278 -0.3391  0.0964
 7902W        W23711   1.710   8.821   3.359 -0.1507  0.0452  0.4106
 7903W        W23712   3.051  13.513   2.987  0.0126 -0.1551  0.0038
 7904W        W23713   3.943  15.367  11.112 -0.0834  0.0451 -0.1701
 7905W        W23714  17.457   3.800   5.041  0.1309 -0.0379 -0.0298
 7906W        W23715   8.973   9.127  10.220  0.2115 -0.3229 -0.1084
 7907W        W23716   8.378   1.791  14.993  0.2872 -0.1682  0.4852
 7908W        W23717   5.499  11.054   5.767 -0.1284  0.1147 -0.0620
 7909W        W23718   8.836  12.085   2.694 -0.0669 -0.1221  0.1526
 7910W        W23719  16.637   7.249   1.242 -0.0878 -0.0195 -0.0461
 7911W        W23720   0.317  13.972  11.278 -0.2321 -0.1471  0.0827
 7912W        W23721  12.459  17.975  10.691 -0.0003 -0.3363  0.0560
 7913W        W23722   4.625   5.612   9.666  0.0827 -0.3074  0.0488
 7914W        W23723   8.087   4.862  13.342 -0.1138 -0.3171  0.1826
 7915W        W23724  12.531  15.854   4.816 -0.2181  0.0130 -0.1150
 7916W        W23725   6.354   4.907  10.065  0.1803 -0.2233  0.0238
 7917W        W23726  15.824  16.962  14.305  0.0840 -0.0230  0.0032
 7918W        W23727  10.933  15.576   0.354  0.1459 -0.0313  0.0643
 7919W        W23728   1.900   1.188   4.338  0.3357 -0.0093  0.0477
 7920W        W23729   6.911   3.925  12.092  0.1184  0.0306 -0.0434
 7921W        W23730  15.114   8.826  13.089 -0.1974 -0.1093 -0.0187
 7922W        W23731  10.594  11.648  11.264 -0.0057 -0.3303 -0.0515
 7923W        W23732   0.909  12.534  15.734 -0.0304 -0.3003 -0.0390
 7924W        W23733  18.159   2.863   0.815 -0.4117  0.1730  0.1205
 7925W        W23734  16.366  10.759  14.254  0.1144 -0.1213 -0.0045
 7926W        W23735   1.353   1.250   0.686  0.1747 -0.0170  0.1600
 7927W        W23736  16.479   0.677   4.182  0.1712  0.0223  0.0623
 7928W        W23737   5.005  13.477   1.111  0.2080  0.0688  0.1244
 7929W        W23738  18.090   3.726  11.384 -0.1610 -0.0870 -0.1570
 7930W        W23739   6.899  15.200   3.305  0.1027 -0.0329  0.0505
 7931W        W23740   5.294   2.787   2.047 -0.0929 -0.0913 -0.2643
 7932W        W23741   0.056  11.626   4.927  0.3163  0.3395  0.0647
 7933W        W23742  16.249   5.189  13.084  0.0518 -0.0829 -0.0381
 7934W        W23743   4.218  15.194   1.414  0.3685  0.2216 -0.0856
 7935W        W23744  14.089   0.415   1.739  0.0603 -0.3631 -0.0270
 7936W        W23745   0.596  17.717   2.483 -0.2178 -0.3785 -0.0836
 7937W        W23746  12.974  13.535   4.156 -0.2124 -0.4672 -0.0239
 7938W        W23747  17.010  15.247   3.225 -0.0368 -0.0594  0.0246
 7939W        W23748   2.039  13.109   1.740 -0.0498 -0.2443  0.1483
 7940W        W23749   0.132   0.657   5.518 -0.2724  0.0836 -0.0482
 7941W        W23750  14.931  12.982  14.739  0.1626 -0.2490 -0.1435
 7942W        W23751   1.458  15.556  12.581 -0.0619  0.1765 -0.0721
 7943W        W23752   4.671  17.902   4.756  0.0737 -0.2375 -0.0068
 7944W        W23753   7.315  10.193   0.162  0.0347 -0.0518 -0.3517
 7945W        W23754  15.806   4.494  11.769 -0.0027  0.1054 -0.1960
 7946W        W23755  10.821   1.583   4.936  0.0487  0.2829 -0.0055
 7947W        W23756  16.241   5.598  11.426 -0.0110 -0.0233 -0.0898
 7948W        W23757   2.217  13.795   5.802 -0.1088  0.1917 -0.1502
 7949W        W23758  10.160   6.826   1.264 -0.1549  0.0132  0.0738
 7950W        W23759   6.915   8.382  12.566  0.1502  0.0178  0.2042
 7951W        W23760  18.110   5.806  14.350  0.0921  0.2822  0.2676
 7952W        W23761   8.732   7.216  11.500 -0.3777 -0.2866 -0.2589
 7953W        W23762  17.784  17.126   4.634 -0.3300 -0.0602 -0.0946
 7954W        W23763   6.557  15.427   0.730 -0.1815 -0.1556 -0.2191
 7955W        W23764   3.033   6.475  13.140  0.1410  0.1688  0.0305
 7956W        W23765   6.152   8.211  13.784  0.2336 -0.0016 -0.0087
 7957W        W23766  10.040   9.912  13.694 -0.1458 -0.1594  0.0756
 7958W        W23767  11.032   1.870  14.127  0.2324 -0.0279 -0.0162
 7959W        W23768   7.158  17.359  15.625  0.0212  0.2055  0.2840
 7960W        W23769   5.243   4.542  15.511 -0.2444  0.0618 -0.1207
 7961W        W23770   6.449  13.585   2.117 -0.3670  0.1242  0.1336
 7962W        W23771  10.117  12.300   0.168 -0.0031 -0.0427 -0.2112
 7963W        W23772   3.219  15.938   2.947  0.0902 -0.0495 -0.2161
 7964W        W23773  16.970   8.846   4.702  0.3248 -0.1275 -0.0945
 7965W        W23774  16.789   1.110   0.212  0.0295  0.0511  0.3176
 7966W        W23775  13.201  11.866  12.449  0.0614 -0.0018  0.1209
 7967W        W23776   5.209   6.301  14.713  0.1578 -0.0339  0.0260
 7968W        W23777   9.311   2.932   0.159  0.2899  0.2819 -0.0013
 7969W        W23778  11.947  12.360  12.972 -0.1896  0.0202 -0.2604
 7970W        W23779   3.705   2.762   1.499 -0.0169  0.1172 -0.0873
 7971W        W23780  10.604   4.793   3.023 -0.0800  0.0801  0.0790
 7972W        W23781  14.934  16.815  14.282  0.0503  0.0082 -0.1726
 7973W        W23782   4.793   1.866  14.015 -0.1216 -0.1778 -0.2881
 7974W        W23783   0.314   1.312  14.126  0.0340  0.2393  0.1421
 7975W        W23784  14.783  11.545  16.052 -0.3497  0.0311  0.0943
 7976W        W23785  11.321   1.829   1.738 -0.0038  0.0224  0.1523
 7977W        W23786   7.355  16.687  15.987  0.1118 -0.3133  0.3440
 7978W        W23787   8.756  15.820   3.240 -0.1504  0.0521 -0.3944
 7979W        W23788   6.740  13.151   4.608 -0.0331  0.0199  0.1342
 7980W        W23789   6.961  13.841  10.674 -0.0790 -0.2465  0.0594
 7981W        W23790  17.281   2.600  12.374  0.2521 -0.0830 -0.0805
 7982W        W23791   6.852  15.198  14.556 -0.3839 -0.1494  0.0222
 7983W        W23792   9.216  10.622  15.841 -0.1801  0.0799  0.0906
 7984W        W23793  11.663   0.943  13.816 -0.3690 -0.0746 -0.0604
 7985W        W23794  17.212   0.192  10.443 -0.0290  0.0497  0.4362
 7986W        W23795  15.252  10.744   0.388 -0.2388  0.3030 -0.0187
 7987W        W23796  13.105   4.083   2.839 -0.0949 -0.0712  0.3311
 7988W        W23797   1.970  13.356   4.566  0.2206 -0.2726 -0.0685
 7989W        W23798   0.657  14.508   2.750 -0.1790 -0.2056  0.2840
 7990W        W23799   7.573   0.406  11.026  0.3491  0.0165  0.0562
 7991W        W23800  17.098  10.037  16.044  0.1709  0.0079 -0.1225
 7992W        W23801  16.402   1.939   5.151 -0.1031 -0.0103  0.1571
 7993W        W23802   0.396   5.435  15.332  0.2253  0.0390  0.2676
 7994W        W23803   9.459   1.849  13.628 -0.1324 -0.3957  0.3055
 7995W        W23804   1.675   2.780  13.056 -0.1887 -0.0749  0.0682
 7996W        W23805   5.521  16.059  11.805  0.2792 -0.1218  0.1949
 7997W        W23806   0.996  17.641  10.912  0.0531  0.1072 -0.2172
 7998W        W23807   1.304   3.262  14.422  0.1320 -0.1169  0.3969
 7999W        W23808  14.588  16.574   3.008 -0.0058 -0.1770 -0.0197
 8000W        W23809   7.343   1.447   4.103  0.1740  0.4209  0.1141
 8001W        W23810   6.562   3.631  10.633 -0.1490  0.1351 -0.1153
 8002W        W23811  10.575   3.319   2.602 -0.1972 -0.0052 -0.2727
 8003W        W23812  15.891   8.186   1.198  0.3422 -0.0025 -0.1675
 8004W        W23813   5.035  11.629   1.112 -0.4068  0.3035  0.1699
 8005W        W23814   3.943   5.368  11.471 -0.0808 -0.0581 -0.2229
 8006W        W23815  10.060   0.320   3.196  0.0626  0.0886 -0.0528
 8007W        W23816   4.339   7.682   0.481  0.1415  0.1553  0.0844
 8008W        W23817   2.963  10.471  15.385  0.1418  0.1282  0.2360
 8009W        W23818   3.312  10.788  14.712  0.0626  0.0278  0.1887
 8010W        W23819   8.539   8.313   2.784  0.0686  0.1744 -0.1886
 8011W        W23820  10.550  12.077   1.321 -0.0088 -0.0471  0.2658
 8012W        W23821  16.416  14.414   4.743 -0.0200 -0.1326 -0.1935
 8013W        W23822   6.765   2.796  14.608  0.0434 -0.2602  0.1566
 8014W        W23823  17.506   0.389  14.555  0.0644 -0.2037 -0.0428
 8015W        W23824  14.100   8.302   0.626 -0.3735 -0.2983 -0.1108
 8016W        W23825   7.252  14.522   1.236 -0.0064  0.3562 -0.0935
 8017W        W23826   8.366   2.179  15.295  0.1502 -0.2016 -0.0893
 8018W        W23827   1.369   4.544   0.156 -0.0547  0.0522  0.1242
 8019W        W23828  11.851  17.462  15.424 -0.1632  0.0902 -0.0965
 8020W        W23829   8.789   0.406  14.960  0.1759  0.0664  0.2292
 8021W        W23830  15.781   1.019  13.203  0.0649  0.1380  0.1324
 8022W        W23831  16.061   1.764   4.818  0.2678 -0.3620  0.2080
 8023W        W23832  17.639   0.989   1.286 -0.0735  0.0373  0.2422
 8024W        W23833  17.819  10.675   3.027 -0.1367  0.0132 -0.1460
 8025W        W23834  16.069  17.847  14.456 -0.1636 -0.2856  0.3023
 8026W        W23835   3.205   6.439   1.224  0.0382 -0.2514 -0.3449
 8027W        W23836   3.275   1.106   1.511 -0.2979  0.0343  0.0379
 8028W        W23837   2.852   2.360   1.601 -0.0809  0.3382 -0.0959
 8029W        W23838   6.338   9.354   4.754  0.0191 -0.0710  0.0220
 8030W        W23839  13.473  11.133   4.028  0.0169  0.0623 -0.1227
 8031W        W23840   1.100  13.945   1.947 -0.3115 -0.2456  0.0503
 8032W        W23841  18.167   1.981   0.730 -0.0522  0.1550  0.2167
 8033W        W23842   9.580  17.062   3.651 -0.3490 -0.3260 -0.2737
 8034W        W23843   3.640  10.377  12.947 -0.1222  0.2197 -0.1208
 8035W        W23844  17.180  14.735   3.041  0.0244  0.0996 -0.1360
 8036W        W23845   5.297   8.560  13.268  0.1615 -0.0206 -0.4543
 8037W        W23846  12.414   3.903   5.253 -0.0037  0.1373  0.0498
 8038W        W23847  15.307   9.708   2.605  0.0720  0.0023 -0.1088
 8039W        W23848  17.339   7.018   2.277 -0.2030 -0.0424  0.2065
 8040W        W23849  14.915  17.776  13.796  0.1843 -0.0349  0.2678
 8041W        W23850   9.186   7.307   5.255  0.0208  0.0768 -0.0421
 8042W        W23851   9.321   8.251  15.132 -0.1341 -0.0685  0.2723
 8043W        W23852  17.170   8.023  13.689 -0.4283  0.1335 -0.3125
 8044W        W23853  10.661   7.074  12.271 -0.0071  0.1455 -0.0147
 8045W        W23854   2.780   0.357   4.593  0.0617  0.2616 -0.0692
 8046W        W23855  15.991  15.592  13.659 -0.3943 -0.1118  0.0904
 8047W        W23856   4.415  16.888   4.048  0.2433  0.1247 -0.1641
 8048W        W23857  11.731   2.516  15.775 -0.0780  0.0592  0.2033
 8049W        W23858  17.656   3.668   1.447  0.1072 -0.0904 -0.0570
 8050W        W23859  17.192  11.060   9.715  0.0377  0.3311 -0.0458
 8051W        W23860   0.846   8.897   9.974  0.4280 -0.0798 -0.2030
 8052W        W23861  14.164  17.576   3.555  0.0301 -0.2432 -0.1453
 8053W        W23862   5.300   2.683  14.456 -0.3134 -0.1095 -0.0547
 8054W        W23863  10.909   7.133   3.768  0.2617 -0.1548 -0.0264
 8055W        W23864  16.490   8.714   1.093 -0.2149 -0.2446 -0.3350
 8056W        W23865   0.922  13.243   1.179  0.1235 -0.2604  0.1066
 8057W        W23866  11.393  15.646  14.476  0.2132 -0.3890  0.2250
 8058W        W23867   0.688   5.691   1.538  0.0886  0.2139 -0.0331
 8059W        W23868  11.878  13.483   4.969  0.3782  0.0394  0.0238
 8060W        W23869  12.499   9.642   4.628  0.0969  0.0843 -0.1369
 8061W        W23870   1.861   1.156   0.795  0.0377  0.0229 -0.0861
 8062W        W23871  16.316  10.424  15.852  0.1275  0.1231 -0.1492
 8063W        W23872   5.997  11.933   0.669  0.0202  0.2454  0.0442
 8064W        W23873   7.009   9.610  12.019 -0.3876 -0.2197  0.0100
 8065W        W23874  14.065  16.012  11.757  0.2076 -0.1100 -0.0868
 8066W        W23875   8.275   8.451   5.391 -0.0497 -0.0641  0.1588
 8067W        W23876   8.330   6.088   2.456  0.1087  0.1185 -0.0694
 8068W        W23877  16.385   2.426   5.318 -0.0191 -0.1611 -0.2253
 8069W        W23878  15.909  16.035   4.722 -0.2691  0.2286 -0.0529
 8070W        W23879   0.120  12.788   5.295 -0.0444 -0.1949 -0.1946
 8071W        W23880  17.744   9.601   1.843  0.2561 -0.0753 -0.2641
 8072W        W23881  12.331  12.592   2.103  0.0097  0.2770  0.0105
 8073W        W23882  10.821  14.801   0.685 -0.3112 -0.2700  0.0158
 8074W        W23883  13.248   3.271  14.543  0.0186  0.0908  0.1719
 8075W        W23884   7.620   7.940  10.402  0.2193  0.0399 -0.1069
 8076W        W23885   7.955   8.255  10.167 -0.0191 -0.0374 -0.1954
 8077W        W23886   9.616   3.926   5.287 -0.4707 -0.1505 -0.3129
 8078W        W23887   8.620  12.830  14.990  0.0436  0.2565 -0.1017
 8079W        W23888   0.095   4.637   1.315 -0.0527  0.0386 -0.0099
 8080W        W23889  17.286   8.797  14.730  0.2569 -0.0511  0.0798
 8081W        W23890  12.008  13.115  15.634  0.2599  0.1330 -0.2690
 8082W        W23891  15.641   5.712   4.729 -0.3270 -0.0694  0.0519
 8083W        W23892   1.055   2.461   2.006  0.0282  0.0334 -0.0917
 8084W        W23893   3.890   0.927   1.944 -0.0694  0.0030  0.3188
 8085W        W23894   9.138   5.085   1.796  0.0574 -0.3436 -0.1827
 8086W        W23895  16.945   5.773   3.876  0.2839  0.0587  0.1172
 8087W        W23896  15.472   9.922  14.921  0.0481 -0.4073  0.3523
 8088W        W23897  17.367  14.852  11.018 -0.1409  0.0630  0.1847
 8089W        W23898  10.911   5.818   5.835 -0.1810  0.2860 -0.1160
 8090W        W23899  11.955   5.155  12.730 -0.1143  0.0083  0.1586
 8091W        W23900   1.575  15.242  16.018  0.0517 -0.0305 -0.2020
 8092W        W23901   0.485   8.381  12.776  0.0094 -0.4312 -0.1843
 8093W        W23902   4.369   7.741  10.393 -0.0808 -0.0263  0.2001
 8094W        W23903   4.247  11.176  13.455 -0.0179  0.0040  0.1580
 8095W        W23904  14.549   3.419  14.063  0.3520  0.2153 -0.0600
 8096W        W23905   5.841  18.063   0.638 -0.1267 -0.3028  0.2360
 8097W        W23906  16.930   3.918  16.007  0.1749  0.2275 -0.0987
 8098W        W23907  12.726  14.239  13.596  0.2727 -0.0767  0.2194
 8099W        W23908   7.166   4.214   3.308  0.2058 -0.0367 -0.2360
 8100W        W23909   1.873  15.612  11.231  0.1092  0.0929  0.1697
 8101W        W23910   3.508  18.233   1.236 -0.4019  0.1330  0.0926
 8102W        W23911   0.082  17.606  13.393  0.1473 -0.1498 -0.3150
 8103W        W23912  14.088   4.433  14.035  0.0410  0.1808  0.1651
 8104W        W23913  11.785   7.566   5.737  0.1815  0.0869 -0.1914
 8105W        W23914   3.912  10.428   0.319 -0.1366 -0.0921  0.0137
 8106W        W23915  13.302  10.740   0.400  0.0381 -0.4112  0.0059
 8107W        W23916  16.586  11.902  14.692 -0.0390 -0.2977  0.2476
 8108W        W23917   5.120   2.954   1.159  0.0674  0.0642 -0.1030
 8109W        W23918   7.010   0.673  12.401  0.1850  0.2948  0.0326
 8110W        W23919   3.044  10.113   1.239 -0.2042  0.0706 -0.2639
 8111W        W23920  14.198  13.155  15.204 -0.1358  0.1327  0.0904
 8112W        W23921  15.143  10.174  14.618 -0.1010 -0.0340 -0.6015
 8113W        W23922  17.477   3.479  11.414  0.0680  0.2354  0.0897
 8114W        W23923   7.483   8.413  15.850 -0.2681 -0.0806  0.1933
 8115W        W23924   3.081  10.346   3.145 -0.1461 -0.2936  0.0308
 8116W        W23925   3.938   2.781  11.342 -0.1663 -0.2979 -0.0491
 8117W        W23926   3.635   8.107  11.490  0.1546  0.2056  0.0136
 8118W        W23927  14.927  12.414   1.759 -0.2371  0.0341  0.0106
 8119W        W23928   5.563   3.924   2.591 -0.0044 -0.4039  0.1162
 8120W        W23929   5.218  16.902   3.530  0.1294  0.4415 -0.0961
 8121W        W23930   5.592   4.239   4.413 -0.1364 -0.0063 -0.1286
 8122W        W23931   0.700  10.623   5.606  0.0245 -0.0399 -0.0313
 8123W        W23932  10.941  11.369   3.932 -0.0403  0.4891 -0.2911
 8124W        W23933   4.399  13.603  14.202  0.0004 -0.1664  0.0260
 8125W        W23934   9.806   9.075  13.637  0.2294  0.3714  0.1674
 8126W        W23935   2.768   9.917   2.309  0.4229 -0.3223 -0.2778
 8127W        W23936   6.503  18.125   3.425  0.1297 -0.2248 -0.0216
 8128W        W23937   7.217  16.859   3.937 -0.1347 -0.1383  0.1918
 8129W        W23938  18.142   4.874  13.675 -0.1297  0.3980  0.0943
 8130W        W23939   5.921   4.145  13.530 -0.2027 -0.1281  0.2801
 8131W        W23940   7.641   9.548   5.285  0.0565  0.0346  0.0032
 8132W        W23941   7.955   2.989   5.020 -0.1133 -0.0268  0.2827
 8133W        W23942   0.328   8.491  13.254 -0.3793 -0.0979  0.1260
 8134W        W23943  17.794   6.114   2.084 -0.0926 -0.0803 -0.1938
 8135W        W23944   2.700  15.509  15.491  0.0017  0.1784  0.0946
 8136W        W23945   1.353   3.563  15.599  0.1331  0.1258 -0.1114
 8137W        W23946  13.186  13.875   3.171  0.2012  0.2095 -0.1196
 8138W        W23947   5.968   4.395  13.959 -0.0561  0.1177 -0.2444
 8139W        W23948   8.018  14.873  14.648  0.0961  0.0039 -0.0941
 8140W        W23949  10.517   6.249   2.552  0.0075  0.0693 -0.0363
 8141W        W23950   7.515  10.839  13.714  0.2038  0.3021  0.1168
 8142W        W23951   2.852  14.009  13.569  0.0080 -0.2653  0.0248
 8143W        W23952  15.334   0.498   4.669  0.1043  0.2301  0.0507
 8144W        W23953   9.842   1.058   6.290  0.2589  0.0515 -0.1251
 8145W        W23954   3.666   6.878  11.943 -0.1664 -0.2306  0.0511
 8146W        W23955  11.178   6.559   1.068 -0.1474  0.3684  0.0758
 8147W        W23956   9.558   6.110   4.404 -0.1046  0.0497  0.0595
 8148W        W23957   6.401   7.787  14.181 -0.0592  0.2230 -0.3186
 8149W        W23958  12.652   2.911  11.752 -0.0414  0.2207  0.2108
 8150W        W23959   9.140  10.358  15.274 -0.1366  0.2640  0.1410
 8151W        W23960  13.163  12.677   3.664 -0.0292  0.1803  0.1752
 8152W        W23961   3.396   0.213   4.684  0.1579  0.2224 -0.2016
 8153W        W23962  17.426  13.782   2.546 -0.0926  0.2048  0.0624
 8154W        W23963   9.322   3.476   4.413 -0.0444  0.0444 -0.2493
 8155W        W23964   7.068   6.949  15.838 -0.2225 -0.0236 -0.0185
 8156W        W23965  14.064   4.928  12.782  0.0566  0.1322  0.0922
 8157W        W23966  11.215   9.168  12.761 -0.0017 -0.0484 -0.0419
 8158W        W23967   6.996  13.554   5.564  0.1736 -0.2398 -0.0005
 8159W        W23968   4.133   8.781  15.087  0.1241  0.0801  0.1804
 8160W        W23969   8.307   5.292   1.605 -0.0289 -0.0637  0.0423
 8161W        W23970   3.653   9.589  12.468  0.1611  0.2536 -0.2785
 8162W        W23971  15.853   4.315   5.798 -0.2277  0.0977 -0.2299
 8163W        W23972  11.462  15.491   3.519 -0.0540 -0.2709  0.1803
 8164W        W23973  12.497   6.861   4.441 -0.1352  0.3245 -0.0493
 8165W        W23974   2.767  14.145   2.179  0.1976  0.2016 -0.2407
 8166W        W23975   4.621  16.230  12.120 -0.1026  0.1310  0.1271
 8167W        W23976   2.420  10.588  15.599 -0.0617 -0.0387 -0.0081
 8168W        W23977  15.066  16.110   2.454  0.0303 -0.0468 -0.0502
 8169W        W23978   9.142  11.133   2.128  0.0673  0.1009 -0.0330
 8170W        W23979   8.509  14.508   5.568  0.0000  0.3558 -0.3120
 8171W        W23980   1.655   5.010   1.944 -0.0238  0.2580 -0.0735
 8172W        W23981  12.751  16.002   6.059 -0.0935  0.0849  0.2906
 8173W        W23982  13.476   6.100   5.677 -0.0836  0.1141 -0.0390
 8174W        W23983  12.124   7.944   0.467 -0.0231  0.0527  0.2726
 8175W        W23984   6.791  11.193   3.562 -0.3709  0.0533  0.0714
 8176W        W23985  16.847   6.929  12.116  0.1704  0.2824 -0.0181
 8177W        W23986   5.406  17.737  12.089  0.0322 -0.2130  0.3337
 8178W        W23987   0.925   4.947  12.503  0.1452  0.1906  0.0530
 8179W        W23988  18.127  11.738   2.265  0.1551  0.0126  0.0952
 8180W        W23989  10.376  13.056  14.006 -0.2323 -0.0986  0.1743
 8181W        W23990   8.898  12.511  14.730 -0.4939 -0.2544  0.0979
 8182W        W23991   1.335   3.742   4.178  0.2492 -0.0925 -0.1342
 8183W        W23992   3.885   3.556  15.501 -0.2746  0.3192 -0.3539
 8184W        W23993  12.005  17.858   3.507  0.0751  0.0124  0.0600
 8185W        W23994  14.105  16.748   1.848  0.3100  0.2582 -0.0598
 8186W        W23995  17.232  11.958   0.107 -0.2263 -0.0300 -0.3836
 8187W        W23996  12.696  10.030   4.247 -0.1017 -0.0682  0.0637
 8188W        W23997   3.907  12.964  12.376 -0.1121  0.0281 -0.1057
 8189W        W23998  14.118  11.441  12.089 -0.1094 -0.0351 -0.1287
 8190W        W23999   2.315  16.267  10.704 -0.2075  0.0791 -0.0766
 8191W        W24000   6.700  14.617   1.895 -0.0016 -0.0884 -0.0435
 8192W        W24001   2.078  15.893  15.360 -0.1139  0.1101 -0.2125
 8193W        W24002   6.220  11.152  12.234 -0.0770 -0.2510 -0.0547
 8194W        W24003   0.775   7.106  12.937  0.0583  0.1085 -0.0488
 8195W        W24004  10.943   9.248  14.216 -0.2631  0.2950 -0.0856
 8196W        W24005  17.805  18.225   3.195  0.3400 -0.2110 -0.2306
 8197W        W24006  15.710   3.953  12.611  0.0635 -0.2579 -0.1682
 8198W        W24007   2.184   0.129   5.207  0.1297 -0.3136 -0.0154
 8199W        W24008   5.594  15.562  11.908  0.1138  0.2609 -0.0899
 8200W        W24009   4.766   0.759   2.651 -0.0622 -0.0481  0.1812
 8201W        W24010   4.207  11.302  15.843  0.0255  0.2783  0.1950
 8202W        W24011  11.923  12.879  10.672  0.3542  0.2878 -0.1587
 8203W        W24012   2.936  11.980  15.180 -0.2010 -0.2751 -0.1428
 8204W        W24013   0.202   1.736   0.086 -0.0302  0.0045 -0.0011
 8205W        W24014   5.770   9.985   2.209  0.1363  0.1826  0.0041
 8206W        W24015   0.048   8.716  15.749 -0.1103  0.2619 -0.1588
 8207W        W24016   0.542   3.420   0.338  0.1039 -0.1369  0.5119
 8208W        W24017   7.950  12.291  15.904  0.1105 -0.0920  0.2975
 8209W        W24018  11.180  12.342   4.566  0.1281 -0.1118  0.0326
 8210W        W24019  16.005  12.827  12.839 -0.1560 -0.0668  0.4546
 8211W        W24020  17.464  16.200   6.087  0.0673 -0.2141 -0.0806
 8212W        W24021   1.182   3.230   0.864  0.3556  0.2239  0.2731
 8213W        W24022  12.980   2.320   1.268  0.0716  0.0367  0.0968
 8214W        W24023  14.738   4.222  12.705 -0.1314  0.3878  0.1471
 8215W        W24024   3.017  17.800   2.975  0.2469 -0.1463 -0.2136
 8216W        W24025   1.671  14.440  13.073 -0.1141 -0.2827  0.1539
 8217W        W24026  17.440   7.018   3.558  0.0506  0.0896 -0.0932
 8218W        W24027  14.554  12.633   1.180 -0.3694  0.0307 -0.2730
 8219W        W24028   1.986  11.891  10.823  0.3959  0.4005 -0.2135
 8220W        W24029   4.750  13.984  12.148  0.0588  0.1166 -0.2116
 8221W        W24030  15.073  17.213  12.557  0.4929 -0.0261  0.0657
 8222W        W24031   2.615   2.767   1.830  0.0083 -0.4857 -0.0663
 8223W        W24032   6.850   2.109   1.346 -0.0828 -0.2313 -0.0103
 8224W        W24033  12.424  10.482  15.649 -0.0070  0.2382  0.0145
 8225W        W24034  11.745   8.967   5.558 -0.1257 -0.0373 -0.2989
 8226W        W24035   5.833  13.381  14.979  0.0564  0.0981  0.0095
 8227W        W24036  12.002   1.880   5.526  0.0797 -0.2447 -0.0961
 8228W        W24037  16.994   8.879  13.729  0.0447 -0.0868  0.0633
 8229W        W24038  10.837  11.917   0.414 -0.0327  0.0239 -0.1066
 8230W        W24039  17.438  17.283  14.823 -0.2504  0.0084  0.1249
 8231W        W24040   5.779   7.257   1.092  0.0694 -0.0882  0.1940
 8232W        W24041  16.578  15.706  13.751 -0.1944  0.2088 -0.0766
 8233W        W24042   2.832   0.233   2.676  0.2106  0.0536 -0.0295
 8234W        W24043  17.396  10.632   4.351  0.0823  0.2078  0.1357
 8235W        W24044   5.692   7.475  12.837 -0.1528  0.0167 -0.1582
 8236W        W24045   9.690  14.937   2.450 -0.1565 -0.0690  0.0922
 8237W        W24046   5.365   7.319  13.227 -0.3050 -0.1723  0.0908
 8238W        W24047  14.667  15.316  11.937 -0.0079  0.0940 -0.0938
 8239W        W24048  15.974  16.703  12.105 -0.0867 -0.2495  0.0694
 8240W        W24049  15.313   1.290   2.700 -0.0278 -0.0945  0.0679
 8241W        W24050   0.076  11.441  13.779 -0.0401  0.0668 -0.1699
 8242W        W24051   3.742   3.625   2.901 -0.1741  0.1515  0.2241
 8243W        W24052   5.300   8.089  12.237 -0.0940  0.1208 -0.0833
 8244W        W24053   5.181   7.739  12.954  0.0737  0.2680  0.3299
 8245W        W24054   1.265  14.190   2.819 -0.2143  0.1383 -0.2209
 8246W        W24055  15.276  12.543  13.472  0.1924 -0.2565 -0.3218
 8247W        W24056   2.241  16.845  11.502 -0.0792 -0.0113  0.0011
 8248W        W24057  11.033   9.502   1.989 -0.1298 -0.0794 -0.0644
 8249W        W24058   3.177  17.077   2.658  0.0324 -0.0608 -0.2186
 8250W        W24059  14.210  13.282  13.414 -0.0952 -0.0024 -0.3055
 8251W        W24060   0.407   0.947   2.834  0.3665  0.0893  0.2914
 8252W        W24061  12.671   7.087  10.654  0.3359  0.1926  0.0781
 8253W        W24062  10.581  15.429  16.059  0.2058  0.1177  0.1603
 8254W        W24063   1.484   7.424   4.854  0.2568  0.1211  0.0826
 8255W        W24064  13.715   8.071  12.674  0.1388  0.0954 -0.1054
 8256W        W24065   5.579   1.315   1.172 -0.0227  0.0813  0.0183
 8257W        W24066  15.461  15.489   3.463 -0.1424 -0.0579 -0.0823
 8258W        W24067   6.662  12.188   0.070  0.3063 -0.0771 -0.2141
 8259W        W24068   3.188  13.526  13.757 -0.2867 -0.2613  0.2077
 8260W        W24069  12.323   9.684   4.029  0.1249 -0.1768 -0.0583
 8261W        W24070  16.261  17.374  11.742  0.0776  0.2681  0.0282
 8262W        W24071   8.338  17.088   5.254  0.0342 -0.2587 -0.0076
 8263W        W24072  12.655   1.284   6.064  0.1360 -0.0151  0.2231
 8264W        W24073   6.983   2.177  10.747  0.0330  0.1230 -0.0221
 8265W        W24074  13.530  12.819   2.192  0.1460  0.0299 -0.1643
 8266W        W24075   8.237   1.855  13.890 -0.2838  0.0232  0.0396
 8267W        W24076  12.428   0.208  10.863  0.1864  0.0496  0.1162
 8268W        W24077  10.102  10.494  14.874 -0.0877  0.0523 -0.2324
 8269W        W24078   9.235   5.034  14.315  0.1279  0.0087 -0.0338
 8270W        W24079  18.141   7.815  12.724  0.1293 -0.0752 -0.1991
 8271W        W24080   1.137   8.069   2.989 -0.1645  0.0214 -0.0935
 8272W        W24081  11.654  10.307   1.195 -0.1253 -0.0229 -0.1495
 8273W        W24082   1.065  11.511   1.927 -0.0344  0.0868  0.0381
 8274W        W24083   4.660  15.629   1.289 -0.0057  0.0533  0.3562
 8275W        W24084   5.836  10.607  13.017  0.1454  0.0001  0.0264
 8276W        W24085  13.153  12.667  14.498  0.0112  0.0061  0.1052
 8277W        W24086   5.590  14.941  11.333  0.3603 -0.0166  0.1037
 8278W        W24087  14.027  13.153  15.671 -0.0553 -0.2283  0.0584
 8279W        W24088   6.458  14.165   1.903  0.4047  0.2912 -0.0325
 8280W        W24089  15.309   4.569  11.870 -0.1626  0.2980 -0.2091
 8281W        W24090   6.991   9.866  15.825  0.1823  0.0714 -0.0726
 8282W        W24091   2.477   0.652   0.666 -0.1209 -0.0322  0.0188
 8283W        W24092   2.440   2.933   5.380 -0.0380 -0.0027 -0.0435
 8284W        W24093  14.685   3.121  14.467  0.1319  0.1618  0.3074
 8285W        W24094   4.135  14.309  15.846 -0.2712  0.1921  0.1099
 8286W        W24095  12.009  14.414   0.360 -0.0298 -0.1660 -0.2269
 8287W        W24096   7.428  11.048  16.029  0.1623  0.0173  0.0478
 8288W        W24097  13.402  15.901   3.252  0.1488  0.1646 -0.2481
 8289W        W24098   5.199  16.080  13.264 -0.1409 -0.1280 -0.2047
 8290W        W24099   1.515  13.977  13.889 -0.0134  0.0307  0.1533
 8291W        W24100   3.680   6.209   1.229  0.0877 -0.0122  0.0985
 8292W        W24101  11.986   0.547  13.978  0.2172  0.3345  0.0860
 8293W        W24102   2.067   5.080  15.360 -0.0143 -0.3304  0.3102
 8294W        W24103  17.062  15.519   4.631 -0.1113 -0.0847 -0.1287
 8295W        W24104   1.443  16.848   2.955  0.0475 -0.1213 -0.1294
 8296W        W24105   5.797   6.928   0.721  0.0586  0.0599 -0.4801
 8297W        W24106   4.854   7.364  11.734  0.3654 -0.0376  0.0946
 8298W        W24107   0.413   3.076  15.635 -0.1681  0.1762 -0.3113
 8299W        W24108   5.888   6.773   1.641 -0.1264  0.0921 -0.0928
 8300W        W24109   8.678   8.880  14.527 -0.1931  0.1864 -0.1068
 8301W        W24110   5.639   7.570  16.000  0.1371 -0.0907 -0.0119
 8302W        W24111  10.247   4.283  13.149 -0.1899 -0.3600 -0.0975
 8303W        W24112  13.348   4.421  14.409  0.1613  0.0823  0.0189
 8304W        W24113  17.705  17.226  12.303  0.1358  0.0649 -0.1036
 8305W        W24114   4.945  13.797  11.439  0.2235  0.1247  0.0344
 8306W        W24115   0.087   6.940  13.594 -0.1179 -0.0247 -0.1931
 8307W        W24116   9.934  14.340   4.732  0.0077 -0.1621 -0.0722
 8308W        W24117  15.208  14.855  14.579 -0.0988 -0.2017 -0.2781
 8309W        W24118   4.879  12.210   4.043  0.2450  0.0247 -0.1573
 8310W        W24119  15.929  16.585  10.773  0.1564 -0.0889 -0.0286
 8311W        W24120  16.414  11.283   0.924  0.0099 -0.1079  0.1424
 8312W        W24121   7.389  13.555   3.339 -0.2911 -0.0221  0.1872
 8313W        W24122  11.248  12.431  15.769  0.1507  0.0151 -0.0128
 8314W        W24123  14.659   9.889   4.341 -0.0743  0.3249 -0.1089
 8315W        W24124  15.740   5.135  12.989  0.2185 -0.0078 -0.0102
 8316W        W24125   0.515  10.554  15.501 -0.0005 -0.0922  0.0368
 8317W        W24126   8.584   3.077   0.961  0.1131  0.1846 -0.2811
 8318W        W24127  14.123   0.675  12.440  0.1788  0.2013 -0.1181
 8319W        W24128  12.086   9.484  11.764  0.0133 -0.2361  0.0643
 8320W        W24129   7.216  12.561   5.212 -0.2300  0.1490 -0.0457
 8321W        W24130   8.052  15.258  13.435 -0.1474  0.1328 -0.1668
 8322W        W24131  10.865   3.892  12.289 -0.1489 -0.0665 -0.1367
 8323W        W24132   5.307  17.165   4.029 -0.1856 -0.1319 -0.1605
 8324W        W24133  17.745  17.764   3.372 -0.0854 -0.0359 -0.1323
 8325W        W24134  11.418  13.008   0.005 -0.1647  0.4407  0.2539
 8326W        W24135   8.651   7.269   1.093 -0.1407 -0.4341  0.1655
 8327W        W24136   6.555  15.133   2.923 -0.1452  0.1377  0.2775
 8328W        W24137  17.892   2.073   2.929  0.0666 -0.0515 -0.0218
 8329W        W24138   8.960   2.412   0.689 -0.0956 -0.1365  0.4626
 8330W        W24139   1.485  10.179  11.054  0.1027  0.1446  0.1797
 8331W        W24140   8.768   9.186   0.114 -0.0162  0.1893 -0.1204
 8332W        W24141   3.498   2.978  14.408  0.4246 -0.3931 -0.1636
 8333W        W24142   3.785  15.040   2.080  0.0292 -0.1229 -0.1097
 8334W        W24143   4.212   3.216   0.169 -0.2595  0.0656 -0.0464
 8335W        W24144  13.794   9.764  15.306 -0.2539  0.1993 -0.1586
 8336W        W24145   1.632   8.916  11.232 -0.0100 -0.2450  0.1256
 8337W        W24146   8.207  14.852   3.538 -0.0332  0.1577  0.0527
 8338W        W24147   3.904  11.545   0.331  0.0057 -0.0773 -0.3621
 8339W        W24148  11.633   1.429   3.192 -0.2797 -0.0915  0.1994
 8340W        W24149   6.752  16.127  13.311  0.0004 -0.4409 -0.1867
 8341W        W24150  14.503  15.168   3.457 -0.4303 -0.0204  0.0773
 8342W        W24151   4.572   5.431  13.099  0.3972 -0.1645  0.1221
 8343W        W24152  13.740   1.688   4.961 -0.0812 -0.2946 -0.0977
 8344W        W24153  17.092   8.043   1.336 -0.1104  0.1346  0.0049
 8345W        W24154   0.604  10.272  15.114 -0.0690 -0.1004 -0.0875
 8346W        W24155  16.548   4.937  14.070  0.0192  0.0624 -0.1351
 8347W        W24156  16.248  15.052  10.540 -0.2952 -0.2837  0.3275
 8348W        W24157   7.461  14.989  11.401  0.0318 -0.2522  0.1144
 8349W        W24158   9.036   7.805   0.811  0.2036 -0.1558 -0.1620
 8350W        W24159  11.431   4.648   0.846  0.0973  0.1410  0.0477
 8351W        W24160  12.377  15.030  14.080  0.1843  0.0286  0.0599
 8352W        W24161   4.118   3.903   4.380  0.1755 -0.0142  0.0726
 8353W        W24162   9.265   5.537   1.488  0.1060 -0.1018 -0.0536
 8354W        W24163  17.674  12.415  14.049  0.2244 -0.0419  0.2007
 8355W        W24164   5.200   2.668   1.579  0.4278  0.0290  0.2524
 8356W        W24165  15.475  10.663   0.992  0.2976  0.0259 -0.1155
 8357W        W24166  11.602   8.341   0.114 -0.1647  0.0096  0.0622
 8358W        W24167  16.844   1.157   1.656  0.1617  0.1174  0.2643
 8359W        W24168   3.753   5.737  10.376  0.2352 -0.2701  0.2165
 8360W        W24169  16.421  16.685   0.301 -0.1506  0.0419  0.0524
 8361W        W24170  15.950  11.198  12.368  0.0473  0.1089  0.1573
 8362W        W24171   4.116   3.685  11.120  0.1382  0.1120  0.1405
 8363W        W24172   5.256   5.263  11.331 -0.0733  0.2750 -0.2235
 8364W        W24173   6.103   6.677  14.516 -0.0636 -0.0549  0.0673
 8365W        W24174   0.413   1.703  11.798  0.2922 -0.0437  0.0571
 8366W        W24175   0.109   3.074   3.066 -0.3004  0.1186 -0.1110
 8367W        W24176   5.584  14.364   2.017  0.2681  0.0190  0.0532
 8368W        W24177  12.848   6.901  13.097 -0.0610 -0.1047 -0.0668
 8369W        W24178   5.044  11.050  12.414  0.1321  0.0115  0.0693
 8370W        W24179   5.945  14.914   0.503 -0.1798  0.4097  0.0636
 8371W        W24180  11.121   4.324   4.853 -0.0967  0.1975  0.1025
 8372W        W24181  15.089  12.171  15.309 -0.0715 -0.1061  0.3374
 8373W        W24182  13.297   3.388   5.448  0.1378  0.0013  0.0164
 8374W        W24183  15.217   7.845   2.942  0.1545 -0.1567  0.3558
 8375W        W24184  11.274  13.943  10.892 -0.0482  0.1805 -0.1597
 8376W        W24185  13.506  11.255  14.464  0.0896 -0.0528 -0.0840
 8377W        W24186  13.288  10.123  11.034  0.0630  0.0787  0.1417
 8378W        W24187   8.745  15.220  15.269 -0.0585  0.0208  0.1193
 8379W        W24188   8.376   9.535   4.599 -0.0972  0.1841 -0.2654
 8380W        W24189   1.965   7.550   4.047 -0.2167  0.1606  0.0030
 8381W        W24190  17.115  17.663  10.462 -0.1084  0.0357 -0.0210
 8382W        W24191   7.492  18.196   2.453 -0.1165 -0.0277  0.1506
 8383W        W24192  12.764  13.453   5.143  0.0978 -0.2377  0.1176
 8384W        W24193  15.383  14.185   2.703 -0.0574  0.2842  0.0878
 8385W        W24194   8.734  17.180   6.204  0.2873  0.0304 -0.0515
 8386W        W24195  12.847   4.132  15.795  0.1762 -0.1108 -0.1116
 8387W        W24196   7.154   7.011   0.247  0.1020  0.1856 -0.2201
 8388W        W24197  13.928  12.905  13.741  0.2347  0.1001 -0.1235
 8389W        W24198   2.739   9.282   4.095  0.0134 -0.0258  0.0429
 8390W        W24199  18.241  16.266   4.887 -0.1532 -0.3385 -0.1259
 8391W        W24200   9.148   7.592  13.748 -0.0308  0.0292  0.1371
 8392W        W24201  16.913  11.970  12.323  0.1392  0.3892  0.1500
 8393W        W24202   8.071  17.649  14.655  0.0252  0.1436 -0.0914
 8394W        W24203   2.690  17.296  13.921  0.2273 -0.2790  0.1401
 8395W        W24204   7.319   2.513   2.802  0.2101 -0.1717 -0.2273
 8396W        W24205  16.271   1.233  15.478 -0.1001 -0.1728 -0.1133
 8397W        W24206  10.009  12.011   2.241 -0.2969  0.2076  0.1633
 8398W        W24207  16.216  16.036  15.578 -0.0902  0.3063  0.0112
 8399W        W24208   1.810   4.634   1.652  0.0612 -0.2799 -0.0738
 8400W        W24209   1.090  10.215  11.413  0.0818 -0.1198 -0.0557
 8401W        W24210  14.045  12.343   4.860  0.1692 -0.1336 -0.0545
 8402W        W24211  16.889   5.557   2.444 -0.0280 -0.0215  0.1702
 8403W        W24212   7.706   7.139   5.185 -0.2075 -0.1492  0.0017
 8404W        W24213  17.901   7.337   0.841  0.2021 -0.0153 -0.0793
 8405W        W24214  16.977  18.217   4.157 -0.0723 -0.3436  0.2185
 8406W        W24215  18.222  10.761   4.784 -0.0348 -0.0418 -0.0604
 8407W        W24216   0.714  12.484  12.098  0.2438 -0.2098  0.1705
 8408W        W24217   5.669   2.048  12.689  0.0634  0.3103  0.0519
 8409W        W24218   0.875   1.587   2.863 -0.0158  0.2537  0.0348
 8410W        W24219   2.674   2.204  10.184 -0.0584  0.0139 -0.0354
 8411W        W24220   3.168  12.068   4.688  0.1326 -0.2775 -0.2369
 8412W        W24221  17.035   7.924   4.554 -0.1266  0.2100 -0.1541
 8413W        W24222  16.704   7.495  10.548  0.0561 -0.1521 -0.0432
 8414W        W24223   7.625   4.978   3.706 -0.0956 -0.2739 -0.1245
 8415W        W24224   5.068   4.683  14.272  0.1566  0.0004 -0.3099
 8416W        W24225   1.580   6.065  12.551  0.3640 -0.1546 -0.0842
 8417W        W24226   5.700  11.234   4.404 -0.1440  0.1662  0.0951
 8418W        W24227  15.001  13.502  12.405 -0.4430  0.0227 -0.0918
 8419W        W24228   2.782  14.510  10.970  0.0950 -0.0090 -0.0601
 8420W        W24229  16.476  15.009  10.956 -0.0180  0.0780 -0.3940
 8421W        W24230  12.624  13.354  14.486 -0.1091  0.1020  0.1278
 8422W        W24231  10.393  12.411  15.869 -0.0461 -0.2297 -0.0184
 8423W        W24232   5.508   7.815   0.967  0.1961  0.3443  0.2955
 8424W        W24233   3.103   6.003   0.168  0.1511 -0.0053 -0.3295
 8425W        W24234   3.314   8.761   4.401 -0.0435  0.0910  0.2031
 8426W        W24235   9.873  16.627  10.299  0.0704 -0.2316  0.2205
 8427W        W24236   5.127   2.401   3.397  0.0962  0.0721 -0.3428
 8428W        W24237  11.157   4.508   5.840  0.1341 -0.0613 -0.1610
 8429W        W24238  10.410  14.810  11.623 -0.0183  0.2255 -0.0167
 8430W        W24239   9.434   0.206  15.897  0.0340 -0.0173  0.1455
 8431W        W24240   5.836  14.024   0.970  0.0745 -0.0026  0.3300
 8432W        W24241   6.154   4.755   4.086  0.3181  0.0706 -0.1152
 8433W        W24242   8.012   9.872  14.558  0.0453  0.0474  0.1001
 8434W        W24243   2.213   2.112   0.478  0.3582 -0.0734  0.1456
 8435W        W24244  10.605  12.785  15.021  0.4555 -0.3404 -0.2266
 8436W        W24245  14.439  13.776  15.174  0.2153  0.2009 -0.3234
 8437W        W24246   3.266   5.157   5.462 -0.1278 -0.0866 -0.0774
 8438W        W24247  18.140   4.636   5.393  0.1260  0.0516  0.2525
 8439W        W24248  10.233   9.092  12.750 -0.0726  0.0254 -0.2569
 8440W        W24249  16.471   7.858  12.055 -0.1171 -0.0797  0.0209
 8441W        W24250  14.883   9.129   3.877  0.3321 -0.2549  0.1450
 8442W        W24251   4.713  17.137  11.659 -0.1446 -0.2559 -0.0045
 8443W        W24252  17.471  15.070  13.001 -0.5844  0.2591 -0.2204
 8444W        W24253   8.602   7.387   4.248 -0.1081 -0.0095 -0.1158
 8445W        W24254   4.163  17.273  15.942  0.0718 -0.3665  0.0189
 8446W        W24255  11.015   7.313  13.157  0.4499 -0.3138 -0.2558
 8447W        W24256  15.665   1.869   5.593  0.2409  0.0341 -0.1312
 8448W        W24257  13.866   6.423  10.576  0.1036  0.4792 -0.1901
 8449W        W24258   0.726  16.464  13.612  0.0063  0.0050  0.1665
 8450W        W24259   9.217  13.351   2.053  0.2061  0.2378  0.6182
 8451W        W24260  13.387   0.241  14.910  0.0576 -0.3093 -0.0279
 8452W        W24261   6.085   1.083  11.806  0.0545  0.0829 -0.0508
 8453W        W24262  17.007   3.777  12.292  0.0640 -0.0030 -0.1560
 8454W        W24263   7.451  17.705  10.602  0.1375  0.2897  0.0205
 8455W        W24264  13.694  12.984  11.273 -0.0067  0.4274  0.2205
 8456W        W24265   6.774  11.884  14.179  0.0612  0.1685 -0.4381
 8457W        W24266  11.337  10.490  12.741 -0.0870 -0.1768 -0.3926
 8458W        W24267   7.953  12.518   4.181  0.0319  0.0272  0.0350
 8459W        W24268   4.922  15.501   5.174 -0.0568  0.1894 -0.1248
 8460W        W24269  13.448   7.180   1.777  0.0939 -0.0817 -0.1125
 8461W        W24270  12.793   6.098  12.538 -0.0083  0.2950  0.1415
 8462W        W24271   5.029   2.078   4.685 -0.1435 -0.0684  0.1092
 8463W        W24272   9.256  16.786  11.159  0.0260 -0.1635  0.1487
 8464W        W24273   4.466   7.746   3.546  0.4186 -0.1070  0.1346
 8465W        W24274   2.091   0.902   0.389 -0.1796  0.0985  0.1281
 8466W        W24275   7.350  16.970  13.310  0.0477  0.2807  0.0586
 8467W        W24276  17.310   4.488   2.982 -0.0171  0.1302 -0.3700
 8468W        W24277   4.871  11.265   1.494  0.2233  0.3711 -0.2142
 8469W        W24278   7.297   4.655   0.920 -0.2860  0.3193  0.1016
 8470W        W24279   6.915  17.356   2.918 -0.3266  0.4120 -0.2443
 8471W        W24280   4.692   7.802  13.372 -0.0868 -0.0024  0.1644
 8472W        W24281   1.290   5.952  12.127  0.0348 -0.0212 -0.1380
 8473W        W24282   9.439   9.090   4.564 -0.0806  0.0508 -0.0148
 8474W        W24283  17.275  10.633   1.431  0.4503  0.0223 -0.4697
 8475W        W24284   7.985   3.118  13.109  0.0368 -0.0495  0.0242
 8476W        W24285   0.373   0.896  11.329  0.0190  0.1541 -0.2075
 8477W        W24286   2.105   5.061   9.721 -0.1892 -0.2049  0.2352
 8478W        W24287  16.571  13.579   3.110  0.1819  0.2355  0.1009
 8479W        W24288   4.404  10.696  12.790 -0.0224 -0.1280 -0.1047
 8480W        W24289   2.101   1.020  13.785  0.0785 -0.0685 -0.1359
 8481W        W24290   4.140   1.014  11.179  0.1004 -0.1307 -0.0255
 8482W        W24291  11.961   5.942  11.688 -0.1814  0.1090  0.0562
 8483W        W24292  16.958  13.670   0.107  0.1719 -0.0673 -0.2343
 8484W        W24293  12.724  14.278   5.693 -0.0544  0.0932 -0.1172
 8485W        W24294  12.481  12.598   5.679  0.0147  0.1161  0.0814
 8486W        W24295  15.693   1.331  12.137 -0.2650  0.2695 -0.0442
 8487W        W24296  18.023   5.058   1.438 -0.0928  0.0766 -0.2360
 8488W        W24297   0.043  13.414   1.629 -0.1035 -0.2301 -0.1481
 8489W        W24298  16.945  15.730  13.335 -0.0146  0.1399  0.2878
 8490W        W24299   9.607   3.931  14.753 -0.0704 -0.3899 -0.1091
 8491W        W24300   1.198  14.589  14.082 -0.2234  0.0447 -0.0902
 8492W        W24301   3.587  17.744  13.407 -0.2200 -0.4188  0.0606
 8493W        W24302   3.470   9.345   0.635  0.1417  0.1711 -0.2754
 8494W        W24303  13.554   5.405  13.513  0.0693 -0.0014  0.0063
 8495W        W24304  12.051   3.835  15.980  0.0192  0.0489 -0.0374
 8496W        W24305  12.293  11.107  15.019  0.3380  0.0581 -0.1614
 8497W        W24306   6.136   1.750   0.042 -0.2551  0.2475  0.0064
 8498W        W24307   9.430  11.637   0.494  0.0229  0.0337  0.0367
 8499W        W24308   3.169  16.109   1.125 -0.0150  0.1526  0.0332
 8500W        W24309  11.823   7.638   3.659  0.2895  0.3582  0.1158
 8501W        W24310   1.094  11.174   3.437 -0.1872  0.0398 -0.3752
 8502W        W24311  15.663   2.196  15.295  0.0498 -0.1580  0.0831
 8503W        W24312  11.660   2.487  12.562 -0.1951 -0.2729  0.0346
 8504W        W24313   7.862  11.803  12.393 -0.1373 -0.0599 -0.2641
 8505W        W24314  11.606   8.635  15.532 -0.1409 -0.1824 -0.0550
 8506W        W24315  12.091   4.161   4.946  0.1238  0.5585  0.0722
 8507W        W24316   7.218   5.268  11.486 -0.0230  0.1392 -0.1991
 8508W        W24317   8.062   4.386  11.096 -0.2172 -0.1525 -0.1726
 8509W        W24318  14.206  15.582   0.261  0.1806  0.1203 -0.0972
 8510W        W24319  11.080   5.679  12.383 -0.3182  0.1804  0.3007
 8511W        W24320   0.249   3.784   5.017  0.1185 -0.2183 -0.0969
 8512W        W24321   1.810   9.726  14.761  0.5425  0.0271 -0.1310
 8513W        W24322  10.662   1.222  13.812 -0.1006  0.0434  0.0511
 8514W        W24323   8.977  18.147  14.812  0.2843 -0.2136 -0.0358
 8515W        W24324   4.594   7.229   3.307 -0.6190 -0.0642 -0.1660
 8516W        W24325   2.081   3.613   4.791  0.1856  0.2161  0.0869
 8517W        W24326  11.915  16.536   4.311  0.1842 -0.0566  0.1080
 8518W        W24327  12.892  15.395   5.647  0.2532  0.1326 -0.1871
 8519W        W24328   0.598   5.376  13.907  0.1164 -0.1517  0.0437
 8520W        W24329  12.125   0.461   5.522 -0.4228 -0.1370 -0.0192
 8521W        W24330  13.967  12.468  13.513 -0.1269 -0.0208 -0.1660
 8522W        W24331  12.446   8.665  12.146 -0.1424  0.0712 -0.1130
 8523W        W24332   6.401  15.712  12.161 -0.1844  0.1446 -0.1043
 8524W        W24333   6.005  15.699  13.911 -0.1893 -0.0527 -0.1558
 8525W        W24334  16.919   4.567   2.647  0.1835 -0.0892  0.0844
 8526W        W24335  11.976   7.330   3.256  0.3856  0.2227  0.3481
 8527W        W24336   3.458  11.997   3.806  0.1122 -0.0207  0.0913
 8528W        W24337   4.627   1.334  11.265 -0.1927  0.0799  0.2694
 8529W        W24338  12.606   9.826  12.439  0.2529 -0.1533  0.0628
 8530W        W24339   8.923   6.507   4.841 -0.0931  0.1478  0.2873
 8531W        W24340  16.857  17.690   3.039 -0.0943 -0.0329  0.1108
 8532W        W24341   2.508   6.679   3.378 -0.2538 -0.0543  0.0549
 8533W        W24342  18.034  12.413  11.477  0.0451 -0.1032  0.1011
 8534W        W24343   6.832  17.619  13.089  0.3027 -0.1830  0.2193
 8535W        W24344  17.604   1.022  12.653 -0.1181  0.3052  0.0955
 8536W        W24345  16.444  14.074   2.783  0.0909 -0.1516  0.4120
 8537W        W24346  17.785  16.404   4.635 -0.1537  0.0050  0.2388
 8538W        W24347  17.202  15.401   1.091  0.2644 -0.0078 -0.5667
 8539W        W24348   9.851   0.799  12.826 -0.1156 -0.0467 -0.3241
 8540W        W24349   6.844  13.007  13.555  0.2874  0.0026 -0.0927
 8541W        W24350   4.257  10.295   4.502  0.0736  0.1186  0.0018
 8542W        W24351   5.658   8.368  10.926  0.0188 -0.1833  0.0505
 8543W        W24352  10.747   5.721  14.376 -0.0688  0.0688 -0.1268
 8544W        W24353   8.079   9.560  12.092 -0.3225 -0.1323 -0.2393
 8545W        W24354   6.690   7.175  12.898 -0.3344  0.1502  0.0826
 8546W        W24355   4.925   5.733   1.925  0.0201  0.1418 -0.0294
 8547W        W24356  12.018  14.214  13.016  0.4605 -0.1026  0.0779
 8548W        W24357   2.016   0.402   0.538 -0.3162  0.1717 -0.1405
 8549W        W24358   1.842  10.472  10.978 -0.3107  0.0662 -0.1525
 8550W        W24359   4.926   8.171   4.789  0.0016 -0.2707  0.0071
 8551W        W24360   9.418  16.156  13.488 -0.1627  0.0764 -0.1904
 8552W        W24361   0.781   6.343   2.662 -0.0166  0.3203 -0.0403
 8553W        W24362   5.594   6.453  13.111  0.3398 -0.1853  0.0158
 8554W        W24363   8.636  16.442  12.031  0.1462 -0.0281 -0.0798
 8555W        W24364  15.942   8.198  12.681 -0.0589 -0.2215  0.2756
 8556W        W24365  10.429  17.122   0.378  0.1308 -0.1557 -0.0720
 8557W        W24366   0.271  14.414   0.458  0.1320  0.0987  0.0487
 8558W        W24367   9.203  15.185   2.414 -0.2204  0.2253  0.1297
 8559W        W24368   7.458  11.516   3.485 -0.2028 -0.1804  0.1188
 8560W        W24369   7.797  14.097   6.145 -0.5229 -0.3312 -0.0002
 8561W        W24370  17.836  10.529  11.852 -0.1996  0.1805 -0.1073
 8562W        W24371   1.535  17.660  10.843  0.1093 -0.1571 -0.1544
 8563W        W24372   4.178  10.770  12.013  0.2243 -0.0466  0.3107
 8564W        W24373   0.963   2.922   3.290  0.0647  0.1306  0.0422
 8565W        W24374  10.711  17.722   4.049  0.0669 -0.0123  0.0802
 8566W        W24375   1.934   6.315   5.638 -0.0163 -0.0822  0.2440
 8567W        W24376   8.490  13.329  13.480 -0.1451 -0.2590 -0.5863
 8568W        W24377  10.480   0.661  15.064 -0.2079 -0.2503  0.0777
 8569W        W24378  11.799   8.907   4.324  0.0783 -0.0722  0.1376
 8570W        W24379  16.837   3.871   2.477 -0.1695 -0.3197  0.0386
 8571W        W24380   6.062   5.496  14.304  0.0233  0.1619  0.1051
 8572W        W24381   0.860   4.615   0.306 -0.0810 -0.1241 -0.1381
 8573W        W24382  10.791   2.743   5.185  0.0230 -0.1540 -0.1088
 8574W        W24383   6.663   7.597   4.852  0.2772 -0.1004  0.3219
 8575W        W24384  15.214   5.230  13.963 -0.0442 -0.1233 -0.0878
 8576W        W24385  11.475  14.440   1.761 -0.5123 -0.0168  0.2022
 8577W        W24386  16.496  10.714   3.732 -0.2382 -0.2071 -0.2574
 8578W        W24387  17.932  15.935  11.995 -0.0940  0.0681 -0.0378
 8579W        W24388   3.698  15.203  10.071  0.1198 -0.2139  0.2624
 8580W        W24389   2.992  10.613  11.003  0.2417 -0.1424 -0.0217
 8581W        W24390  14.158  14.200  13.711  0.3172  0.3162  0.0256
 8582W        W24391   7.363   6.644  11.279  0.0979  0.1982 -0.0860
 8583W        W24392  17.552   9.246  14.837  0.0420 -0.0034 -0.2343
 8584W        W24393   2.064   2.147   4.009 -0.0589 -0.0753  0.0886
 8585W        W24394   6.233  14.977  10.341  0.2025 -0.2082  0.1439
 8586W        W24395  11.435  14.408   5.192  0.2099  0.0878  0.0156
 8587W        W24396  14.673  15.703   1.437  0.1075 -0.1849  0.2543
 8588W        W24397  13.230   6.097  15.008 -0.2200  0.0606  0.2475
 8589W        W24398   2.738   3.039  14.075  0.1049  0.0158  0.1032
 8590W        W24399  14.587  12.713   3.894 -0.4592 -0.1192  0.1787
 8591W        W24400  16.684   3.264   2.512  0.0648 -0.1691 -0.4076
 8592W        W24401  13.451   7.035   5.032 -0.2208  0.2644 -0.1306
 8593W        W24402   3.324  15.180   3.488  0.1335  0.2474  0.1323
 8594W        W24403   4.878   2.471   2.037  0.1148  0.0469  0.2672
 8595W        W24404  10.154  11.594  16.004 -0.0133 -0.0564 -0.0907
 8596W        W24405   5.683  10.925   4.906  0.0944 -0.2145 -0.4346
 8597W        W24406  16.417  11.679   4.219  0.1252 -0.0280  0.2262
 8598W        W24407  10.462   6.821   2.641  0.0864  0.0947 -0.3345
 8599W        W24408   6.449   2.596  13.711  0.0791 -0.0386 -0.1097
 8600W        W24409   3.393  15.199  10.924 -0.0204 -0.0759  0.1455
 8601W        W24410  16.435  10.772   2.755  0.0484 -0.1551  0.4474
 8602W        W24411   1.313  10.440  10.540 -0.1104 -0.1137 -0.0975
 8603W        W24412   0.887   5.298   3.889  0.1763 -0.0602  0.2675
 8604W        W24413   3.399  12.497   4.233 -0.2354  0.3105  0.0845
 8605W        W24414   6.571  11.590   3.793  0.2043 -0.1572  0.0253
 8606W        W24415  13.918  13.501   2.683 -0.0180 -0.2408  0.3548
 8607W        W24416   9.090   1.798  11.708  0.1049 -0.3358 -0.0130
 8608W        W24417  12.352   6.916  12.969  0.0152  0.4271  0.0032
 8609W        W24418   4.257  16.795   1.714 -0.0719  0.0354  0.2135
 8610W        W24419  14.616   0.575   4.222  0.5402  0.0991  0.3456
 8611W        W24420   1.691   6.813  13.022 -0.1610 -0.2110 -0.1778
 8612W        W24421   4.236  11.932  14.704 -0.2037  0.0947  0.0644
 8613W        W24422  17.936  10.854   2.037  0.0021 -0.0704 -0.1369
 8614W        W24423   9.854  13.198  14.835  0.1452  0.0255  0.3296
 8615W        W24424  14.476  16.973  14.257  0.1166  0.1757  0.1680
 8616W        W24425   6.072   7.712   0.305 -0.0208 -0.0916 -0.1026
 8617W        W24426  13.093  11.507   5.337  0.2981 -0.0473 -0.0396
 8618W        W24427   5.963   9.218   5.064  0.3955  0.3578  0.0723
 8619W        W24428   4.411   5.894   0.364 -0.1812  0.3020  0.1595
 8620W        W24429   0.817   5.802  14.025  0.0461  0.0064 -0.1258
 8621W        W24430  16.043   5.430  12.697  0.0919 -0.2012  0.0131
 8622W        W24431   3.275  17.654   5.730  0.2392  0.0141  0.0417
 8623W        W24432  17.134  16.500   2.103 -0.0276 -0.2382  0.2661
 8624W        W24433   1.113  16.521   4.406  0.0705  0.0132 -0.1973
 8625W        W24434   9.358  14.551  15.468 -0.1171 -0.3202 -0.2561
 8626W        W24435   8.182   7.412   2.436 -0.3194 -0.4320  0.1421
 8627W        W24436   6.394   9.326   0.508  0.0163 -0.0008  0.0395
 8628W        W24437   8.776  10.886  15.975  0.3331  0.3041  0.0661
 8629W        W24438   1.087   3.894   1.632  0.0864  0.1572 -0.0816
 8630W        W24439  14.995   9.506  11.585  0.1775  0.0249 -0.1216
 8631W        W24440  12.301  12.499  12.650 -0.0841  0.1399 -0.1398
 8632W        W24441  16.364   4.432  10.906  0.1472 -0.0359 -0.0054
 8633W        W24442   7.833   0.606   5.173 -0.1816  0.0457  0.0946
 8634W        W24443   8.264  12.103   1.815 -0.0988 -0.1901  0.3579
 8635W        W24444   9.608   2.448   5.550 -0.0570  0.0926  0.1220
 8636W        W24445   9.782  11.995  13.941  0.1324  0.1783 -0.0183
 8637W        W24446   5.700   5.574   5.368 -0.1391  0.0854 -0.0417
 8638W        W24447  10.369  15.376  15.545  0.1395  0.1597  0.1049
 8639W        W24448   9.103   8.785   0.131 -0.2039  0.1229  0.4655
 8640W        W24449   7.385   0.754   0.953 -0.2065 -0.3679 -0.0084
 8641W        W24450  15.908  16.867  13.060 -0.0369 -0.1771 -0.1560
 8642W        W24451   9.339   5.142   5.886  0.2448 -0.1329  0.0869
 8643W        W24452  14.365   8.322   4.862  0.4899 -0.0579  0.0578
 8644W        W24453   8.241   4.117  13.066 -0.1706  0.1879  0.0986
 8645W        W24454   7.852  16.927   5.562  0.0933 -0.1626  0.3058
 8646W        W24455   2.839   9.853   5.981  0.0119  0.0275  0.0247
 8647W        W24456   5.424   9.124   1.792  0.2574 -0.1738 -0.1956
 8648W        W24457   6.162   4.997   3.509  0.0167  0.0083 -0.0814
 8649W        W24458  10.902   5.019  13.024  0.2227  0.0228  0.2050
 8650W        W24459  13.078  11.185   1.386  0.3594 -0.1957 -0.1334
 8651W        W24460   1.102  10.282   1.833  0.1490  0.0958 -0.0598
 8652W        W24461   9.716  13.522  14.323  0.0933 -0.1150 -0.0156
 8653W        W24462  12.922   6.240  13.707 -0.3061  0.1271 -0.0366
 8654W        W24463  13.998  15.570  13.330  0.1078  0.2930 -0.0433
 8655W        W24464   1.564   8.766  15.157 -0.0059  0.0747 -0.2198
 8656W        W24465   9.015  12.844  11.494 -0.1023 -0.0732 -0.1868
 8657W        W24466   6.465  10.735  11.068 -0.0486 -0.0334  0.2985
 8658W        W24467   7.478   0.527  12.749  0.0201 -0.2406 -0.0337
 8659W        W24468   1.338   0.047   5.621 -0.2684 -0.1176 -0.0812
 8660W        W24469   5.569  15.931  13.667  0.1337 -0.3368  0.0869
 8661W        W24470  12.775   0.112   2.290 -0.1212  0.1818  0.0086
 8662W        W24471   8.861   1.428   4.454 -0.1286  0.1238 -0.2498
 8663W        W24472  12.542   7.931   1.897 -0.3910  0.1086  0.3290
 8664W        W24473  14.685   4.686   3.234 -0.2203 -0.0972  0.1898
 8665W        W24474  10.303   3.100   3.817 -0.0601 -0.0529 -0.0025
 8666W        W24475   0.391   7.355  15.764 -0.0423 -0.1201 -0.2282
 8667W        W24476   2.402  16.847  15.737  0.1302  0.1106  0.0822
 8668W        W24477   1.704   9.568   3.999  0.0207  0.4374  0.0029
 8669W        W24478  16.036  10.814  14.975  0.2513  0.1477 -0.0893
 8670W        W24479   4.270  18.116   4.436  0.1373  0.1086 -0.0312
 8671W        W24480   8.110   1.246  13.760  0.2358  0.0095 -0.2366
 8672W        W24481   3.036   2.975  11.125 -0.1976  0.0229 -0.2576
 8673W        W24482   6.435   0.975   5.024  0.0875 -0.2934 -0.5183
 8674W        W24483   3.551  10.896  13.734  0.4944  0.0110 -0.1909
 8675W        W24484  16.203  14.332   5.685  0.0264 -0.3078  0.1936
 8676W        W24485   3.815   6.032  13.619  0.0211 -0.1835 -0.1309
 8677W        W24486  11.715   0.642  13.102  0.0205  0.2365 -0.1912
 8678W        W24487  14.997   7.880   2.456 -0.1212  0.2446  0.2025
 8679W        W24488   1.239  16.254  14.196  0.0699  0.1668  0.1684
 8680W        W24489  11.167   1.091  11.448 -0.0423  0.0009 -0.3705
 8681W        W24490   8.409   9.692   2.926 -0.0875  0.1148  0.2066
 8682W        W24491  12.662  13.899   3.980 -0.0686 -0.0820 -0.0162
 8683W        W24492   5.651  14.807  12.775 -0.2278  0.0931  0.4042
 8684W        W24493  14.728  17.394   5.386 -0.0350 -0.2450  0.2461
 8685W        W24494  18.077   8.856  11.696  0.0051 -0.1606  0.4525
 8686W        W24495  11.904  12.412   0.302 -0.0630 -0.0053  0.1276
 8687W        W24496   1.523  11.406   5.005 -0.3829  0.1179  0.3107
 8688W        W24497   3.637   8.844  12.126 -0.0988  0.1283 -0.0788
 8689W        W24498  11.972   6.437  14.529 -0.0769  0.1597  0.1270
 8690W        W24499   9.912  14.647  14.847 -0.2001  0.0178 -0.2128
 8691W        W24500   5.888  10.045   3.713 -0.2991 -0.0642 -0.2434
 8692W        W24501  13.317   6.436   2.159  0.1134 -0.0628 -0.0034
 8693W        W24502   1.950  16.470   0.487 -0.0893  0.2192  0.1904
 8694W        W24503  14.402   0.708  12.879 -0.0427 -0.0478  0.1829
 8695W        W24504  11.817   3.165   1.666  0.1427  0.1037  0.0905
 8696W        W24505  13.163  15.619  12.870  0.2219  0.2567 -0.0413
 8697W        W24506  16.356  15.771  16.043  0.0980  0.0800 -0.0153
 8698W        W24507   9.557  11.680  12.195 -0.0373  0.3648 -0.0096
 8699W        W24508   7.031   7.226  11.658  0.1419 -0.3603  0.0790
 8700W        W24509   2.475   0.650  12.167 -0.2541  0.0230 -0.1770
 8701W        W24510  10.370   8.406  14.707 -0.1753 -0.1890  0.2259
 8702W        W24511  17.489   7.200  13.712  0.0989  0.0274 -0.2396
 8703W        W24512   7.217   2.443   1.413 -0.0497 -0.0287 -0.1712
 8704W        W24513   8.151  14.495  11.967  0.0948 -0.2691 -0.0094
 8705W        W24514   8.581   0.123  15.725  0.1076 -0.0286 -0.0496
 8706W        W24515   7.839   2.312  11.921 -0.0948  0.1777  0.0232
 8707W        W24516  15.176   0.700   4.228  0.0103  0.2281  0.0565
 8708W        W24517   9.924  15.397  15.356 -0.2219 -0.0149  0.0792
 8709W        W24518   6.798  13.264  12.220  0.1421  0.1637 -0.1057
 8710W        W24519   7.087   9.980   2.791 -0.1653 -0.0154  0.1248
 8711W        W24520  13.310   5.976  14.120 -0.0154 -0.2821 -0.0087
 8712W        W24521  17.147  10.569   0.957  0.4012  0.1245 -0.1622
 8713W        W24522   6.532  18.075   4.420 -0.1560 -0.0635 -0.0675
 8714W        W24523  17.067  12.993   1.054 -0.1517  0.0426  0.0395
 8715W        W24524   0.441  17.344  13.817 -0.2036  0.0496  0.1940
 8716W        W24525   4.070  10.810   0.642  0.0101  0.3472  0.1680
 8717W        W24526  13.948   6.530  11.592  0.3960 -0.1302 -0.2698
 8718W        W24527   7.368   2.264  13.423  0.3198 -0.1153 -0.2263
 8719W        W24528   1.026   5.561  15.911  0.1681 -0.2068  0.1045
 8720W        W24529   3.417   4.499  10.980 -0.0807  0.0108 -0.0901
 8721W        W24530   7.104  17.989   4.536  0.1659 -0.0980  0.2676
 8722W        W24531   7.065   0.767  14.707  0.0198 -0.3283 -0.0709
 8723W        W24532   9.731   4.905   0.414  0.1583 -0.1790 -0.3127
 8724W        W24533  18.003   7.837   0.770 -0.2379 -0.1896 -0.1568
 8725W        W24534   3.761   0.665   2.857  0.1602 -0.1678  0.0496
 8726W        W24535   5.600   3.412   2.905 -0.2831  0.2650  0.1780
 8727W        W24536  13.096  11.602  13.475  0.0312 -0.2352 -0.2153
 8728W        W24537  11.912   4.258   4.528 -0.0073 -0.0454  0.1413
 8729W        W24538  17.711   5.050   5.270  0.0541 -0.0895 -0.0784
 8730W        W24539   0.623  13.192  15.238 -0.1772  0.1823 -0.1287
 8731W        W24540  15.896   9.366  13.949  0.0857  0.1609 -0.0128
 8732W        W24541   9.633  13.809  16.003 -0.0089  0.1821 -0.2969
 8733W        W24542   2.354   8.332   4.405 -0.0048  0.1285 -0.0610
 8734W        W24543  11.975   6.598  12.797  0.1468 -0.0514 -0.0595
 8735W        W24544  18.204   8.343  10.777  0.0312  0.0260  0.0499
 8736W        W24545   1.528   1.581   2.160 -0.3884 -0.0524  0.2016
 8737W        W24546  16.899  11.052   0.927 -0.1081  0.0264  0.0335
 8738W        W24547   4.489   9.135  11.997  0.1456 -0.1893 -0.0375
 8739W        W24548   7.627   2.154   1.193  0.0374  0.2529  0.3973
 8740W        W24549  11.328  17.023   1.503 -0.1079 -0.1314 -0.0719
 8741W        W24550   0.336   7.913   4.468  0.0992  0.1442 -0.2088
 8742W        W24551   5.914   2.267   4.806  0.1270  0.3387 -0.4915
 8743W        W24552  15.223  17.142   4.640 -0.1436 -0.1581 -0.0073
 8744W        W24553  13.618   2.577   5.440 -0.0356  0.1167  0.1953
 8745W        W24554   0.789  16.117   3.245  0.1625 -0.1324 -0.2055
 8746W        W24555   5.243   6.294  11.781 -0.0753  0.3589 -0.0256
 8747W        W24556  10.710   8.259  15.838 -0.0162 -0.0878  0.0387
 8748W        W24557  17.542   0.853   5.210  0.2366 -0.2917 -0.1387
 8749W        W24558  10.782  10.393   3.999 -0.0288 -0.0127 -0.2479
 8750W        W24559   7.826   5.493  15.967  0.1203  0.3364 -0.1004
 8751W        W24560  17.678   0.925   6.184 -0.1341  0.0967  0.3975
 8752W        W24561  15.428  15.486   4.664 -0.0229  0.0565 -0.2489
 8753W        W24562   8.926  12.275   5.624 -0.1037  0.2698 -0.0828
 8754W        W24563  10.237   8.714   5.037 -0.0344 -0.2767 -0.1093
 8755W        W24564   4.845  11.711  12.896 -0.3074 -0.0041 -0.1195
 8756W        W24565   3.280  10.930   0.598 -0.0796 -0.0523  0.0492
 8757W        W24566  11.345   8.230  15.267 -0.3396 -0.1857 -0.2464
 8758W        W24567   9.331   6.497  15.753  0.0190 -0.1781 -0.3401
 8759W        W24568  14.394  17.628  14.814 -0.0805  0.1440 -0.0143
 8760W        W24569   9.261  16.263  10.168 -0.1107 -0.1122 -0.1318
 8761W        W24570   1.677   1.101   2.211 -0.0122 -0.0100  0.0616
 8762W        W24571   6.588  14.325   3.638 -0.0063  0.0534 -0.0725
 8763W        W24572   8.530  10.085   4.025  0.0419 -0.0021  0.0550
 8764W        W24573   4.342   3.601  15.071 -0.6075 -0.1482  0.1448
 8765W        W24574   5.812  15.121   0.928 -0.0401 -0.0281  0.2835
 8766W        W24575   4.675   7.549   9.592 -0.2337 -0.1326 -0.4266
 8767W        W24576   4.091   7.796   2.177  0.1628  0.0082 -0.4508
 8768W        W24577   8.989   9.923  12.963 -0.1409 -0.1183 -0.0105
 8769W        W24578   5.144   3.000   4.738  0.1198 -0.3689  0.2019
 8770W        W24579   6.951   9.246   3.125  0.0074 -0.0857  0.0682
 8771W        W24580   2.993   5.736  12.673  0.4176 -0.0729  0.0516
 8772W        W24581  11.953   8.989   3.864 -0.0248  0.0976  0.0210
 8773W        W24582   4.378  15.884  13.642 -0.0673 -0.0248 -0.2321
 8774W        W24583   5.892  16.644  15.550  0.0069  0.0605 -0.1157
 8775W        W24584  10.767  13.013  12.065 -0.1200 -0.2607  0.1796
 8776W        W24585   1.153   5.961   4.518 -0.3161  0.3418 -0.1919
 8777W        W24586  17.463  11.119   0.233  0.0143  0.0570  0.3352
 8778W        W24587  12.097  12.639   2.567  0.1342  0.2515 -0.0995
 8779W        W24588  10.112  16.317  12.816 -0.0489 -0.1391  0.1848
 8780W        W24589   3.889   9.812  12.921 -0.0862  0.2066  0.0327
 8781W        W24590   3.840   4.487  15.101  0.1699  0.2809 -0.1534
 8782W        W24591  16.355   7.269   0.171 -0.0077 -0.2527 -0.2139
 8783W        W24592  17.934   1.955  12.677 -0.1102 -0.0270  0.1943
 8784W        W24593  12.785  11.992  13.307 -0.0121 -0.3513 -0.2773
 8785W        W24594  11.885  10.226   5.139 -0.2017 -0.3244  0.1082
 8786W        W24595  10.551  15.975   5.339 -0.2219 -0.1895  0.3033
 8787W        W24596   4.107   6.968   4.532  0.3362 -0.1429 -0.0641
 8788W        W24597  14.241   0.147   3.132  0.0904  0.1412  0.4411
 8789W        W24598   8.862   6.244  12.111 -0.1738  0.3868  0.1044
 8790W        W24599  11.513  16.034  14.792 -0.3932 -0.0542 -0.2788
 8791W        W24600   1.870   7.535  13.820  0.1096  0.2240 -0.0270
 8792W        W24601   8.332   6.807  10.591 -0.1499  0.1913  0.1809
 8793W        W24602   5.459  12.719  10.970 -0.0494  0.3018  0.2214
 8794W        W24603   8.962   8.045   2.650 -0.0442 -0.0276  0.0585
 8795W        W24604   7.590   5.475  15.063  0.0812 -0.2387 -0.0302
 8796W        W24605  15.704  14.056  11.740 -0.0191  0.2719  0.1257
 8797W        W24606   2.789   3.092   2.181  0.0430 -0.2175 -0.0821
 8798W        W24607  17.098  11.167   4.466  0.0622 -0.0361 -0.2434
 8799W        W24608   6.998  16.364  10.968 -0.0724 -0.0282 -0.0026
 8800W        W24609   3.262  11.500  14.919 -0.1890  0.2019 -0.1181
 8801W        W24610   0.750  12.935  12.203 -0.0079  0.0494 -0.0475
 8802W        W24611   4.984   1.431  14.090 -0.0690  0.2162  0.0832
 8803W        W24612   7.559   1.908   0.757 -0.1622 -0.1045  0.0506
 8804W        W24613   2.397   5.750   4.541  0.0470 -0.0356 -0.1946
 8805W        W24614  17.507  10.676   9.723 -0.0070 -0.0624 -0.0593
 8806W        W24615   5.840   9.438   3.120  0.1217 -0.0027  0.2491
 8807W        W24616   4.626  15.748  12.316 -0.2532 -0.0873  0.1329
 8808W        W24617   2.778  15.407  13.195  0.5403  0.1661  0.2713
 8809W        W24618  14.089   4.989   5.465  0.2787  0.0601  0.0249
 8810W        W24619  11.689  15.065   3.327  0.2123  0.2685  0.0929
 8811W        W24620   1.272   8.940   3.022 -0.3320 -0.0931 -0.1937
 8812W        W24621   0.124   0.809  12.296  0.2268 -0.0059 -0.0585
 8813W        W24622  14.455  16.877   4.631 -0.1620  0.0242  0.1654
 8814W        W24623   3.682   5.368  13.479 -0.1308 -0.2701  0.2741
 8815W        W24624  14.672   2.493   5.527  0.1354 -0.2023 -0.3881
 8816W        W24625   2.637  15.899   3.037  0.1712  0.2175  0.1786
 8817W        W24626  15.580   3.609  14.925 -0.2242 -0.1249 -0.0856
 8818W        W24627   2.824   8.131   2.686 -0.2034 -0.0281 -0.2416
 8819W        W24628  16.724   9.891   3.231 -0.0218 -0.0148 -0.0315
 8820W        W24629   4.094   9.084   3.665 -0.3729 -0.0900  0.2479
 8821W        W24630   4.819   8.668   1.625 -0.5304 -0.1666  0.0517
 8822W        W24631  17.464  11.375   3.721  0.0887  0.0454  0.1236
 8823W        W24632  17.183   1.185  15.812  0.1450  0.1595 -0.1393
 8824W        W24633   9.589  11.339  13.134  0.1992  0.0526  0.1148
 8825W        W24634  13.204  16.334   3.451 -0.0364  0.0883 -0.1123
 8826W        W24635  11.318   1.254   3.594 -0.0361  0.3484  0.0159
 8827W        W24636   6.876   1.081   3.135  0.0524  0.1963 -0.4555
 8828W        W24637  10.564  13.128   3.973  0.3252 -0.2736  0.3262
 8829W        W24638   0.968   2.729  13.400  0.1051 -0.0224 -0.0430
 8830W        W24639  18.192  16.214  14.204  0.1469  0.2981 -0.1335
 8831W        W24640   4.305  10.203   5.865 -0.0339  0.2511 -0.3236
 8832W        W24641   1.625   0.707   0.397  0.3545  0.2354 -0.0143
 8833W        W24642   3.028   0.709  12.093 -0.3101  0.1648 -0.0336
 8834W        W24643  12.190  10.165  12.926  0.0529  0.1040  0.1658
 8835W        W24644   6.672  14.205   5.516  0.1768  0.0554 -0.0554
 8836W        W24645   2.146   8.194  14.694 -0.2134  0.1824 -0.0619
 8837W        W24646  10.216  15.483   3.124 -0.1336 -0.1540 -0.3807
 8838W        W24647  14.266   9.983  13.431 -0.1800 -0.2506  0.3018
 8839W        W24648   6.821   9.753  11.598  0.1365 -0.2642  0.1547
 8840W        W24649  12.031   8.034   1.906  0.0439 -0.0856 -0.0716
 8841W        W24650   1.661  10.903  14.587 -0.2735 -0.1828  0.1512
 8842W        W24651  16.728   2.384   2.305  0.1245 -0.2006  0.0636
 8843W        W24652  13.378   8.251   1.371  0.2127 -0.3112 -0.0677
 8844W        W24653   7.946   5.945   2.093  0.0043 -0.0517  0.0222
 8845W        W24654   3.173  14.335  13.397  0.2657  0.0309 -0.0245
 8846W        W24655   0.732  10.885   1.205  0.0279 -0.2055  0.0959
 8847W        W24656   8.186  12.989   1.231 -0.0131 -0.1074  0.1764
 8848W        W24657   8.050   8.406   3.237  0.0686 -0.0838  0.1328
 8849W        W24658   4.987   7.495   3.540 -0.2277 -0.0742  0.1392
 8850W        W24659   1.688  12.405  12.383  0.1266  0.0044  0.1332
 8851W        W24660   1.230   5.452  13.267 -0.2188  0.0459  0.0252
 8852W        W24661  16.875  11.834   4.139  0.1318  0.2398 -0.2597
 8853W        W24662  16.954  16.945  12.937  0.0322  0.2061  0.1974
 8854W        W24663   9.768  11.073   4.658 -0.1382 -0.1090 -0.3765
 8855W        W24664   2.045   7.623  10.496 -0.2323  0.1698 -0.2696
 8856W        W24665   4.185   7.395  15.631  0.3584 -0.3106  0.1073
 8857W        W24666   6.843   0.368  14.419  0.0897 -0.3634 -0.1464
 8858W        W24667   6.138  15.155  12.694 -0.0434 -0.3746 -0.2709
 8859W        W24668  17.314  14.153  12.327 -0.3206 -0.2554 -0.0780
 8860W        W24669  14.224  10.943  13.822  0.1344  0.1361 -0.0891
 8861W        W24670   8.560   9.226  15.713 -0.2622 -0.0085 -0.1196
 8862W        W24671   2.742   6.651   1.028 -0.0993 -0.0077  0.0028
 8863W        W24672  12.879   2.390   0.752  0.0178  0.0817 -0.1015
 8864W        W24673  15.881  13.288  12.590 -0.1031 -0.3202  0.2530
 8865W        W24674  12.372   9.368   5.453 -0.1071  0.2030 -0.0983
 8866W        W24675   4.745   0.935  14.856  0.2364  0.1059  0.0571
 8867W        W24676   9.981   2.828   4.726  0.1092  0.0405 -0.3517
 8868W        W24677   2.190   3.512   2.857 -0.2313  0.1747 -0.0187
 8869W        W24678  16.504   6.381  15.077  0.0277  0.0697 -0.3904
 8870W        W24679  10.597  14.190   2.917  0.0846  0.2868  0.1428
 8871W        W24680  17.824  15.268  15.039 -0.1449 -0.2508  0.3551
 8872W        W24681   2.105   3.390   0.105 -0.0748 -0.4395 -0.1018
 8873W        W24682  17.004   8.463  11.633  0.4966  0.1312  0.2092
 8874W        W24683  12.292  14.642   5.362  0.1943 -0.2467  0.3503
 8875W        W24684   9.517  16.076  11.542  0.1843 -0.0311 -0.3752
 8876W        W24685   2.125   6.060  11.594 -0.2095  0.3379  0.0942
 8877W        W24686   6.071   7.786  10.923  0.1458 -0.1661 -0.3629
 8878W        W24687   7.575   4.928  15.886  0.0407 -0.0296 -0.1626
 8879W        W24688   3.414  15.994   1.926 -0.0044  0.1043 -0.2180
 8880W        W24689  16.962   2.999   0.467 -0.0654  0.1643  0.1950
 8881W        W24690  14.009   5.763   2.005 -0.2540  0.0222  0.1652
 8882W        W24691   5.538   7.802  11.418 -0.2663 -0.1325 -0.1046
 8883W        W24692   2.453   0.554  14.026 -0.1822 -0.4056 -0.2283
 8884W        W24693   0.386   5.378  11.171  0.1194  0.0625 -0.0372
 8885W        W24694   4.669   8.705   4.254 -0.0564  0.0578  0.2237
 8886W        W24695   3.007  13.523   6.181  0.0858 -0.0673  0.0841
 8887W        W24696  17.573   9.734  12.545  0.1157  0.2177 -0.3612
 8888W        W24697  10.497   3.855   4.435 -0.1408  0.0211  0.1827
 8889W        W24698  11.243  17.990   3.729 -0.3116  0.1308 -0.1674
 8890W        W24699  10.304  16.209   2.788  0.0813  0.0861 -0.0197
 8891W        W24700   0.739  16.518  14.129 -0.0216 -0.2435  0.0974
 8892W        W24701   3.951   4.604   2.995 -0.2442 -0.1404  0.3027
 8893W        W24702  17.443  12.785  15.643  0.2060 -0.0195  0.0195
 8894W        W24703  11.195   9.684  13.532  0.0436 -0.3840 -0.2339
 8895W        W24704  12.688   5.402   0.611  0.1490  0.3537  0.1168
 8896W        W24705   7.817  14.131  14.924 -0.1413 -0.1706  0.0106
 8897W        W24706   1.634  14.841   4.776 -0.2167  0.1074  0.4010
 8898W        W24707  12.518  10.852  13.223  0.0985 -0.0105 -0.3548
 8899W        W24708  18.142   2.685   0.275 -0.1033  0.2443 -0.0088
 8900W        W24709   9.521   7.034   0.977  0.2068 -0.0455 -0.3803
 8901W        W24710  16.600  14.016   0.258  0.0916 -0.2482 -0.3348
 8902W        W24711  11.392  13.025  14.548  0.0912 -0.2143  0.0477
 8903W        W24712  10.474   0.973   4.653 -0.0853  0.0880 -0.2921
 8904W        W24713   6.139   1.945  13.962 -0.4448  0.0450 -0.2123
 8905W        W24714   6.476   5.094   1.122  0.3082 -0.0972  0.0691
 8906W        W24715   7.267   0.261  13.168 -0.1037 -0.1482 -0.0224
 8907W        W24716   1.683  14.298   4.763 -0.0269 -0.2622 -0.1443
 8908W        W24717  15.605   4.273  15.430 -0.0255 -0.0142 -0.2458
 8909W        W24718   2.351   9.877  14.706 -0.0337  0.1721  0.2033
 8910W        W24719   5.355  11.378  14.510 -0.1869  0.0390  0.0816
 8911W        W24720   4.793   5.500   0.508  0.0281 -0.0833 -0.0264
 8912W        W24721  17.874   2.840   2.594  0.0884 -0.2857 -0.1744
 8913W        W24722  15.015   6.738   5.353 -0.3576 -0.0308 -0.2239
 8914W        W24723  16.629  14.282  13.492  0.0734 -0.1143  0.0711
 8915W        W24724   7.727  10.599   4.391 -0.2805  0.1212 -0.2082
 8916W        W24725   3.617   3.101   3.667 -0.0889 -0.0180  0.2944
 8917W        W24726   8.232  10.370  15.579 -0.0546 -0.2010  0.1060
 8918W        W24727   7.188  12.165  10.397 -0.0600  0.0724  0.0746
 8919W        W24728  18.194   2.554  10.734 -0.2461  0.0681 -0.3426
 8920W        W24729   5.592  13.962  15.132 -0.1048 -0.0005 -0.0745
 8921W        W24730  17.234  13.619   4.911 -0.1548  0.3029  0.0616
 8922W        W24731   3.676  18.069  15.911  0.0040  0.0318  0.0875
 8923W        W24732  17.496  10.044  11.764 -0.1034  0.0662  0.0440
 8924W        W24733   6.890   5.452  11.820 -0.0592  0.1122  0.2930
 8925W        W24734  17.467   5.678   6.064  0.0330 -0.0002  0.3375
 8926W        W24735  16.722  15.988   3.292  0.1685 -0.2015  0.0007
 8927W        W24736   8.589   2.299   4.905 -0.1370  0.1428 -0.0106
 8928W        W24737   6.787   3.223  14.980 -0.0698  0.1282  0.1506
 8929W        W24738   4.927   6.978  15.949  0.3461 -0.0114 -0.0943
 8930W        W24739  16.963  16.126  15.549 -0.2009  0.0934 -0.1971
 8931W        W24740  17.902  13.173   0.810 -0.1852 -0.1000  0.2908
 8932W        W24741  10.451  14.357  12.765  0.1059 -0.0769  0.0932
 8933W        W24742   3.024   4.667  13.297  0.1249  0.1168  0.0237
 8934W        W24743   9.503  16.992   1.461 -0.0948  0.0985 -0.1376
 8935W        W24744   7.301   6.282  13.224 -0.0016  0.4429 -0.0984
 8936W        W24745   7.689  14.028  13.701  0.0545 -0.0657  0.1361
 8937W        W24746  14.638   8.960   1.330  0.2789 -0.1778  0.0376
 8938W        W24747   7.570   7.060  10.734 -0.0595  0.2329 -0.0411
 8939W        W24748  16.265  16.455   5.363  0.3314 -0.1838 -0.0605
 8940W        W24749   1.711   6.033  10.008  0.1920 -0.1613 -0.0854
 8941W        W24750   6.056   2.569  11.791  0.0237  0.2310  0.1010
 8942W        W24751   1.702   7.907   1.311 -0.0079  0.4772 -0.1556
 8943W        W24752  11.910  13.460   3.940  0.3164  0.0299 -0.0709
 8944W        W24753   3.005   4.382  12.818 -0.1712  0.0897 -0.0715
 8945W        W24754  12.345  10.285  12.448  0.0145 -0.1929  0.2534
 8946W        W24755  16.820   9.084   2.259  0.0688 -0.0506 -0.3762
 8947W        W24756  12.930   0.670  11.633  0.1285 -0.0623 -0.1419
 8948W        W24757  15.398  11.988  12.594  0.1720 -0.2180 -0.0300
 8949W        W24758   9.034   7.964   3.765  0.1136 -0.1053  0.2369
 8950W        W24759   4.395   7.971  15.187 -0.0511  0.2931 -0.0438
 8951W        W24760  14.647   1.341   0.327 -0.0423 -0.0969  0.0766
 8952W        W24761   4.071  16.377   0.176 -0.0705  0.2203  0.0638
 8953W        W24762   6.142  13.067   0.970 -0.1591 -0.0476  0.0110
 8954W        W24763   6.881  17.792   3.557 -0.1394  0.0778  0.0308
 8955W        W24764  18.084   9.332   2.202 -0.2638  0.1287 -0.1579
 8956W        W24765   0.137   8.100  14.541  0.2292  0.2344 -0.2194
 8957W        W24766   5.252   1.009   1.420  0.1042 -0.1550 -0.1001
 8958W        W24767  16.255  10.412  10.676  0.2447 -0.4108  0.4069
 8959W        W24768  14.487   7.361  14.287  0.0582  0.2329 -0.0694
 8960W        W24769  17.445   7.006  10.493 -0.0130 -0.1629 -0.1327
 8961W        W24770   1.515   4.044  15.777  0.1514  0.2440  0.0417
 8962W        W24771  17.252  16.512  12.716 -0.2721 -0.2426 -0.1379
 8963W        W24772  14.092   8.471  15.194  0.1305 -0.1070 -0.2360
 8964W        W24773  12.651   2.854   3.346  0.1491  0.2584 -0.1750
 8965W        W24774  16.490  15.834   2.572  0.0889  0.3850  0.0096
 8966W        W24775  11.641   3.723  12.689 -0.3109  0.0309 -0.0707
 8967W        W24776   2.433   2.103  10.637 -0.2349 -0.0840  0.3088
 8968W        W24777   0.008  12.814  15.722  0.0907 -0.0925 -0.1351
 8969W        W24778  10.812  15.074  13.688  0.1672 -0.1953 -0.0888
 8970W        W24779   2.479  17.536  12.019 -0.3241  0.2297 -0.1580
 8971W        W24780  16.591   2.838   5.579 -0.1463  0.1250  0.1001
 8972W        W24781   4.557   9.436   1.987  0.2478  0.4129 -0.2448
 8973W        W24782  12.542   4.067  15.315  0.1516  0.1324 -0.2020
 8974W        W24783   0.259  15.241  11.031  0.3200 -0.2308 -0.0490
 8975W        W24784   1.907   0.676   2.304  0.3046 -0.0507  0.2857
 8976W        W24785   1.957   7.766  13.162 -0.0591 -0.1398  0.2930
 8977W        W24786   1.787   2.189  12.930 -0.2651 -0.0806 -0.1244
 8978W        W24787   6.443  14.685   2.656  0.0336  0.0661  0.2586
 8979W        W24788  14.181   0.507  15.974  0.0676 -0.0288 -0.3504
 8980W        W24789   9.257   4.117  15.122 -0.0361 -0.0722 -0.2567
 8981W        W24790  14.659  14.705   4.310  0.4407 -0.1764  0.0194
 8982W        W24791  14.940  13.452  14.520  0.0740 -0.0360 -0.0995
 8983W        W24792   1.082  10.669   0.974 -0.3212  0.0438  0.2466
 8984W        W24793   3.333  12.747   1.268  0.2305  0.0223 -0.3083
 8985W        W24794   3.272  15.857  15.810  0.2885  0.2742  0.0584
 8986W        W24795  10.185  14.856   1.542  0.2349 -0.0612  0.0549
 8987W        W24796   1.114   1.669  13.522  0.1029  0.1778  0.2151
 8988W        W24797   5.577  11.322  10.390 -0.2003  0.0595  0.1933
 8989W        W24798  13.756   0.012   4.915 -0.0004  0.2667  0.0359
 8990W        W24799   8.894   1.342  11.852 -0.0451 -0.0344 -0.0946
 8991W        W24800   4.341   8.632  15.664  0.0977 -0.1347  0.2559
 8992W        W24801   8.732  11.000   2.508  0.1042  0.0438  0.1565
 8993W        W24802   7.496   4.641   3.274 -0.0807 -0.1174 -0.1393
 8994W        W24803   8.316  12.575   2.350  0.1182  0.2092  0.2755
 8995W        W24804  16.874  17.692  13.679  0.0155  0.0674  0.1349
 8996W        W24805   1.389   4.061   0.381 -0.1219  0.1210 -0.0873
 8997W        W24806  16.356  10.187   3.433 -0.0151 -0.0996  0.1862
 8998W        W24807   2.030  10.695   4.652  0.1675  0.0532  0.0729
 8999W        W24808   3.159   3.715   2.910 -0.0564 -0.0169  0.2733
 9000W        W24809  14.262   6.089   3.337  0.1825 -0.2086  0.0581
 9001W        W24810   0.032   5.476  13.904  0.1956  0.1349  0.4085
 9002W        W24811   6.170   4.978   1.556 -0.1888 -0.0319  0.0585
 9003W        W24812  14.007  14.010   2.529 -0.3478  0.0355  0.1027
 9004W        W24813   6.835   6.632  12.277 -0.0950 -0.2460  0.1320
 9005W        W24814   9.163  15.132  11.353 -0.1311  0.2676  0.1713
 9006W        W24815  12.596  14.176   0.113 -0.0113 -0.0357 -0.0135
 9007W        W24816  15.137   9.756   0.768  0.1300  0.0215  0.0484
 9008W        W24817   4.581  17.454   4.383 -0.0321  0.0219  0.0056
 9009W        W24818   2.665  17.813  13.045  0.1269  0.0186  0.1073
 9010W        W24819   5.100   7.306  13.678  0.0200 -0.0920  0.0080
 9011W        W24820   6.169   9.294   1.258  0.4364 -0.0000 -0.0780
 9012W        W24821   5.588  12.095  14.073  0.2398 -0.2954  0.1079
 9013W        W24822   1.089   3.846   2.152  0.1447 -0.0500  0.0878
 9014W        W24823   5.914  10.488   4.992  0.2010  0.1576  0.0891
 9015W        W24824   6.570   6.295  13.987  0.0764  0.1109 -0.0778
 9016W        W24825  13.158   8.865  12.165 -0.3115 -0.0501 -0.1155
 9017W        W24826   0.256  12.485   1.158  0.0430 -0.1747  0.0888
 9018W        W24827   3.953   9.893   1.612  0.0552 -0.2554 -0.0328
 9019W        W24828   4.016   3.722   3.856 -0.2253  0.0588 -0.0654
 9020W        W24829   0.757  10.299  12.546 -0.0644 -0.3372 -0.0206
 9021W        W24830  14.731  12.554  15.263 -0.1188  0.1196  0.0391
 9022W        W24831   2.481   1.914   3.945  0.0429 -0.3233  0.1884
 9023W        W24832   9.860  10.850   5.710 -0.1742  0.0168  0.1145
 9024W        W24833   6.728  11.252   4.142  0.2353 -0.0323 -0.1602
 9025W        W24834   9.292   8.212   2.153 -0.0177  0.2437 -0.0035
 9026W        W24835  16.798   5.896  13.139 -0.1746 -0.1355  0.0738
 9027W        W24836  11.532   6.528   0.247 -0.0401  0.3153  0.1077
 9028W        W24837   2.807   1.554   3.890  0.0340  0.2203  0.0495
 9029W        W24838   1.902  14.228  13.721 -0.3431 -0.0234  0.1597
 9030W        W24839   5.178   3.690  11.334  0.0947  0.1337  0.1740
 9031W        W24840  16.442   9.356  13.023  0.1309 -0.0809  0.5157
 9032W        W24841  11.541  17.269  12.462  0.3912 -0.4615 -0.0534
 9033W        W24842   5.733   3.044   2.039 -0.1212 -0.0753 -0.1608
 9034W        W24843   7.274   7.753  13.136 -0.0147  0.1659  0.0021
 9035W        W24844  13.854   9.612  15.797 -0.2334  0.0126  0.0775
 9036W        W24845   2.678   4.657  12.373 -0.3565  0.0132 -0.0059
 9037W        W24846  12.407  13.877   4.481  0.0167  0.1732  0.0718
 9038W        W24847  10.682   5.079   3.409 -0.3780 -0.0596 -0.2412
 9039W        W24848   6.048  15.513   3.089  0.0081  0.2391  0.0306
 9040W        W24849   2.840  12.002   3.076  0.3473  0.0419  0.0607
 9041W        W24850  11.251  13.606   3.986  0.0452  0.1042  0.0329
 9042W        W24851  13.976  14.126  15.056 -0.0444  0.0884  0.3226
 9043W        W24852  17.184   6.045  13.542  0.3592 -0.2154 -0.1231
 9044W        W24853   1.433  14.723  15.895 -0.2096  0.0493 -0.1629
 9045W        W24854   0.180   4.520  15.389  0.3434  0.0726 -0.0236
 9046W        W24855  13.157   0.699  14.708  0.0777  0.3301 -0.1771
 9047W        W24856   1.545  13.936   3.800 -0.0672  0.3539 -0.2151
 9048W        W24857   0.461  13.316  13.071 -0.1551 -0.0450  0.1540
 9049W        W24858  10.447  16.782  15.673  0.2317  0.1251 -0.2207
 9050W        W24859   6.583  10.562   2.056  0.1559  0.1278  0.1621
 9051W        W24860  17.594   0.336  15.235 -0.2620 -0.3337  0.0561
 9052W        W24861   7.217  16.940  13.807 -0.2217  0.1547  0.0420
 9053W        W24862  14.846   2.177  11.326  0.1451  0.1474 -0.0573
 9054W        W24863   4.051  12.137   0.817 -0.1414 -0.1290 -0.0277
 9055W        W24864  11.748   7.326   2.247 -0.3511 -0.0071  0.2115
 9056W        W24865  17.508  15.030   0.335  0.1413 -0.1311 -0.2534
 9057W        W24866   7.261  10.033   5.401 -0.1922  0.3806 -0.2325
 9058W        W24867  17.785   6.985  15.315 -0.0156 -0.2117 -0.0443
 9059W        W24868   6.706  13.552  13.649  0.1490 -0.0618 -0.3197
 9060W        W24869   6.800   3.839   2.846  0.0713 -0.1674 -0.1351
 9061W        W24870   6.397  10.024   5.460  0.1189  0.1737 -0.0514
 9062W        W24871  13.543  12.276   4.860  0.0051  0.0174  0.1538
 9063W        W24872   0.889  12.742  13.107  0.1378 -0.2694 -0.0717
 9064W        W24873   8.365  13.403  13.975  0.1619  0.0892  0.0210
 9065W        W24874   8.902   3.207   3.022 -0.1709 -0.4806 -0.1187
 9066W        W24875   8.339  17.958   0.447  0.2321 -0.0881 -0.0218
 9067W        W24876  15.725  17.728  15.437  0.1178 -0.4049 -0.2417
 9068W        W24877   6.779  16.083   0.198 -0.3761 -0.0228 -0.1609
 9069W        W24878   8.885  13.103   1.025  0.1560 -0.0292 -0.1779
 9070W        W24879   1.222  14.801   1.385  0.0671 -0.0985 -0.0068
 9071W        W24880   1.490   7.428   4.208  0.2057  0.0560  0.0824
 9072W        W24881  13.970   7.801   0.881 -0.1123 -0.0445  0.1866
 9073W        W24882   4.665   9.696  16.014  0.3016  0.0176 -0.2120
 9074W        W24883   0.053  14.109   1.810 -0.0301 -0.0223  0.0691
 9075W        W24884  16.935  15.095   2.305 -0.1340  0.3211  0.0952
 9076W        W24885  16.547  13.945   2.199  0.0186 -0.1293  0.0747
 9077W        W24886  10.672  15.951   3.024 -0.1910  0.0632 -0.3030
 9078W        W24887  17.954  16.772  12.203  0.0468 -0.3639  0.1896
 9079W        W24888   7.275   0.382   3.896  0.2579  0.0755  0.0775
 9080W        W24889  13.938   4.741   3.510  0.1613 -0.0695 -0.2722
 9081W        W24890   3.892   4.723  11.093  0.0280  0.1815 -0.3074
 9082W        W24891   0.825   3.102  15.133  0.1265 -0.1582  0.0056
 9083W        W24892  17.118  14.710   3.759 -0.3193 -0.0661  0.0735
 9084W        W24893   2.111  10.533   2.913  0.0459 -0.0676  0.2949
 9085W        W24894  18.010  11.121  12.982 -0.2438  0.2787 -0.0861
 9086W        W24895   4.466  13.005  12.520 -0.0723 -0.1192  0.1965
 9087W        W24896  16.996   7.696   4.970 -0.1773  0.1962 -0.1833
 9088W        W24897   2.536  14.014  12.684 -0.1878  0.2722 -0.1318
 9089W        W24898   3.255  13.315   2.515  0.1770 -0.0406  0.0170
 9090W        W24899   9.940  14.804   4.451  0.1192  0.1284 -0.1584
 9091W        W24900   0.066  17.582  11.248 -0.1193  0.0483 -0.1654
 9092W        W24901  13.484   6.550  15.613  0.1836  0.0902 -0.2540
 9093W        W24902   0.592   9.339   2.984 -0.0002  0.1271  0.2688
 9094W        W24903   6.539  15.904   0.976  0.2135  0.0021 -0.2981
 9095W        W24904   7.860   8.143  12.250 -0.1245 -0.1110 -0.0447
 9096W        W24905   8.907   9.060   1.685 -0.2379 -0.0550  0.1446
 9097W        W24906  12.073  15.597  13.276  0.1321  0.2142  0.1571
 9098W        W24907  16.247  15.702   4.926  0.3360 -0.0702  0.3081
 9099W        W24908  12.793   2.169   1.800 -0.1721  0.0508  0.0060
 9100W        W24909  10.482  12.072   2.356  0.3221  0.1269 -0.1291
 9101W        W24910   4.249   0.249   2.532 -0.0477 -0.1221  0.0897
 9102W        W24911  14.557   9.300   0.904 -0.1541 -0.1120  0.3560
 9103W        W24912  11.393   8.655   0.504 -0.0627  0.3884  0.1246
 9104W        W24913  14.365   4.215   0.126 -0.1891  0.0008  0.1368
 9105W        W24914   4.679  14.353   3.989 -0.0116  0.2781  0.0993
 9106W        W24915   4.232   2.196  13.373  0.3145  0.0558 -0.1424
 9107W        W24916  12.996  11.642   3.186  0.0967  0.2385 -0.3587
 9108W        W24917   7.541   1.987  13.804 -0.0025  0.4208 -0.0892
 9109W        W24918  10.347  15.706  12.795  0.1670 -0.1550 -0.1465
 9110W        W24919  11.169   2.999   3.381 -0.0417 -0.0496  0.0793
 9111W        W24920   5.011   5.977   4.276  0.0219 -0.0197 -0.0899
 9112W        W24921  15.713   9.860  13.269 -0.2578  0.0822  0.0604
 9113W        W24922  16.724   5.218   2.837 -0.1699 -0.1137 -0.1697
 9114W        W24923  11.557  10.551   4.863 -0.2536  0.6050  0.0055
 9115W        W24924  11.038   3.531  10.865 -0.1890 -0.0789 -0.2870
 9116W        W24925   1.314   6.004  13.786 -0.1179 -0.2519 -0.1898
 9117W        W24926  17.072  16.689  13.385 -0.0075  0.0797 -0.0812
 9118W        W24927  17.491  18.098  15.365  0.0504  0.0112  0.2730
 9119W        W24928  14.942   8.574   2.043 -0.0294 -0.1865  0.1925
 9120W        W24929   2.789   5.223   0.474 -0.2757  0.0686 -0.0342
 9121W        W24930   1.882   2.758   4.763 -0.0356 -0.3528  0.0674
 9122W        W24931   7.522   6.305  13.737  0.1638 -0.2539  0.2732
 9123W        W24932   9.079   5.188   0.611 -0.0350 -0.0344 -0.0774
 9124W        W24933   7.701   2.830   0.701 -0.2246  0.0343 -0.2009
 9125W        W24934  10.894  11.963  11.051 -0.2481  0.0166 -0.1676
 9126W        W24935  14.429  12.701   2.704 -0.0339  0.1754  0.0923
 9127W        W24936   6.228   0.108   0.779  0.1310 -0.3243 -0.1476
 9128W        W24937  10.251  15.818   1.820  0.2820  0.0840  0.3631
 9129W        W24938  16.051  13.442   5.372  0.2386 -0.1182  0.1479
 9130W        W24939   5.149   4.900   1.425 -0.3138 -0.4466 -0.1249
 9131W        W24940   7.515   3.164   1.567 -0.1929  0.0672 -0.1281
 9132W        W24941   5.438   7.006  10.625  0.0407 -0.0500  0.1128
 9133W        W24942  18.201  14.797  11.659 -0.1391  0.2935 -0.0665
 9134W        W24943   3.515  13.903   4.643  0.3842  0.0912 -0.0794
 9135W        W24944  17.562   0.991   4.720 -0.0337 -0.0981  0.2611
 9136W        W24945  10.433   2.412   5.105 -0.1413  0.0696  0.1116
 9137W        W24946  13.163   5.421  11.354  0.0819 -0.3908  0.0935
 9138W        W24947  17.979   6.848   4.786  0.2218 -0.1465  0.1622
 9139W        W24948   3.462  13.339   0.658  0.0444  0.0459  0.0004
 9140W        W24949   5.246   0.322   2.184 -0.1081  0.0960 -0.0968
 9141W        W24950   0.914   1.868   4.093  0.3280 -0.0944  0.1046
 9142W        W24951   8.943  17.898  14.353  0.2902  0.1682  0.0432
 9143W        W24952  14.300   5.452   4.632  0.1584 -0.3006  0.0436
 9144W        W24953  11.835   6.841  14.803 -0.1620  0.0211  0.2060
 9145W        W24954   5.052  13.606  14.857 -0.2652  0.2271  0.2466
 9146W        W24955   0.844  13.387   3.015 -0.3239 -0.1440 -0.0050
 9147W        W24956   8.541   3.975  12.297 -0.0365  0.0143  0.1241
 9148W        W24957   4.991   3.022   4.165  0.0893 -0.0875 -0.2603
 9149W        W24958   0.629  12.487  14.105 -0.2162 -0.0666 -0.1431
 9150W        W24959   8.551   2.591  15.600 -0.1779 -0.2814 -0.2069
 9151W        W24960  14.530  13.971  12.436  0.2766 -0.0884  0.1011
 9152W        W24961   7.346  10.836   5.575 -0.0581  0.1114  0.2940
 9153W        W24962  17.158   8.798   3.753  0.3137  0.0043  0.0022
 9154W        W24963  11.449   4.250   1.556  0.3591 -0.3687 -0.1463
 9155W        W24964  18.136  15.554  12.261 -0.1256  0.2112  0.1097
 9156W        W24965  17.561   4.745  10.526 -0.1968  0.0601  0.2969
 9157W        W24966   4.809   2.374   1.423 -0.1360 -0.0481 -0.0541
 9158W        W24967   9.082   8.725  15.316 -0.0815 -0.2023 -0.2680
 9159W        W24968   8.229  14.223  14.541 -0.2571  0.2396 -0.1965
 9160W        W24969   7.352   4.347  11.806  0.0141  0.0049 -0.3298
 9161W        W24970   3.692  15.639   4.655  0.3596 -0.1741  0.0516
 9162W        W24971  13.534  17.470  12.730 -0.0907  0.1493  0.0216
 9163W        W24972   4.553   3.839   0.734 -0.0640  0.0853 -0.0042
 9164W        W24973   2.942   6.204   2.724 -0.1491  0.3593 -0.0003
 9165W        W24974   8.483  11.983   0.443  0.1175  0.1956 -0.0330
 9166W        W24975  18.181   4.953   3.370  0.0780  0.2810 -0.1143
 9167W        W24976   2.525  14.704  11.353  0.2015 -0.1319 -0.0647
 9168W        W24977   2.883   0.602   0.893 -0.5712  0.2375 -0.2365
 9169W        W24978  15.972   2.979   4.808 -0.0710  0.0987 -0.0946
 9170W        W24979  17.564  10.227  12.690  0.2563 -0.1813  0.1983
 9171W        W24980  15.678   1.351   6.175  0.0836  0.1484  0.2249
 9172W        W24981  12.040  17.133  12.117  0.3662 -0.1542 -0.0440
 9173W        W24982   9.554   1.023   0.067 -0.0382 -0.0507 -0.2795
 9174W        W24983   9.945  16.267   5.187 -0.1406  0.0706  0.1420
 9175W        W24984  15.197   1.334  14.244  0.1070 -0.1630 -0.2351
 9176W        W24985   4.439   4.401  15.941 -0.0502  0.3540  0.1853
 9177W        W24986  14.006   3.314  15.916 -0.0729  0.1206 -0.0411
 9178W        W24987  14.664  17.278  13.387 -0.1930  0.3194  0.0025
 9179W        W24988  17.116  12.039  11.424 -0.1142  0.1972 -0.1156
 9180W        W24989   3.485  18.126  13.936  0.0898  0.1096 -0.0080
 9181W        W24990   5.973  15.489  12.367 -0.2911  0.0175 -0.0251
 9182W        W24991   7.001  11.547   0.911 -0.0002  0.0081 -0.1313
 9183W        W24992   8.606  14.417  11.836  0.0795  0.0829 -0.1934
 9184W        W24993  18.147   2.692  12.861 -0.0981 -0.2156 -0.0668
 9185W        W24994   7.627   1.862   3.101  0.1042  0.2333  0.3257
 9186W        W24995   9.849   9.216  14.792 -0.3133  0.1319 -0.0035
 9187W        W24996  10.511  17.459  15.979  0.1540 -0.0695  0.1011
 9188W        W24997   5.521  11.455  16.068  0.0823 -0.0301  0.0691
 9189W        W24998  15.177   8.459  14.301  0.0398 -0.0277  0.3237
 9190W        W24999   8.223   4.811   2.739 -0.0178 -0.0151  0.3005
 9191W        W25000  11.629  13.423   0.861  0.1387 -0.0205  0.2035
 9192W        W25001   7.277  12.860  13.801  0.2657 -0.0166 -0.2376
 9193W        W25002   5.506  18.131   1.924  0.2946 -0.1402  0.1635
 9194W        W25003  14.358   5.060  13.858  0.0440  0.1439 -0.0429
 9195W        W25004   9.950  10.913  11.523 -0.0297 -0.3677 -0.0710
 9196W        W25005   1.159   5.392   0.782  0.1258 -0.0601 -0.0047
 9197W        W25006  17.308   7.320  12.167  0.2602  0.0323 -0.0731
 9198W        W25007  15.675   0.478  12.177  0.0954 -0.3010  0.0432
 9199W        W25008   4.507   3.267   4.023 -0.2082 -0.1120  0.1214
 9200W        W25009   7.340   0.947  15.070 -0.2408 -0.3542 -0.0790
 9201W        W25010   2.597   4.480   4.545  0.0689  0.1262 -0.1745
 9202W        W25011  14.682  11.944   5.559  0.1630 -0.0118  0.4640
 9203W        W25012   9.015   4.911   1.214 -0.0362 -0.2240 -0.1655
 9204W        W25013  12.806  11.327  13.122 -0.0685  0.2255  0.0042
 9205W        W25014  13.715   0.480   0.131  0.1981 -0.2568 -0.3477
 9206W        W25015   0.799   2.175   2.275  0.1100 -0.0008  0.2710
 9207W        W25016   8.799  11.456   4.481 -0.2152 -0.1273 -0.0950
 9208W        W25017  15.437   0.566   0.203 -0.0384  0.1714  0.0213
 9209W        W25018   2.847  12.812  11.257  0.0908 -0.1691  0.1262
 9210W        W25019   4.356   2.746  13.664 -0.1143  0.0680 -0.1052
 9211W        W25020   1.498   4.068  14.753  0.1028  0.0029 -0.0131
 9212W        W25021  16.464  13.593  13.967 -0.2412  0.0038 -0.0203
 9213W        W25022  17.417   0.292   3.334  0.1651  0.1437 -0.3271
 9214W        W25023   5.507   9.295  11.556 -0.1357 -0.3007 -0.0926
 9215W        W25024   6.940   7.816   3.626  0.1039  0.2846  0.2621
 9216W        W25025   8.588   2.068   1.464 -0.1468 -0.0317 -0.2995
 9217W        W25026   0.860   7.661   2.805  0.1344  0.0275  0.0205
 9218W        W25027   7.268   9.063  10.956 -0.1173  0.1424  0.2924
 9219W        W25028   5.323   3.746   4.519  0.0458  0.2324 -0.0496
 9220W        W25029  12.644  10.859   3.635 -0.1440 -0.1557 -0.1521
 9221W        W25030   8.665   0.383   2.014 -0.0169 -0.3904  0.0061
 9222W        W25031  13.864   0.913   3.832 -0.2946 -0.1311  0.1118
 9223W        W25032   3.926   6.091   4.588 -0.1447 -0.1860 -0.3501
 9224W        W25033   1.003   3.832  11.850  0.3051 -0.2041 -0.1839
 9225W        W25034   6.530  16.285   1.939  0.1344 -0.1934 -0.3402
 9226W        W25035   3.019   9.187  15.565  0.3736 -0.1532 -0.0786
 9227W        W25036   3.986   1.728  15.588 -0.2659 -0.0083  0.2611
 9228W        W25037   7.548   3.435  15.148  0.0970  0.0274 -0.1795
 9229W        W25038   1.383   6.242   0.592 -0.3234 -0.0329  0.0881
 9230W        W25039  16.190   2.393   4.833 -0.0560  0.1880 -0.1193
 9231W        W25040   9.144   5.221   4.109 -0.1827 -0.2706 -0.1444
 9232W        W25041  16.224   6.802   2.987  0.1009  0.0884 -0.0911
 9233W        W25042  10.419   1.658   2.918  0.2969 -0.0700  0.1914
 9234W        W25043  14.891  16.676  13.816 -0.2448 -0.1423  0.0713
 9235W        W25044  18.217  10.756  12.088 -0.3199  0.0562  0.4773
 9236W        W25045  15.727  15.914  11.383  0.0525  0.0741 -0.0324
 9237W        W25046   0.065   4.996  10.993  0.0018 -0.1566 -0.0214
 9238W        W25047  12.440   9.766   5.183 -0.2634 -0.2908 -0.2207
 9239W        W25048  16.407   6.894  11.316  0.0285 -0.0955  0.1616
 9240W        W25049  10.866   1.445   3.775 -0.1636 -0.0635  0.0317
 9241W        W25050  17.269  18.174  13.014  0.0855  0.0966 -0.2065
 9242W        W25051  17.218   7.560  15.177  0.2400  0.0232 -0.2246
 9243W        W25052   0.359  11.665   3.785 -0.0931 -0.1487 -0.0349
 9244W        W25053   9.188  17.049   3.276 -0.3788  0.0475  0.0600
 9245W        W25054   5.240  15.849   3.715 -0.1705  0.1614  0.0091
 9246W        W25055   1.414  13.305   0.694  0.0016 -0.0157 -0.1290
 9247W        W25056   3.818   1.625   5.243 -0.3016  0.2024  0.3105
 9248W        W25057   7.533  17.338   4.046  0.4412  0.3363 -0.0135
 9249W        W25058   6.165  15.112   2.591 -0.0993 -0.1258 -0.3617
 9250W        W25059   8.881   1.774  14.766  0.0021  0.0569 -0.1003
 9251W        W25060  14.305  14.698   3.538  0.0911 -0.0058 -0.1889
 9252W        W25061  16.566  10.825  15.725  0.1420  0.1477 -0.0084
 9253W        W25062  15.598  15.163  13.019  0.3137  0.1681 -0.0141
 9254W        W25063  16.096   0.716   3.410  0.1724 -0.1305  0.1275
 9255W        W25064   7.186  10.546  14.158 -0.3423  0.1715  0.0372
 9256W        W25065   0.545  13.381  15.705 -0.0546  0.0404  0.0316
 9257W        W25066  10.456  10.716  13.564  0.0029 -0.2558  0.3224
 9258W        W25067  18.096  14.546  13.894  0.1137  0.0231  0.1063
 9259W        W25068  14.719   0.659  14.867  0.1346  0.2100 -0.0375
 9260W        W25069   9.404   9.974  14.690  0.0773  0.0288  0.0600
 9261W        W25070  14.140  14.995   4.966 -0.0093 -0.2118 -0.1746
 9262W        W25071   1.497   0.802   3.682  0.0978 -0.0718 -0.0073
 9263W        W25072   0.304   6.626   3.934  0.0024  0.0182 -0.1118
 9264W        W25073  10.608   3.284   3.469 -0.1864 -0.1703  0.0816
 9265W        W25074   8.556   0.853  12.846 -0.0343 -0.0896  0.0456
 9266W        W25075   5.163  11.988   4.845 -0.0861  0.4789  0.0941
 9267W        W25076   8.251   6.326   5.660 -0.1749  0.1050 -0.1373
 9268W        W25077  13.139  10.012   2.437  0.3118  0.0600 -0.0368
 9269W        W25078   0.088  14.597  12.673 -0.0211  0.0622 -0.0307
 9270W        W25079  15.031  15.533  13.527  0.5272  0.2160  0.0406
 9271W        W25080  11.375   3.679  11.346  0.0941 -0.1702  0.1601
 9272W        W25081  12.186   6.910  14.437  0.1548 -0.0638  0.1454
 9273W        W25082   2.596   8.438  10.542 -0.0670  0.0812  0.0564
 9274W        W25083   3.687   4.576   5.978  0.1873  0.1993  0.2089
 9275W        W25084   2.885   9.817  12.677  0.0359 -0.0313 -0.1921
 9276W        W25085  17.799  15.437  13.193  0.0490 -0.1319 -0.2334
 9277W        W25086   4.017  11.725  12.245 -0.1412  0.2298  0.0711
 9278W        W25087   2.031  15.350  12.687  0.0239 -0.4818 -0.1871
 9279W        W25088   4.619   3.403   0.406  0.0664  0.1441  0.1429
 9280W        W25089  14.553  15.684   4.065  0.0193  0.0743 -0.2541
 9281W        W25090   2.801  15.045  15.456 -0.0399 -0.0838 -0.1668
 9282W        W25091  17.227  16.037   3.230  0.0694 -0.1496 -0.0386
 9283W        W25092   7.704   7.809   0.220  0.0752 -0.0307  0.2552
 9284W        W25093  18.024   2.305   3.373 -0.0979  0.1807 -0.0185
 9285W        W25094   6.006  12.776  12.052  0.1493 -0.1413  0.2714
 9286W        W25095   8.270  17.582   0.046 -0.2164  0.0306  0.2008
 9287W        W25096   8.768   5.683   0.020 -0.3051 -0.0600 -0.1509
 9288W        W25097   5.614   8.928  13.286 -0.1386  0.0212 -0.1395
 9289W        W25098   4.092   6.434   4.941 -0.2392 -0.0199 -0.3056
 9290W        W25099   2.187  16.024   2.745  0.2328  0.1123  0.2014
 9291W        W25100  17.857  13.546   4.915  0.0396 -0.4118  0.0516
 9292W        W25101   2.931   7.345  13.678 -0.0303 -0.0505 -0.0537
 9293W        W25102  14.433  17.279   0.977  0.0685  0.1105  0.1137
 9294W        W25103  10.234   0.938   1.866  0.0764 -0.0765 -0.0900
 9295W        W25104   0.465  15.552  13.601  0.2681 -0.0521  0.2107
 9296W        W25105  11.125  16.463   3.186  0.1255 -0.3962 -0.2273
 9297W        W25106   0.507  13.022  10.921 -0.0713 -0.1618  0.2028
 9298W        W25107   8.268  11.671  12.815 -0.1832  0.2392 -0.0173
 9299W        W25108  10.629   1.181   4.231  0.1933  0.1370  0.1264
 9300W        W25109   3.003  13.634  10.849  0.1547 -0.0817 -0.1441
 9301W        W25110  10.321  17.858  13.204  0.3601 -0.2426 -0.2111
 9302W        W25111   8.643  16.054  11.609 -0.0213  0.1900 -0.5699
 9303W        W25112  10.881  16.259  11.071 -0.0697 -0.1208 -0.3726
 9304W        W25113   8.342   8.236  10.671 -0.0746  0.0938  0.0126
 9305W        W25114   8.506   5.402   3.343 -0.5040 -0.2712  0.3468
 9306W        W25115  13.977   4.737  12.302 -0.0250 -0.1058  0.1341
 9307W        W25116  15.175   6.365  12.000  0.1700  0.5956 -0.0754
 9308W        W25117   5.188   5.710   3.518 -0.1563  0.1847 -0.0017
 9309W        W25118   0.690  13.070   5.286 -0.1126  0.0762 -0.0876
 9310W        W25119   6.070  11.356   1.614 -0.0006 -0.1117  0.1445
 9311W        W25120   5.850  15.595   1.828  0.2162 -0.3048  0.0007
 9312W        W25121   2.851  12.278  14.685  0.2397  0.1026 -0.1277
 9313W        W25122   3.418   0.801  14.087 -0.0944  0.1128  0.0918
 9314W        W25123  12.926  10.458  15.427  0.2442 -0.1581 -0.0270
 9315W        W25124  13.268  11.947   5.181 -0.1394 -0.0474  0.1834
 9316W        W25125   1.624  13.919  11.119  0.1500 -0.0042  0.0746
 9317W        W25126   5.313   1.607  14.471 -0.0906  0.1473  0.0474
 9318W        W25127  17.106   1.497   0.185  0.1136  0.0811 -0.2746
 9319W        W25128   6.835  12.305   5.482  0.2575 -0.0681 -0.0524
 9320W        W25129  12.576   3.224  15.957 -0.3300 -0.2232  0.1361
 9321W        W25130   1.900  17.897   1.844  0.1942 -0.1067  0.1303
 9322W        W25131   9.752  12.008  14.860 -0.1182  0.0933  0.1647
 9323W        W25132  10.879  14.505  12.524 -0.0051 -0.2540 -0.1499
 9324W        W25133  14.080   1.239  12.994  0.0320  0.0256  0.1382
 9325W        W25134  12.557  12.833  15.265 -0.2836  0.0128  0.2797
 9326W        W25135  12.237  16.963   1.302 -0.2254  0.0211 -0.0216
 9327W        W25136  14.679   1.902   1.401 -0.1429  0.1298  0.0162
 9328W        W25137   7.462   8.289  14.469 -0.0376  0.0881 -0.0271
 9329W        W25138   6.158  12.324  14.571  0.1360  0.0475  0.0752
 9330W        W25139  13.750   3.099  13.451 -0.2021 -0.1747 -0.1487
 9331W        W25140  14.809  10.617  13.835 -0.0947  0.0305  0.0701
 9332W        W25141   3.164   9.340   5.149 -0.2237 -0.1684  0.1987
 9333W        W25142   8.456   8.106  11.329  0.0857 -0.0606  0.2315
 9334W        W25143   3.466  14.319   4.863 -0.3841 -0.1219 -0.1638
 9335W        W25144  17.589  10.976  13.699  0.2084 -0.0197  0.1183
 9336W        W25145   2.431  15.436   1.493  0.0482 -0.0198  0.0786
 9337W        W25146   5.403  14.755   0.711  0.3979  0.0933 -0.1085
 9338W        W25147   1.627   1.085  10.594  0.0940  0.1873  0.1626
 9339W        W25148   3.986   3.402  13.075 -0.0036 -0.0345 -0.2959
 9340W        W25149  12.626   8.744   0.284 -0.0031 -0.2305  0.0014
 9341W        W25150  10.731  10.306   1.465  0.4354  0.1755  0.0919
 9342W        W25151   4.926  14.969   0.689 -0.1412 -0.0160 -0.0961
 9343W        W25152   6.491   7.767   0.009  0.3120  0.0560 -0.3115
 9344W        W25153  12.125  16.871  13.709 -0.1344 -0.1165  0.0932
 9345W        W25154  18.093   0.308   2.984 -0.0034  0.0328  0.2369
 9346W        W25155  17.016   8.449  15.457 -0.0262  0.0945  0.3552
 9347W        W25156  15.916   9.798  11.783  0.1672 -0.4066  0.0755
 9348W        W25157  14.767   8.872   2.395 -0.0772 -0.3682  0.2309
 9349W        W25158  11.372   9.219   5.288  0.1689  0.1562 -0.1810
 9350W        W25159  16.853  16.178   5.464 -0.0790 -0.2438  0.0082
 9351W        W25160  17.429  12.034   3.974 -0.0991  0.1969 -0.0395
 9352W        W25161   7.211  10.818   2.955 -0.1282 -0.2419  0.0477
 9353W        W25162  10.042  13.674  14.699  0.2211 -0.3497 -0.1714
 9354W        W25163  12.135   8.185   3.313  0.2165 -0.3282  0.0870
 9355W        W25164  10.982  18.189  12.417  0.2061  0.1060  0.2707
 9356W        W25165  16.212  16.886   0.793  0.0758  0.1054  0.1479
 9357W        W25166  11.662  14.904   1.222 -0.1018  0.0526 -0.0955
 9358W        W25167  17.962  17.133  15.614 -0.0032  0.0397  0.0431
 9359W        W25168  13.307   7.275   4.524  0.2407  0.2720 -0.0925
 9360W        W25169   6.915   7.064   3.910  0.0502  0.1308 -0.2665
 9361W        W25170  17.702   0.446   0.046 -0.1653 -0.2675  0.0242
 9362W        W25171   8.585  18.250  14.433 -0.1473  0.0417  0.4625
 9363W        W25172   9.757   1.698   4.031 -0.0718  0.0243 -0.1081
 9364W        W25173   9.101  10.190   0.949  0.3378 -0.3112 -0.2614
 9365W        W25174  17.074   6.708  11.627  0.1231 -0.0046  0.3314
 9366W        W25175   6.003  13.741   6.078 -0.1571 -0.0698 -0.0760
 9367W        W25176  13.460  10.439  10.675  0.0371  0.2459  0.0711
 9368W        W25177   0.736   7.486  15.451 -0.1152 -0.0224 -0.0705
 9369W        W25178   3.235   2.471   5.510  0.0073  0.0256  0.0717
 9370W        W25179   4.939  14.781   3.776  0.1490  0.2215 -0.0269
 9371W        W25180  12.484   0.441  12.635  0.0376  0.1758 -0.0396
 9372W        W25181   1.703   8.261   4.555 -0.0106  0.2098  0.0536
 9373W        W25182   1.693  13.145  11.741  0.1527  0.1239  0.0029
 9374W        W25183   9.865   7.987   9.923 -0.1740 -0.3987  0.1076
 9375W        W25184  14.174  14.108   3.931  0.0120 -0.2835  0.0245
 9376W        W25185  14.419  16.070   3.039  0.0952 -0.1088 -0.0337
 9377W        W25186  13.038   1.877   1.447  0.0947  0.2167 -0.3762
 9378W        W25187  16.270   6.399  11.471  0.1610 -0.0263  0.0849
 9379W        W25188   8.774   4.296  13.184  0.2146  0.2086 -0.2434
 9380W        W25189  10.336  12.577  10.389  0.1909  0.0145  0.0289
 9381W        W25190   3.313   9.383   1.655  0.1949  0.0192 -0.1927
 9382W        W25191   7.306   6.197  11.006 -0.2049  0.0353 -0.2233
 9383W        W25192   2.926   9.609   0.474  0.0007 -0.2466 -0.2474
 9384W        W25193   8.757   5.132   3.722 -0.3991  0.1639 -0.2235
 9385W        W25194  15.712  12.230  13.310 -0.0401 -0.0023  0.0099
 9386W        W25195   6.254  14.268   1.053 -0.0330 -0.0561 -0.3302
 9387W        W25196  15.342   5.412   3.852 -0.0601 -0.1029  0.0131
 9388W        W25197  12.613   3.035   4.270  0.0660 -0.2516  0.1259
 9389W        W25198   1.012   5.915   3.743  0.0659 -0.2478 -0.4351
 9390W        W25199  15.258  12.316  13.981  0.0085 -0.0839  0.1533
 9391W        W25200  12.013  15.139   2.936 -0.0575 -0.1171  0.0784
 9392W        W25201  13.806   4.070   2.335  0.2734 -0.1026  0.0205
 9393W        W25202   2.040   9.222   4.835 -0.2545  0.3002 -0.0509
 9394W        W25203   0.138   3.435  10.381 -0.3587 -0.2977  0.0386
 9395W        W25204   5.702   8.952  15.539  0.1218  0.0903 -0.0183
 9396W        W25205  14.080  12.624  11.487  0.0342  0.1437  0.0002
 9397W        W25206   9.913  11.603   2.554  0.0986 -0.1029  0.1685
 9398W        W25207   1.399  12.144  14.562 -0.0033 -0.0722 -0.1007
 9399W        W25208  13.464  14.781  12.395 -0.2427 -0.1280  0.0246
 9400W        W25209  10.317   3.462   4.777  0.2066  0.1069  0.2851
 9401W        W25210   9.046   6.794  11.355  0.0082 -0.2481  0.1522
 9402W        W25211  13.170   5.741  11.736 -0.0757 -0.1238  0.5293
 9403W        W25212  10.000   1.841   0.235 -0.1483 -0.1004  0.1954
 9404W        W25213   6.492   2.503   0.674  0.2377 -0.0033  0.5626
 9405W        W25214   4.641   3.728  11.283  0.3010  0.0342 -0.0282
 9406W        W25215  11.462   6.168   3.434  0.0445 -0.2223 -0.1507
 9407W        W25216   7.160   5.120  13.515 -0.0663  0.1690  0.3154
 9408W        W25217   3.320   8.089  14.530  0.1050  0.0571 -0.1344
 9409W        W25218   2.969  11.434   1.398  0.0399 -0.0871 -0.0671
 9410W        W25219  15.153   5.502  12.440 -0.1178 -0.0247  0.1620
 9411W        W25220  12.802  12.266   3.021  0.0929  0.1817 -0.2190
 9412W        W25221   9.731  10.027   2.831 -0.2758  0.1709  0.1251
 9413W        W25222   9.003   3.945   4.212 -0.1007 -0.1506 -0.0113
 9414W        W25223   4.055  14.434   2.671  0.0659 -0.0762  0.2119
 9415W        W25224   8.244   5.383   0.746  0.0539  0.3266  0.0011
 9416W        W25225   9.979   6.229   4.844 -0.0721  0.3241 -0.0349
 9417W        W25226  12.364   1.330   2.501  0.4279  0.0283  0.1575
 9418W        W25227  15.302   2.904   0.114 -0.1432  0.0948 -0.0821
 9419W        W25228   6.280   6.788  10.126  0.2036 -0.1456  0.2043
 9420W        W25229   0.003  17.840   2.498 -0.0731 -0.0687 -0.1997
 9421W        W25230  12.028   1.825   4.641 -0.1820 -0.1403 -0.1932
 9422W        W25231   1.897   4.109   4.747 -0.2955  0.0799 -0.0398
 9423W        W25232  15.924  14.681   0.594 -0.0187  0.3112  0.2085
 9424W        W25233   0.062  12.323  14.411 -0.0293  0.0025 -0.0801
 9425W        W25234   1.945   1.552  15.932  0.3129  0.0108 -0.0051
 9426W        W25235  12.653  11.159   4.445 -0.2471  0.0831  0.1343
 9427W        W25236  13.827  18.161   0.931  0.0139 -0.0827  0.1142
 9428W        W25237  15.251   6.542   3.469  0.1434 -0.2960  0.1736
 9429W        W25238   3.171   7.010   5.800 -0.1694 -0.0125  0.1653
 9430W        W25239   0.042  15.301   0.576  0.2380 -0.3315  0.1386
 9431W        W25240  10.214  12.377   4.656  0.1897 -0.1881  0.0070
 9432W        W25241   7.974   2.440   1.417  0.0771 -0.2820  0.0467
 9433W        W25242  16.342   6.250   2.451 -0.3967 -0.3285  0.0920
 9434W        W25243   5.307   5.881  13.354  0.1115  0.1742 -0.2285
 9435W        W25244   4.079   1.120   5.931  0.0050  0.1278  0.1309
 9436W        W25245  10.996   8.709   4.393  0.0189 -0.1286  0.1658
 9437W        W25246  17.797  10.052   3.184  0.4225  0.0973  0.3081
 9438W        W25247  16.879  13.743  15.043  0.0300  0.0695  0.2524
 9439W        W25248   8.087   5.797  13.180 -0.1108 -0.0920  0.2116
 9440W        W25249   3.680   7.217   3.367 -0.0438  0.1110 -0.0403
 9441W        W25250  11.278  16.885  12.561  0.2672  0.1730  0.1893
 9442W        W25251  13.012   2.400   3.941  0.2201 -0.2086 -0.0958
 9443W        W25252  16.384   8.661  10.909  0.2313 -0.0027 -0.4120
 9444W        W25253  18.066   2.790  11.549 -0.1659 -0.2137 -0.1283
 9445W        W25254   4.972   4.622   5.956  0.1245 -0.1760  0.1825
 9446W        W25255   2.770  14.912  13.029 -0.0765  0.1675 -0.1395
 9447W        W25256  13.661  11.561   1.608  0.1035 -0.1681  0.2905
 9448W        W25257   6.360   3.486  14.989  0.1519  0.1727 -0.0383
 9449W        W25258   8.236  10.595   3.735 -0.1168 -0.1545 -0.0012
 9450W        W25259   3.752  17.986   0.725  0.1877 -0.1382  0.1050
 9451W        W25260  15.743   8.765   5.459  0.1214 -0.0403  0.0320
 9452W        W25261   8.743  15.139  12.805  0.0010 -0.0704 -0.0904
 9453W        W25262  17.266  13.032   3.427 -0.0595 -0.1120  0.0716
 9454W        W25263   5.302  13.682  10.196  0.0629 -0.2455  0.2124
 9455W        W25264   9.284   0.314  15.097  0.0342 -0.3372  0.3370
 9456W        W25265   6.797  17.147   4.727 -0.1157 -0.0601 -0.2670
 9457W        W25266   8.382  15.787  14.661 -0.1516  0.1278  0.0267
 9458W        W25267  12.141   6.005   1.864  0.0668  0.1484  0.0088
 9459W        W25268  17.899   3.064  13.703  0.1109 -0.2674  0.0328
 9460W        W25269   1.613  17.533   1.590 -0.3421  0.0738 -0.2796
 9461W        W25270   7.257   6.843  13.702  0.0986 -0.1150 -0.1299
 9462W        W25271   5.893  10.144  14.610  0.2286  0.1551  0.0574
 9463W        W25272   5.172  17.460  15.244 -0.0946  0.1739 -0.0376
 9464W        W25273  11.192   0.396   0.168 -0.4518 -0.2728 -0.1604
 9465W        W25274  11.783   7.186  15.559 -0.1612  0.0999  0.0948
 9466W        W25275   2.254   8.406   3.393  0.0165  0.0336 -0.0318
 9467W        W25276   8.864   7.170  15.222 -0.0612 -0.1009  0.0067
 9468W        W25277   4.265   7.518  15.108 -0.0070 -0.0592  0.0595
 9469W        W25278  11.535   6.098   0.644 -0.0924 -0.2292  0.3198
 9470W        W25279  13.634  12.989  12.256 -0.4111 -0.2995 -0.1321
 9471W        W25280  17.919   3.777   2.920 -0.0105 -0.1942  0.0033
 9472W        W25281  16.261   0.302   5.059  0.1607 -0.0243 -0.3801
 9473W        W25282   5.191   5.728  12.051 -0.2668 -0.0547  0.1038
 9474W        W25283   4.561  16.182   5.600  0.0392 -0.0146  0.1646
 9475W        W25284   5.606   2.120  13.630 -0.0499  0.1556 -0.1319
 9476W        W25285   0.560   7.179   1.872 -0.2028 -0.2111 -0.1560
 9477W        W25286   2.641  10.961   4.614 -0.0205  0.0161 -0.0871
 9478W        W25287  16.083  14.010  14.554 -0.0913  0.2282 -0.0201
 9479W        W25288   5.022  13.038  13.624 -0.1512  0.3015  0.3440
 9480W        W25289   3.718  14.208  13.530  0.1487 -0.0900  0.0063
 9481W        W25290  11.107  13.593   5.267  0.1626  0.2757 -0.0285
 9482W        W25291  15.788   5.475  11.559  0.0976  0.1965  0.0086
 9483W        W25292   5.244   6.964   1.699 -0.1738 -0.2475  0.0241
 9484W        W25293  11.235  11.374   4.804 -0.0548  0.3270  0.0095
 9485W        W25294  11.428   8.105  14.236  0.0070 -0.1656  0.0211
 9486W        W25295   6.328  10.769  13.064  0.0692  0.3491 -0.2151
 9487W        W25296   5.936   3.868  13.926 -0.0212 -0.2429  0.1423
 9488W        W25297  17.868   7.965   0.049 -0.0052  0.4001 -0.1266
 9489W        W25298   8.147  10.346   2.888 -0.0216 -0.1216 -0.2939
 9490W        W25299  10.514   5.285  14.651  0.0852 -0.1764  0.0491
 9491W        W25300   4.582  17.358   4.885 -0.0473 -0.0930 -0.1548
 9492W        W25301   6.543  16.538  11.166 -0.0140  0.0638 -0.0232
 9493W        W25302   8.288  11.666   2.128  0.2717  0.0797  0.0034
 9494W        W25303  10.842  16.916   1.239 -0.2755  0.1129  0.0688
 9495W        W25304   8.180  14.689   1.345 -0.0958  0.0630  0.1692
 9496W        W25305  11.311  12.194   2.135 -0.1415  0.1876 -0.2038
 9497W        W25306  16.786  16.356   0.343 -0.0000 -0.1471 -0.2011
 9498W        W25307  16.273  16.258   2.852  0.1049  0.0276 -0.0020
 9499W        W25308   8.379  14.805  15.411 -0.0625  0.3221  0.2518
 9500W        W25309  12.150   2.883   3.757 -0.1637  0.0856 -0.0917
 9501W        W25310  16.422   3.218  15.822  0.1648 -0.1394 -0.0592
 9502W        W25311  10.788  11.106   3.089  0.1001 -0.1262 -0.4196
 9503W        W25312   5.053  10.006  14.624 -0.2490  0.2481  0.0811
 9504W        W25313  10.709  12.359   0.955 -0.0802 -0.2503  0.0082
 9505W        W25314  14.460  12.585   3.392 -0.0785  0.1060 -0.0348
 9506W        W25315   0.268   4.432  12.010 -0.2287 -0.2551  0.0447
 9507W        W25316   5.579  17.130   2.216 -0.0979  0.1579 -0.2086
 9508W        W25317   2.220  18.185   5.932  0.0596  0.0964 -0.2167
 9509W        W25318  11.620  11.592   5.668  0.2108 -0.2837 -0.0848
 9510W        W25319   1.734  10.654   5.041 -0.1249 -0.3326 -0.1646
 9511W        W25320   3.099  17.581   1.418 -0.1815  0.1067  0.2436
 9512W        W25321   5.901  17.155   1.311 -0.0682 -0.0304 -0.1070
 9513W        W25322   7.253  17.326  12.963  0.2673 -0.0068  0.2407
 9514W        W25323   7.911   3.501   4.915  0.1331  0.0743 -0.2479
 9515W        W25324  13.444   5.045   1.039 -0.0560 -0.1985 -0.4510
 9516W        W25325   0.856  17.719  12.959 -0.1121  0.1705 -0.1368
 9517W        W25326   3.111   8.624  12.054 -0.0650 -0.1802 -0.2554
 9518W        W25327   9.763   2.830  15.199 -0.1022  0.0559 -0.0137
 9519W        W25328   8.764   0.724  13.324  0.0267 -0.1169  0.0942
 9520W        W25329  14.141   3.493  13.000 -0.0706 -0.1442  0.0377
 9521W        W25330   0.139   8.096  11.563  0.2703  0.1128 -0.1573
 9522W        W25331  11.335   2.344  15.043 -0.4239  0.1235 -0.1020
 9523W        W25332   2.250   9.622  12.600 -0.0587 -0.0208 -0.1111
 9524W        W25333   2.980   1.894  12.563 -0.1461 -0.1513  0.0797
 9525W        W25334  10.788   9.963  15.400  0.4452 -0.4117 -0.0465
 9526W        W25335   4.167  13.080   3.699 -0.1786 -0.2499 -0.0112
 9527W        W25336  12.496   3.598  15.140  0.0981 -0.0428  0.0208
 9528W        W25337   0.769  11.927  13.448 -0.0908 -0.0989 -0.0038
 9529W        W25338  15.440   8.929  16.042  0.0742  0.0216  0.4828
 9530W        W25339   4.661  16.764   0.570 -0.5727  0.0886 -0.0764
 9531W        W25340  10.051   9.994  11.145 -0.0576 -0.1532  0.2271
 9532W        W25341  10.421  14.773  13.735 -0.0728  0.0784 -0.1680
 9533W        W25342  11.394  12.497  13.121  0.0971  0.2911 -0.2486
 9534W        W25343   5.767  11.789  15.734 -0.1222 -0.1127  0.1288
 9535W        W25344   4.287   1.558  13.512 -0.1332 -0.0859  0.1881
 9536W        W25345   1.682  10.425  13.697  0.0336 -0.2581  0.1046
 9537W        W25346  16.710  12.516  13.904  0.0789  0.3110  0.3546
 9538W        W25347  13.499  11.303   1.175  0.0433 -0.0091  0.0757
 9539W        W25348   2.895  11.381  12.260  0.1085  0.0817 -0.1849
 9540W        W25349  14.235  17.623  12.500 -0.0588 -0.2906  0.0629
 9541W        W25350   5.927  10.398   4.074  0.5465 -0.1503 -0.3733
 9542W        W25351   5.230   0.785  11.729  0.1093 -0.0014 -0.0373
 9543W        W25352   5.145  10.834   3.825  0.2907 -0.0092 -0.2805
 9544W        W25353   5.930  13.196  15.929 -0.0370 -0.2140  0.2384
 9545W        W25354   3.610  17.148   2.958 -0.0772  0.0522  0.1190
 9546W        W25355   2.920   9.439  11.234 -0.1715  0.0334 -0.0238
 9547W        W25356  16.974  15.965   1.322 -0.1866  0.0035  0.1164
 9548W        W25357   9.299  13.956  14.291  0.1227  0.1402 -0.1796
 9549W        W25358   7.782   1.124  12.004 -0.1479 -0.0645 -0.0168
 9550W        W25359  15.584   7.069  15.089 -0.0277 -0.2466 -0.1717
 9551W        W25360  11.972   4.525  11.498 -0.1718  0.1464 -0.2262
 9552W        W25361   9.843   1.501  15.870  0.0022  0.3092 -0.0101
 9553W        W25362  14.829  14.558   1.753 -0.0827  0.0897 -0.1119
 9554W        W25363   2.371   4.399   5.002  0.1203  0.0547 -0.1186
 9555W        W25364  13.481   9.745   3.852  0.1096  0.1801 -0.1922
 9556W        W25365  18.073   9.760   5.180  0.3678 -0.0075 -0.1072
 9557W        W25366  15.136  13.489   4.290 -0.0025  0.3365  0.1915
 9558W        W25367  12.251   0.703  12.978  0.1448  0.1139  0.1030
 9559W        W25368  17.416   0.173   4.184  0.1141 -0.0882  0.0229
 9560W        W25369  15.172   5.238   1.888  0.0959  0.1238 -0.1492
 9561W        W25370   8.048  12.047  15.493 -0.0350  0.1391 -0.2548
 9562W        W25371   6.290   1.756  12.959  0.0931  0.0641 -0.3322
 9563W        W25372  14.386  10.741  14.205  0.1305 -0.1349  0.0956
 9564W        W25373   8.190  16.556   5.485 -0.2908  0.1200 -0.1041
 9565W        W25374   9.744   8.684  14.093 -0.0256 -0.0634  0.3492
 9566W        W25375  10.171   9.508  15.219  0.0988 -0.3936  0.3654
 9567W        W25376   9.796  15.091  11.316  0.3614 -0.0748 -0.0248
 9568W        W25377  12.277  17.240   2.929  0.0168  0.1568  0.2046
 9569W        W25378  12.717  17.881  15.519  0.1816  0.0187  0.4362
 9570W        W25379  18.098   0.974   5.127 -0.0906 -0.4727  0.2997
 9571W        W25380   7.567   5.540   5.004 -0.0720  0.2329 -0.0082
 9572W        W25381  17.546  14.524  14.753 -0.2512  0.1042 -0.0624
 9573W        W25382  15.411  11.724   3.946  0.3222  0.2973  0.0562
 9574W        W25383   0.328  16.369  12.578  0.0412  0.0660 -0.1454
 9575W        W25384   7.936  11.088  14.067 -0.1018  0.2207 -0.0954
 9576W        W25385  16.869  11.296   2.092  0.0482  0.6060  0.1069
 9577W        W25386  11.541   9.735   4.416 -0.0033 -0.2087 -0.2757
 9578W        W25387   4.255  16.127  11.036 -0.2409  0.1588 -0.0492
 9579W        W25388   3.793  17.041  15.059  0.1913  0.1287  0.2108
 9580W        W25389   2.604   9.863  11.022  0.0985  0.2333 -0.0553
 9581W        W25390   4.101  18.039  12.782 -0.1443  0.1282  0.2850
 9582W        W25391   8.023   5.443  10.785  0.0005 -0.3302 -0.2876
 9583W        W25392   5.351   4.440  12.702 -0.1480 -0.3021 -0.2367
 9584W        W25393   4.871  10.955   4.730 -0.3102  0.2679  0.0580
 9585W        W25394  15.983  17.866   0.441 -0.2650 -0.0629  0.1341
 9586W        W25395   9.665   0.265  12.843  0.1911 -0.1155  0.1518
 9587W        W25396  16.304   7.048   1.495  0.1937  0.2236 -0.2687
 9588W        W25397   9.023  16.557   3.517  0.0760 -0.2270 -0.0972
 9589W        W25398  14.986  15.633   0.327  0.1114  0.3484 -0.2050
 9590W        W25399   2.024   0.023  13.951  0.0090 -0.1153  0.1491
 9591W        W25400   1.447  13.541  13.235  0.2558 -0.0005  0.3213
 9592W        W25401   6.145   6.552   4.104 -0.4061 -0.1166 -0.1821
 9593W        W25402   0.453  15.715  14.097 -0.3096  0.0396  0.2170
 9594W        W25403  10.236   2.348   2.268  0.2292  0.1624 -0.1433
 9595W        W25404  17.892   6.500  15.643  0.1340  0.0338  0.1993
 9596W        W25405   5.714   3.678   0.174 -0.1686  0.0240  0.3059
 9597W        W25406  10.045  11.971  12.466 -0.1061 -0.1217  0.1772
 9598W        W25407  11.961  11.906   6.040  0.2816  0.1476 -0.1019
 9599W        W25408   0.396  11.134   1.565 -0.2494  0.0606 -0.1228
 9600W        W25409   4.211   2.150  15.245  0.3163  0.0745 -0.3143
 9601W        W25410   0.556   4.044  11.810 -0.0322  0.2964 -0.0736
 9602W        W25411   2.860   7.448  14.840 -0.1187  0.1920 -0.0543
 9603W        W25412  16.233  15.475  14.145  0.1075 -0.2704 -0.0490
 9604W        W25413   6.416   7.056   2.954  0.0453 -0.1370 -0.1221
 9605W        W25414   3.339  15.998  12.089  0.0583  0.0504 -0.1728
 9606W        W25415   3.028   2.358  12.443 -0.0623 -0.1002  0.0190
 9607W        W25416  17.001   2.122  11.723  0.0528  0.2748 -0.1886
 9608W        W25417   3.526   2.547  14.036 -0.0946  0.2695  0.2378
 9609W        W25418  16.483   7.305  13.123  0.4363  0.1704 -0.2151
 9610W        W25419   8.548  11.736   3.382 -0.0396  0.0146  0.1819
 9611W        W25420   7.021  11.472   6.136  0.0715  0.0640  0.0233
 9612W        W25421   0.221   9.231   1.889 -0.0105 -0.2660 -0.0514
 9613W        W25422  16.896   2.833   5.157  0.2819  0.0472  0.1650
 9614W        W25423   1.649  11.453   4.224  0.1825 -0.2973 -0.1105
 9615W        W25424  17.939  16.683  10.854  0.0906  0.0294 -0.2275
 9616W        W25425   1.537  10.142   4.797  0.2278  0.0063  0.0142
 9617W        W25426  12.299  10.941   2.825  0.0748 -0.0025 -0.1586
 9618W        W25427  12.679   0.011   1.809  0.2244 -0.0468  0.1077
 9619W        W25428  15.445  17.613  12.475 -0.1528  0.1887 -0.2307
 9620W        W25429   9.277   1.240   4.602 -0.2208 -0.0775  0.4308
 9621W        W25430  10.428   0.805   1.369 -0.0774  0.1256  0.2113
 9622W        W25431   8.145   2.669  11.517 -0.2799 -0.0957 -0.2620
 9623W        W25432  16.150   3.161  11.397 -0.2755  0.2442  0.0596
 9624W        W25433  16.144  14.795   0.172  0.1491 -0.3557 -0.0530
 9625W        W25434   8.763  14.839   2.334 -0.1612  0.0205  0.4878
 9626W        W25435  15.709   9.332   4.017  0.1899 -0.1029  0.0010
 9627W        W25436  17.861   0.735  11.948 -0.1876 -0.1788  0.1231
 9628W        W25437   6.526  11.216   1.826  0.2318 -0.2357  0.0031
 9629W        W25438   7.751  11.905   0.196  0.0766 -0.1744 -0.2300
 9630W        W25439  12.773   3.722   2.596  0.0833 -0.1075  0.1036
 9631W        W25440   3.252   1.294  10.956  0.0458  0.1169 -0.0968
 9632W        W25441   4.850   9.269  12.854  0.0522  0.0312 -0.3036
 9633W        W25442   2.084  11.092   4.238 -0.0276  0.0087 -0.2143
 9634W        W25443  14.841   2.543  15.849 -0.0310 -0.0022  0.0848
 9635W        W25444  11.647   3.810  15.150  0.2786 -0.1093 -0.0143
 9636W        W25445  10.816   2.419   2.835  0.1429 -0.3692  0.1221
 9637W        W25446   8.196  10.380  11.353  0.2998  0.1206 -0.0352
 9638W        W25447   1.485  16.536   0.297 -0.1900  0.0865  0.2193
 9639W        W25448   8.650  13.033   2.520  0.3246 -0.1614 -0.0657
 9640W        W25449   0.223  15.099   1.092 -0.0371 -0.0028 -0.0218
 9641W        W25450  15.103   0.584  15.242 -0.0425  0.2537  0.2551
 9642W        W25451   5.927  15.894  12.071 -0.1838 -0.1086  0.2939
 9643W        W25452   4.677  11.538  10.998  0.1721  0.0740  0.0619
 9644W        W25453   2.876  10.126   5.478  0.0482 -0.2460  0.0505
 9645W        W25454   3.517  17.477   0.700  0.2581  0.0484  0.2945
 9646W        W25455  12.883   2.434   2.257 -0.1693 -0.0359 -0.0305
 9647W        W25456  10.494  13.452   5.897  0.3242 -0.1623 -0.1475
 9648W        W25457   8.054  16.312   4.842 -0.2236 -0.2076  0.2441
 9649W        W25458  14.325  16.536   1.180 -0.2915  0.1894  0.1530
 9650W        W25459   1.367   2.199  14.397  0.1272  0.0547 -0.1427
 9651W        W25460   0.220   2.387  13.448 -0.0400  0.1261 -0.2928
 9652W        W25461  12.311   5.409   3.319 -0.2923 -0.2466  0.0402
 9653W        W25462  11.336  12.038   5.506  0.0295 -0.0620 -0.0703
 9654W        W25463   4.814   0.350  13.951 -0.1363 -0.1893 -0.0935
 9655W        W25464   9.020   0.315  15.509  0.0929 -0.0618 -0.1817
 9656W        W25465  10.374   0.359   1.122 -0.1644  0.0186 -0.2180
 9657W        W25466  17.013  11.555  15.210  0.3297 -0.0213 -0.4058
 9658W        W25467  10.427   9.163   1.933  0.1755 -0.0356 -0.2643
 9659W        W25468   6.648  15.984  12.522 -0.2527 -0.1476 -0.1975
 9660W        W25469   6.569   5.422  15.067 -0.4897  0.1371  0.2284
 9661W        W25470   8.464   9.384  14.615 -0.1843 -0.0469  0.0041
 9662W        W25471   3.051   4.903   0.139  0.0330  0.0813 -0.0203
 9663W        W25472  13.638   5.454   3.833 -0.1507  0.0270 -0.2827
 9664W        W25473   3.820  10.896  15.755 -0.0931  0.0529 -0.0052
 9665W        W25474  13.847  16.455   5.225 -0.1319 -0.1693  0.2623
 9666W        W25475   2.116  11.524  15.751 -0.1844  0.0692  0.2406
 9667W        W25476   0.469   0.093   3.070 -0.2020 -0.1504  0.2970
 9668W        W25477   2.291   7.582   0.181  0.1249 -0.0022  0.2408
 9669W        W25478   9.908  11.944   3.514  0.0113 -0.1181  0.1640
 9670W        W25479   1.054  13.982   1.416 -0.3108  0.2881 -0.2608
 9671W        W25480   8.057   9.153   4.533 -0.1165  0.1893  0.1453
 9672W        W25481   1.125   9.953  10.450  0.0296 -0.0631 -0.1973
 9673W        W25482   9.279   8.788   1.986 -0.0914  0.0329 -0.0498
 9674W        W25483  10.735   9.271   1.592  0.1332 -0.0790  0.0704
 9675W        W25484   3.230   9.245   4.399  0.0318  0.1302  0.1342
 9676W        W25485  12.430   3.655   1.030 -0.1064 -0.1451 -0.1660
 9677W        W25486  12.814  11.798  11.603  0.0343 -0.1285 -0.1166
 9678W        W25487   8.420   3.920  11.024 -0.1778 -0.0852 -0.0254
 9679W        W25488  15.799   5.792  15.211  0.2920 -0.1736  0.1075
 9680W        W25489   5.098   8.309  13.680  0.2237  0.0285  0.2657
 9681W        W25490   3.173   6.837  10.987  0.0013 -0.1393  0.2257
 9682W        W25491  12.046  12.741   1.243  0.0800  0.3507  0.1486
 9683W        W25492  13.435  12.022   1.811  0.0318 -0.3085 -0.0444
 9684W        W25493  17.531   5.150   0.157 -0.0500  0.0918 -0.1833
 9685W        W25494   0.009  17.238   0.920 -0.0610 -0.0252  0.4656
 9686W        W25495  11.244  15.033  13.989 -0.1904 -0.4791  0.1396
 9687W        W25496  12.200   2.732  13.460  0.0097 -0.1153 -0.3925
 9688W        W25497   5.979   2.659  14.846 -0.2964  0.1565  0.1076
 9689W        W25498  11.755   1.913  13.371 -0.0355  0.0677 -0.0714
 9690W        W25499  13.004  14.802  12.030  0.1403 -0.0429  0.0537
 9691W        W25500   9.042   3.031  12.569 -0.1975  0.0414 -0.1414
 9692W        W25501  13.505   1.694  12.211 -0.0058 -0.0391 -0.1724
 9693W        W25502  11.059   4.127   1.848 -0.1538 -0.1062 -0.2715
 9694W        W25503   5.613  11.005   0.259  0.0086 -0.1684  0.3576
 9695W        W25504  10.236   2.133   4.734 -0.0381 -0.1798 -0.2415
 9696W        W25505   9.759  15.811   2.013  0.0385  0.0648  0.0045
 9697W        W25506   9.711  14.862   5.522 -0.0763 -0.0353 -0.0169
 9698W        W25507   4.664  14.986  13.277  0.1006  0.0112 -0.2238
 9699W        W25508  15.665   2.170   0.378  0.2083  0.1270  0.0516
 9700W        W25509  15.116  16.294  14.468  0.1264  0.0965 -0.2185
 9701W        W25510   2.043  16.199  13.185  0.3346 -0.0978 -0.2538
 9702W        W25511   3.484   2.731   5.026 -0.0257  0.0899  0.0632
 9703W        W25512   9.713  12.071  11.906  0.1961  0.0883  0.0951
 9704W        W25513  10.175  14.866  15.387 -0.2051 -0.2709 -0.0074
 9705W        W25514  14.158   4.118  14.405 -0.2141  0.0588 -0.0156
 9706W        W25515   3.546  10.258   2.605  0.2740 -0.1626 -0.0232
 9707W        W25516   6.063   0.856  13.230 -0.0944 -0.1801 -0.0656
 9708W        W25517   3.406  18.186   2.895  0.0788 -0.0204  0.0844
 9709W        W25518   8.301   7.559  14.200 -0.2322 -0.0614 -0.1626
 9710W        W25519   7.752  10.646  11.206  0.0736 -0.0179  0.0904
 9711W        W25520   9.242  15.630  14.799 -0.0585  0.0744 -0.1948
 9712W        W25521  14.222   9.482  12.765 -0.2481 -0.0753 -0.0129
 9713W        W25522   8.008   9.221  11.303 -0.2135  0.2504  0.0432
 9714W        W25523  16.563  16.247   5.995  0.2753 -0.0598 -0.0379
 9715W        W25524  14.378   1.041  14.945  0.2765  0.2688 -0.2223
 9716W        W25525   9.754  10.013   4.634 -0.5732 -0.2047 -0.1074
 9717W        W25526  12.039  12.310   1.582  0.1697 -0.2534  0.0343
 9718W        W25527  13.737  11.195  12.988  0.1325 -0.0291 -0.1049
 9719W        W25528   3.772   2.252  12.034  0.2146 -0.0376 -0.0617
 9720W        W25529   3.622   5.891  13.191 -0.0311  0.3070 -0.1772
 9721W        W25530  10.885  10.188  14.181 -0.0771 -0.0318  0.0065
 9722W        W25531   6.781  15.234   3.823 -0.1455 -0.3591  0.4795
 9723W        W25532   2.519   2.877  13.362  0.1164 -0.1337 -0.2134
 9724W        W25533   4.972   8.546  11.457  0.0582 -0.0179  0.2730
 9725W        W25534   7.590   4.304  12.243 -0.1795 -0.2315 -0.2942
 9726W        W25535   9.607   7.188   4.872  0.3507  0.0317  0.1334
 9727W        W25536   9.670   6.238  13.091  0.0302 -0.2417 -0.3352
 9728W        W25537   8.210   7.905   2.522  0.0303 -0.2127  0.1031
 9729W        W25538  16.962  11.179   4.977  0.0940 -0.0150  0.0175
 9730W        W25539   5.311   9.303  13.083  0.2924  0.3900  0.2031
 9731W        W25540   1.641   6.901  11.764 -0.0439  0.0998  0.2147
 9732W        W25541  14.402  16.322   5.274  0.2020  0.0250  0.1823
 9733W        W25542  14.125   8.083  12.936 -0.3100  0.1060 -0.1205
 9734W        W25543  17.653  17.727  14.944  0.1007  0.1183 -0.2609
 9735W        W25544   2.712   3.192   3.444 -0.0541  0.0353 -0.0803
 9736W        W25545  14.410   3.281  11.584 -0.1515 -0.3666  0.1073
 9737W        W25546  15.972   7.968   2.590  0.0622 -0.1870  0.1596
 9738W        W25547   1.641   1.046  10.097  0.0886  0.1567  0.0721
 9739W        W25548   9.070   1.141   0.842  0.1195  0.1327 -0.0173
 9740W        W25549   6.453  10.371   0.659 -0.0113 -0.0365 -0.1069
 9741W        W25550   5.274   0.245   5.961  0.3149  0.0281  0.3356
 9742W        W25551   8.829  11.248  13.771 -0.3950  0.1524  0.4271
 9743W        W25552  17.829   4.616   1.380  0.1945  0.1585 -0.1309
 9744W        W25553   7.513  13.335   1.570  0.0265  0.1277 -0.1678
 9745W        W25554   4.910   5.888  10.702  0.1041 -0.0846  0.1732
 9746W        W25555   9.826   4.371  14.883 -0.1830 -0.2021  0.1920
 9747W        W25556   0.774  14.801   1.678  0.1068  0.0098  0.1056
 9748W        W25557  11.164   2.029   4.483  0.0416  0.1423 -0.1641
 9749W        W25558   1.510   3.254  12.320  0.5031  0.0171  0.2875
 9750W        W25559  13.587  14.759   4.158 -0.1800 -0.1410  0.3127
 9751W        W25560   9.290   8.775   0.596  0.2938  0.1718 -0.1415
 9752W        W25561   0.982   9.797  13.838  0.1462 -0.2709 -0.0908
 9753W        W25562   1.039  11.748   0.545 -0.0699 -0.0833 -0.1239
 9754W        W25563   1.582   8.141   2.788  0.1351 -0.0729 -0.1257
 9755W        W25564  16.935  13.215  11.603 -0.0396  0.1345 -0.1204
 9756W        W25565   0.197   6.662  11.878  0.0765  0.0912 -0.1858
 9757W        W25566  18.249  16.892  14.984  0.1014  0.0921 -0.1896
 9758W        W25567  12.054  10.347  15.356 -0.0326  0.1362 -0.2621
 9759W        W25568   7.607  12.290   5.440  0.1452 -0.2981 -0.1974
 9760W        W25569   5.444   9.699  11.162  0.1313 -0.0130  0.1845
 9761W        W25570  18.229  12.114  14.954  0.3061  0.2223  0.2387
 9762W        W25571   8.712   6.390  14.078  0.0407  0.0506  0.2040
 9763W        W25572   1.915   5.544   4.399  0.4041 -0.0891  0.0964
 9764W        W25573   6.716   9.785  11.119 -0.0176 -0.5226  0.0623
 9765W        W25574   1.582  16.518  13.931 -0.4172  0.1979  0.0207
 9766W        W25575   5.416  14.463  15.909 -0.0491  0.2151 -0.0552
 9767W        W25576   6.150  13.044  11.649  0.0525  0.3434  0.0911
 9768W        W25577   4.281   8.925   0.840 -0.2665  0.3698  0.1006
 9769W        W25578   6.885  14.631   0.621  0.0074  0.0781  0.3678
 9770W        W25579  17.886   1.213   0.610  0.1376 -0.0154  0.1668
 9771W        W25580  17.207   0.008   4.654  0.2544  0.1452 -0.0117
 9772W        W25581   5.321   5.913   4.704  0.0081 -0.0236  0.0080
 9773W        W25582  17.997  15.892   1.528 -0.1718  0.2233  0.1272
 9774W        W25583   6.698   1.298   5.371  0.0216 -0.1820  0.0268
 9775W        W25584  14.162   3.054  12.041 -0.1931  0.2383  0.1163
 9776W        W25585   5.703   0.311   0.842  0.0544  0.1730  0.0349
 9777W        W25586   5.890  15.845   0.147 -0.3487  0.2265 -0.1493
 9778W        W25587   1.366  18.102  13.491  0.2918 -0.0626 -0.0260
 9779W        W25588   0.291   2.862   4.731 -0.0030 -0.1606 -0.2574
 9780W        W25589  14.089   9.280   5.014 -0.0292 -0.0911  0.0473
 9781W        W25590   5.938  15.880   0.813 -0.1332 -0.0737  0.3564
 9782W        W25591  13.452  15.174  11.200  0.1191  0.3811  0.2680
 9783W        W25592  11.404  15.724  12.028 -0.1052 -0.0437 -0.1462
 9784W        W25593  14.212   7.543  12.750 -0.0268 -0.0904  0.3219
 9785W        W25594   2.793   9.856  11.587 -0.0093  0.3480 -0.0383
 9786W        W25595  14.561   6.446   5.327 -0.4089  0.1288  0.2073
 9787W        W25596   8.184   7.352   2.926 -0.1532 -0.0379  0.1436
 9788W        W25597   4.532  15.440  15.947 -0.0404  0.1256 -0.0832
 9789W        W25598   5.424   3.213  14.532 -0.1607  0.1992 -0.2693
 9790W        W25599  15.284  16.977   3.383 -0.0145  0.2383  0.0287
 9791W        W25600  12.189  17.528   0.094 -0.1876 -0.0111 -0.2636
 9792W        W25601   0.711  16.707   1.099  0.0960  0.1585 -0.0314
 9793W        W25602   6.079  13.783   2.549 -0.2069 -0.2899  0.2215
 9794W        W25603   5.248   2.358  15.581  0.3508  0.2362 -0.3547
 9795W        W25604   2.152   0.247   2.530  0.2060 -0.1763 -0.1891
 9796W        W25605   4.082  13.886   2.706  0.4465  0.1454  0.2003
 9797W        W25606   9.491   1.055   3.500 -0.0134  0.1836  0.0091
 9798W        W25607   2.013   3.746  10.906 -0.2220 -0.1330  0.0400
 9799W        W25608  14.160  17.790   2.228  0.4277  0.1606  0.0911
 9800W        W25609  13.195   2.762   5.153 -0.1127  0.3180 -0.1007
 9801W        W25610  13.124  14.129   0.021  0.1521 -0.0229  0.1061
 9802W        W25611  10.224  14.270  11.426 -0.0736  0.1156 -0.0754
 9803W        W25612   2.743  16.773   1.738 -0.3872 -0.1644  0.0006
 9804W        W25613  11.319  15.472  13.028  0.2899  0.0278 -0.1374
 9805W        W25614  11.528  12.904  10.986 -0.2186 -0.0219 -0.2440
 9806W        W25615   3.108   4.895  12.654 -0.1863 -0.0832  0.1081
 9807W        W25616  14.476   6.163   0.701 -0.1420  0.1669 -0.1969
 9808W        W25617   8.504  16.958   0.638  0.0082  0.0697 -0.3763
 9809W        W25618   1.019  10.523   4.483 -0.2747 -0.1257 -0.1609
 9810W        W25619  12.683   0.735  12.158  0.1212  0.1391 -0.0568
 9811W        W25620  14.584   9.784  12.958 -0.0702 -0.1427  0.1056
 9812W        W25621   3.499   1.423  12.937 -0.1757  0.1809 -0.2201
 9813W        W25622  15.593  11.885  12.161  0.0413 -0.1324 -0.0611
 9814W        W25623  16.443  15.499  13.330  0.0142  0.3296  0.0834
 9815W        W25624   8.429  15.840  11.258  0.2360  0.0916  0.0980
 9816W        W25625   9.571   3.424   5.356  0.1463 -0.1011  0.0874
 9817W        W25626  15.988   6.500   2.063 -0.1471  0.1105  0.1258
 9818W        W25627  11.990  17.819  13.705  0.2098  0.0786 -0.1755
 9819W        W25628  13.758   8.463  13.863 -0.3172 -0.1052 -0.1054
 9820W        W25629  17.203  15.804   5.362  0.4734  0.1591 -0.0706
 9821W        W25630  10.125  14.978   0.674 -0.2590  0.0704 -0.3721
 9822W        W25631  16.680   4.762  11.126 -0.1273 -0.2427  0.2295
 9823W        W25632  18.125   9.721  13.211 -0.2267 -0.4399 -0.0508
 9824W        W25633   9.164  16.429  12.353 -0.3024  0.0681 -0.0480
 9825W        W25634   0.926  15.536  12.607  0.4217 -0.0675 -0.0740
 9826W        W25635   0.395   7.777   2.642  0.1486  0.0280  0.0262
 9827W        W25636  12.410  16.761   2.674  0.2004 -0.1589 -0.1063
 9828W        W25637  12.810   5.582   5.652 -0.0413 -0.0320 -0.1098
 9829W        W25638  13.674  12.010   2.825 -0.3549 -0.0488 -0.3455
 9830W        W25639   7.938   0.599  15.447 -0.1995 -0.0888 -0.0170
 9831W        W25640   1.618  14.499   2.624 -0.0314  0.0021 -0.2427
 9832W        W25641  14.398  12.661   5.039 -0.1794 -0.0480 -0.2316
 9833W        W25642   8.868   1.369   4.909  0.4212  0.2640 -0.1773
 9834W        W25643  14.978   9.711   4.677  0.0415 -0.1968  0.4442
 9835W        W25644   2.190   6.798   1.457  0.0196 -0.2460 -0.0804
 9836W        W25645   3.957  13.844  15.449 -0.1191 -0.1460 -0.0437
 9837W        W25646  12.189   2.634   0.401 -0.1047 -0.4480  0.1902
 9838W        W25647  14.288   9.622   2.128  0.2396 -0.0727 -0.2954
 9839W        W25648  10.039  17.810  13.595  0.1999 -0.2142 -0.0866
 9840W        W25649   1.797  16.928   0.247  0.4073  0.0836  0.2908
 9841W        W25650   8.140   6.457  13.053  0.3710 -0.1890 -0.0307
 9842W        W25651   1.773  10.179   5.225 -0.2783 -0.0989  0.2009
 9843W        W25652  10.149   8.669  12.176 -0.0563  0.0597  0.2147
 9844W        W25653  10.377  15.742   4.876 -0.4243 -0.1496 -0.2934
 9845W        W25654   7.538   9.567  12.129  0.0641  0.1828 -0.2994
 9846W        W25655   9.417  15.256   2.855  0.0489  0.2423 -0.0227
 9847W        W25656  14.406   3.655  14.488  0.2779  0.1341  0.2007
 9848W        W25657   4.684   7.533  14.803  0.3377  0.0331  0.0922
 9849W        W25658  12.359   0.845   2.800  0.1547  0.0386  0.1491
 9850W        W25659  12.223   5.737   0.554  0.2222  0.0723  0.0360
 9851W        W25660   8.789   5.543   3.968  0.1280 -0.2518 -0.1820
 9852W        W25661   3.207   9.886  12.299  0.0396 -0.0734 -0.3715
 9853W        W25662   5.792  18.053  13.955  0.0501 -0.0428  0.2146
 9854W        W25663  12.866   3.653  11.055 -0.2728 -0.2795 -0.1261
 9855W        W25664   3.210  17.326   3.143  0.0413  0.2912  0.0386
 9856W        W25665   8.487  12.862  11.696 -0.1101 -0.0428  0.0552
 9857W        W25666  12.968   3.728  14.359 -0.0304 -0.0767 -0.0264
 9858W        W25667   1.580  10.972   4.127  0.1333 -0.0330 -0.0733
 9859W        W25668  16.227   7.052   9.914 -0.2038 -0.0717 -0.0628
 9860W        W25669  16.916  13.971   3.060  0.2369 -0.1017 -0.2896
 9861W        W25670  17.531   1.646   3.020 -0.0459  0.3520  0.0463
 9862W        W25671  10.040  10.415   1.336 -0.2926 -0.0257  0.0295
 9863W        W25672  14.473   9.897   1.558 -0.1221  0.1598  0.1834
 9864W        W25673   3.881  17.087   1.253  0.1995  0.0141 -0.2906
 9865W        W25674  14.808  15.905   5.328 -0.0542 -0.1094  0.0132
 9866W        W25675   6.974  13.401   2.883 -0.0851 -0.0311  0.0994
 9867W        W25676   2.861   1.604   5.235 -0.0254  0.0026  0.0740
 9868W        W25677  11.607  16.523   1.649 -0.0550 -0.1723  0.1415
 9869W        W25678   9.849  10.555   4.534  0.0157 -0.1074  0.0559
 9870W        W25679  14.155  16.869   5.039 -0.0321 -0.1498  0.3043
 9871W        W25680  13.409   0.243   3.882  0.1115 -0.1576 -0.1922
 9872W        W25681  11.512   5.682  14.028  0.0803  0.5449  0.1392
 9873W        W25682   3.815   1.402  15.267  0.0681 -0.0050 -0.0503
 9874W        W25683   7.200   5.745   3.727  0.1524 -0.1119  0.0280
 9875W        W25684   1.361   8.385   4.888  0.1901 -0.0738  0.0309
 9876W        W25685  14.185  14.528   3.068  0.1019 -0.2306  0.2485
 9877W        W25686   8.946  13.235  15.170  0.1701  0.1465 -0.0179
 9878W        W25687   4.598   6.997  12.056 -0.1296 -0.0495  0.0048
 9879W        W25688  17.442   6.087  14.002  0.0403  0.1782  0.0395
 9880W        W25689   4.099  15.863  14.165 -0.0459 -0.4325  0.1861
 9881W        W25690   1.662  13.370  11.054 -0.0217 -0.3506  0.0197
 9882W        W25691   5.544  13.853   2.237 -0.2946 -0.1368 -0.1153
 9883W        W25692  14.688  14.891  16.061  0.1911  0.2126  0.0765
 9884W        W25693   3.981   7.316  13.560 -0.1143  0.2620 -0.0131
 9885W        W25694  13.475   9.509   0.892  0.0438  0.2946  0.1370
 9886W        W25695   7.383   2.906  12.359  0.0052 -0.1510  0.1697
 9887W        W25696   8.200  11.751  14.806 -0.1493 -0.0355 -0.0953
 9888W        W25697  15.921   6.406  13.767  0.2645  0.0449  0.4542
 9889W        W25698  17.096   8.528  13.065 -0.0572  0.0847 -0.1514
 9890W        W25699   8.927   0.212  10.792 -0.1890  0.0800  0.2639
 9891W        W25700  17.016   1.709   0.645  0.0962 -0.2933  0.0554
 9892W        W25701   2.244   6.534   1.032  0.0412 -0.1014 -0.0255
 9893W        W25702  14.715  17.786   5.716  0.0064 -0.2312  0.0250
 9894W        W25703   8.954   7.000   2.486 -0.3489 -0.0217 -0.1185
 9895W        W25704  10.231   4.906   4.767  0.1879  0.6716 -0.0088
 9896W        W25705  10.456   6.830   2.117  0.3707  0.1144  0.0657
 9897W        W25706  16.070  11.581  15.468 -0.0519  0.2433 -0.0045
 9898W        W25707  15.041   6.679   1.738  0.0630  0.1494  0.1505
 9899W        W25708  13.396   4.639  12.284  0.0889 -0.4981  0.1381
 9900W        W25709  12.751   8.002  11.096 -0.0585  0.0614  0.0230
 9901W        W25710  12.942   4.851  12.240 -0.0735  0.2392  0.0012
 9902W        W25711  16.630  16.358   2.426  0.0533 -0.0532 -0.1996
 9903W        W25712  14.425   4.888   2.379 -0.2807 -0.0217 -0.0998
 9904W        W25713   0.953   0.093   0.171 -0.0599 -0.1882 -0.0455
 9905W        W25714   0.273  13.745   0.983 -0.0285 -0.0270  0.0612
 9906W        W25715   3.927   1.831   0.004  0.4379  0.2514 -0.2705
 9907W        W25716  12.003   9.866   5.453  0.2112  0.3894  0.1193
 9908W        W25717   2.020   6.711   4.475 -0.2969  0.0273  0.2131
 9909W        W25718  17.524   2.068  15.028 -0.1626 -0.4338  0.1867
 9910W        W25719   4.169  10.232  13.036  0.0519  0.1639  0.0799
 9911W        W25720   0.834  14.472   2.065  0.1103 -0.0031 -0.3939
 9912W        W25721   7.374   6.769   4.663  0.0996 -0.4410  0.0917
 9913W        W25722  12.617  16.634   0.935 -0.0284 -0.0716 -0.0596
 9914W        W25723   4.027  17.362   3.873 -0.0013 -0.0103 -0.0302
 9915W        W25724   7.166   9.811   0.626 -0.1073  0.0376 -0.0985
 9916W        W25725  11.055  12.714  12.820  0.0034 -0.2374 -0.0501
 9917W        W25726  17.239  15.728   6.202  0.1096 -0.0278  0.0590
 9918W        W25727  15.274   0.920   4.954  0.1873  0.1546  0.0839
 9919W        W25728   3.054   3.435  13.781 -0.2164 -0.1448  0.0204
 9920W        W25729  15.769  16.860  16.030  0.2929  0.1308  0.1327
 9921W        W25730   1.888  14.372   3.017  0.1294  0.1164 -0.0529
 9922W        W25731  15.821  10.144   2.236 -0.0314  0.0988 -0.2837
 9923W        W25732   3.031  16.483   0.182  0.0687 -0.1516  0.1674
 9924W        W25733  14.239  14.988   1.850  0.0547 -0.0582 -0.1511
 9925W        W25734   9.536  16.186   0.604 -0.2565 -0.2951  0.0177
 9926W        W25735   6.655   5.129  14.681 -0.1071 -0.2331 -0.2208
 9927W        W25736  17.003  11.087  15.498 -0.1076  0.0483 -0.0801
 9928W        W25737   3.993   4.060   2.017  0.3425  0.0727 -0.1876
 9929W        W25738  12.621   2.235  12.786 -0.2658 -0.0813  0.0267
 9930W        W25739  12.689  13.405   3.705 -0.0543  0.0971 -0.3722
 9931W        W25740   8.326   2.275   1.095  0.1443  0.0965  0.0638
 9932W        W25741   1.971   6.196   1.297 -0.0090  0.2581 -0.0716
 9933W        W25742   5.414  12.693   4.234  0.1444  0.0028  0.2056
 9934W        W25743   6.429   9.660  12.580 -0.4322  0.1849 -0.1691
 9935W        W25744  14.708   7.680   4.130  0.0871 -0.0782  0.2839
 9936W        W25745  12.138  16.332  11.070 -0.0040 -0.1227 -0.0635
 9937W        W25746   0.118  10.848   2.306  0.1106 -0.1353  0.0752
 9938W        W25747  15.105  14.159   1.489 -0.4234  0.2631 -0.2021
 9939W        W25748   8.874   9.086   9.744 -0.0780  0.3081 -0.2652
 9940W        W25749  12.755  13.983   3.465  0.2543  0.0343 -0.1613
 9941W        W25750  10.735   2.402   5.583 -0.0990 -0.1789  0.2175
 9942W        W25751   2.843  10.142  13.611 -0.2197 -0.2123 -0.0348
 9943W        W25752   2.152   0.024   1.546  0.0548  0.1577 -0.1037
 9944W        W25753  10.988  15.169   0.106 -0.2547 -0.0311  0.0079
 9945W        W25754  13.941   3.938   5.185 -0.3197  0.0901 -0.0557
 9946W        W25755  17.018   0.682   3.552 -0.2555  0.2137  0.0878
 9947W        W25756   0.995   2.661  15.296  0.1546 -0.1634  0.0677
 9948W        W25757   1.621  14.948  13.822 -0.0213 -0.0498  0.0685
 9949W        W25758   1.210  11.903  10.412 -0.2076 -0.1281 -0.5476
 9950W        W25759   7.792   9.171  12.337  0.3841  0.1108 -0.0799
 9951W        W25760  14.710  11.179  13.838  0.0742 -0.1598 -0.0181
 9952W        W25761  11.090   7.757   4.460 -0.2062 -0.0680  0.2688
 9953W        W25762   9.925   8.828   2.556 -0.0143  0.1055  0.0910
 9954W        W25763  15.395  12.190  10.926 -0.3373 -0.0057 -0.0334
 9955W        W25764   7.503   9.873  13.411 -0.1642 -0.1361  0.0222
 9956W        W25765  12.042  11.770   1.598  0.1565 -0.0069 -0.2303
 9957W        W25766  10.741  14.996  12.398  0.0850 -0.3437 -0.2385
 9958W        W25767   7.737  10.403   1.385 -0.0739 -0.0947  0.3073
 9959W        W25768  13.436  10.846   4.512  0.1838  0.2458 -0.3213
 9960W        W25769  13.939   9.542   1.101  0.0091 -0.0804  0.1356
 9961W        W25770   5.532   1.451  15.411  0.1582  0.1103 -0.0014
 9962W        W25771  15.816  10.400  15.779  0.1827 -0.1967 -0.1103
 9963W        W25772   6.134   0.890   4.646 -0.1784 -0.0846  0.1700
 9964W        W25773   4.992   8.628  10.510  0.1339 -0.0602 -0.1638
 9965W        W25774  11.459   5.980  11.591  0.1947  0.3190 -0.1914
 9966W        W25775  11.077  16.846  13.027  0.2543  0.1354 -0.2512
 9967W        W25776   0.405  13.010  14.796  0.0979 -0.0948 -0.0216
 9968W        W25777   9.082  17.183  12.006 -0.1323  0.1494 -0.0624
 9969W        W25778   1.229   6.562   4.513  0.0863 -0.2866 -0.2805
 9970W        W25779  13.338   7.642   4.903  0.0051 -0.0219 -0.0444
 9971W        W25780  11.508   2.591   4.320 -0.0548 -0.0590 -0.4808
 9972W        W25781   7.944   2.391   0.808  0.3858  0.1190  0.0288
 9973W        W25782   8.006   0.894   4.811 -0.1152 -0.0610 -0.1145
 9974W        W25783  13.205  13.624  14.677 -0.4296 -0.4054 -0.1236
 9975W        W25784  13.268   0.842   1.848  0.1084 -0.2678 -0.1753
 9976W        W25785   5.900   1.098   5.116 -0.2823  0.0967  0.0548
 9977W        W25786   4.266  15.087   2.280  0.0591  0.2587  0.2706
 9978W        W25787   9.701   4.383   2.924  0.1474 -0.1434 -0.2079
 9979W        W25788   7.784   3.071  11.492  0.2474 -0.2523  0.3323
 9980W        W25789  14.198  17.436  13.098  0.1968 -0.5363 -0.0396
 9981W        W25790   1.807  16.168  11.640 -0.0127  0.1592  0.2405
 9982W        W25791   4.377  12.432   4.287 -0.3045  0.2150 -0.4740
 9983W        W25792  17.525   2.591  14.881 -0.0558  0.3163 -0.2057
 9984W        W25793   4.740  14.693   1.558 -0.2664  0.0396 -0.0296
 9985W        W25794   2.977  11.959   3.652 -0.0548  0.0664  0.0572
 9986W        W25795   5.384   6.736  11.610 -0.0128 -0.1828 -0.0804
 9987W        W25796  14.113   3.749   2.079 -0.4020  0.1949  0.2223
 9988W        W25797  12.838   5.054   1.937  0.1065  0.3174  0.0986
 9989W        W25798   0.167   9.454  13.565  0.0111 -0.1038 -0.1712
 9990W        W25799   3.205   8.118   4.875  0.1528  0.1869 -0.0086
 9991W        W25800   7.663   9.020   1.482  0.1021 -0.3189 -0.0135
 9992W        W25801   5.168   8.223   1.640 -0.0104  0.2616  0.1239
 9993W        W25802  13.057   2.386  11.554 -0.1317 -0.3941  0.0425
 9994W        W25803  17.710  16.119   1.842  0.0981  0.0622  0.1008
 9995W        W25804   1.453   0.516  12.230  0.2148 -0.2994  0.2154
 9996W        W25805  11.248  13.167   1.024 -0.0627  0.0910  0.2501
 9997W        W25806   0.439   8.380   4.522 -0.0257 -0.0904 -0.0972
 9998W        W25807   5.528  12.143  15.330  0.1513  0.0901 -0.2926
 9999W        W25808   2.965   9.118   1.398 -0.0940 -0.1949 -0.0257
10000W        W25809  17.172   1.621   2.448 -0.0145  0.0605 -0.1516
10001W        W25810  13.759  16.448  13.048 -0.0060 -0.2940  0.0097
10002W        W25811   4.823  13.493  13.554 -0.0122 -0.0716  0.3048
10003W        W25812  11.417  12.917  14.050 -0.1404 -0.0239  0.3886
10004W        W25813  11.322   4.991  14.029 -0.0738 -0.2039  0.1609
10005W        W25814  15.572   2.147   1.120 -0.0659  0.4126  0.0160
10006W        W25815  12.315  10.917  15.974  0.0474 -0.3971 -0.1647
10007W        W25816   1.815  13.764   0.109 -0.0116 -0.1908  0.0756
10008W        W25817   6.943  16.138  11.799 -0.0821  0.1944  0.2137
10009W        W25818  12.806  15.161  15.522 -0.3086 -0.1936  0.2722
10010W        W25819   2.867  14.688  15.769 -0.0924 -0.0493  0.1847
10011W        W25820  16.736  10.165  15.648  0.0621 -0.0898 -0.2173
10012W        W25821   1.689   6.190  15.150 -0.0066 -0.0335  0.2797
10013W        W25822   3.939  13.779   4.395  0.1707 -0.0024 -0.3632
10014W        W25823  11.447  11.668   2.847 -0.2314  0.0543 -0.0413
10015W        W25824   1.574   3.988   2.026 -0.3385  0.2425  0.0855
10016W        W25825  15.736   6.972  15.579  0.2578  0.2062  0.2508
10017W        W25826   2.826   2.536  11.127 -0.0473  0.0178 -0.0419
10018W        W25827   0.840   4.393   1.545  0.0830 -0.0904  0.0921
10019W        W25828  18.180   7.453   1.681 -0.1540 -0.1249 -0.0846
10020W        W25829   4.217   4.077  14.935  0.3154  0.0162 -0.1316
10021W        W25830   4.366   1.426  11.855  0.0127 -0.1618  0.1228
10022W        W25831   9.790  13.593  13.503 -0.1557 -0.1712  0.0607
10023W        W25832  14.220   5.993  14.306  0.2447  0.0541 -0.1873
10024W        W25833   3.742   3.792   2.359  0.0994 -0.0689 -0.1098
10025W        W25834  15.560   4.809   3.699 -0.2415  0.2108 -0.1139
10026W        W25835  11.212  16.473  12.239  0.0710 -0.2189  0.0629
10027W        W25836  12.992  18.089  11.569 -0.1955 -0.1836 -0.1805
10028W        W25837  14.278  12.092   3.463  0.0827 -0.1108 -0.2033
10029W        W25838  16.545   7.826   4.697 -0.1734  0.0977  0.3758
10030W        W25839  17.990   8.166  14.937  0.0425  0.3343  0.0048
10031W        W25840   1.310  12.570  16.066  0.1241 -0.1818  0.0197
10032W        W25841  17.830   4.801  12.792  0.1154  0.0495 -0.2549
10033W        W25842  17.357  16.000  13.727 -0.0407  0.2609  0.0112
10034W        W25843  13.848   9.825  12.785  0.1803 -0.1943 -0.0971
10035W        W25844   7.824   8.361   4.740  0.1521 -0.1225  0.0634
10036W        W25845  12.971   5.996   5.330  0.2927 -0.2175 -0.1686
10037W        W25846   9.286  12.336  15.941  0.2196  0.2783  0.3738
10038W        W25847   3.504   1.528   2.538 -0.1721 -0.0513 -0.0184
10039W        W25848  15.940   8.688  12.802 -0.1957 -0.1283 -0.1669
10040W        W25849  13.385   0.387  12.936  0.1544  0.1653 -0.1979
10041W        W25850  14.583  11.762   3.294  0.0244  0.4203 -0.0617
10042W        W25851  16.317   0.028   0.471 -0.0758  0.1397  0.0485
10043W        W25852  17.482  11.769  15.252 -0.1404 -0.3825 -0.0982
10044W        W25853   4.724  13.379  14.494  0.1389  0.2350  0.1560
10045W        W25854   2.794   6.860  12.950 -0.0583 -0.2220 -0.0036
10046W        W25855  16.554   0.204   4.352  0.0001  0.2656  0.1420
10047W        W25856  17.077  12.648   4.873  0.1495 -0.0763 -0.0550
10048W        W25857  18.134   8.252  13.438 -0.0653  0.1441 -0.2102
10049W        W25858  10.390   8.600  16.047  0.1122 -0.2708  0.3080
10050W        W25859  10.877   5.068   6.363 -0.0031  0.2063 -0.1721
10051W        W25860  14.636  15.168   1.455  0.0268  0.1844  0.0038
10052W        W25861   9.720  14.512  13.209 -0.1350  0.0481 -0.0828
10053W        W25862   3.280   8.412  11.131  0.1150 -0.4042  0.1472
10054W        W25863   2.766   5.626   1.577  0.2528  0.2833  0.0424
10055W        W25864   6.639   9.835  15.236  0.3066  0.2051  0.1868
10056W        W25865  17.356   2.466   1.376 -0.0104  0.1228 -0.2672
10057W        W25866  16.473   3.767   3.688  0.0250 -0.3959 -0.0075
10058W        W25867   5.684   3.944   1.100 -0.0624  0.0310 -0.0512
10059W        W25868   1.251  17.141   5.023 -0.0806 -0.1891  0.2109
10060W        W25869  16.718  11.731   0.241 -0.1364  0.1690  0.0732
10061W        W25870  12.339   7.714  11.793  0.0498 -0.1234  0.0625
10062W        W25871   4.582   7.394   3.897 -0.0592 -0.1707  0.0363
10063W        W25872  11.090   6.842   4.204 -0.2358  0.0564  0.0660
10064W        W25873   0.808  13.470   3.604  0.0452 -0.1322  0.0238
10065W        W25874  11.079   0.616  11.650  0.1810  0.2913 -0.1392
10066W        W25875   6.276  14.736  14.027  0.0704  0.2397 -0.1062
10067W        W25876   1.524  12.511   5.553 -0.1012 -0.0240 -0.1956
10068W        W25877  13.031   0.926  12.497 -0.0381 -0.1980  0.3506
10069W        W25878  15.072   5.465  11.849 -0.0906 -0.4496 -0.0925
10070W        W25879   6.146  16.617  14.539  0.1029 -0.0252 -0.3587
10071W        W25880   9.228   0.067   3.402 -0.2320  0.0734  0.1667
10072W        W25881   3.926  16.774  12.297  0.0287  0.2681 -0.1714
10073W        W25882   9.820   4.365   5.244 -0.0210 -0.2793  0.0477
10074W        W25883  17.477  14.252   1.265 -0.4440  0.0545  0.3333
10075W        W25884   3.165  11.948  11.680 -0.1174 -0.1114  0.1091
10076W        W25885  18.155   6.305  10.488  0.2886 -0.2077 -0.0138
10077W        W25886   2.216   5.260   2.611 -0.2273 -0.4813 -0.0479
10078W        W25887   1.405  15.867  11.499  0.1325 -0.1147  0.2650
10079W        W25888  13.663  18.217  13.051 -0.2459  0.1701  0.1259
10080W        W25889  15.068  12.099   4.878 -0.1121  0.4357 -0.2035
10081W        W25890  16.756   1.152  14.952 -0.2045  0.2534  0.0586
10082W        W25891  14.748   6.264  12.931 -0.0975 -0.5508 -0.2382
10083W        W25892   4.677   1.876   1.369  0.1051 -0.2090 -0.4603
10084W        W25893   9.608  17.016  13.909 -0.3701  0.0926  0.0564
10085W        W25894  11.611   1.943  14.781 -0.0416 -0.0829  0.1731
10086W        W25895   0.250   2.780  14.920  0.3041 -0.0824 -0.2256
10087W        W25896   8.254  17.257   3.252 -0.0537  0.0313 -0.1251
10088W        W25897   7.174  12.737   0.934  0.2527  0.0463 -0.2282
10089W        W25898   5.724  16.979  12.730  0.2046  0.3165 -0.0976
10090W        W25899  10.602   6.511  13.100  0.0134 -0.1300 -0.1422
10091W        W25900  14.867  12.584   3.073  0.3067  0.3900  0.0352
10092W        W25901  15.894  11.326  10.908 -0.1709  0.0310 -0.1843
10093W        W25902  10.433  14.505  14.167 -0.2235  0.0695  0.1790
10094W        W25903  18.036  14.395   0.442 -0.0284 -0.0453  0.3019
10095W        W25904  11.589   2.548   1.508  0.1674  0.0505 -0.1075
10096W        W25905  13.576  11.321  11.743  0.0172  0.2787 -0.1707
10097W        W25906   7.432  15.662   1.406 -0.1333  0.3601 -0.2646
10098W        W25907   3.116  17.876  13.294  0.2208  0.2334 -0.2592
10099W        W25908  14.904  15.498  12.398 -0.0456 -0.0634  0.1054
10100W        W25909  17.317   2.401  13.124  0.0974  0.1999  0.1338
10101W        W25910   6.971  11.539   5.156  0.1661 -0.2965 -0.0987
10102W        W25911  11.890  13.002   4.690  0.2404  0.0376  0.2395
10103W        W25912  11.156  11.076   4.310  0.1684  0.0947  0.1696
10104W        W25913   7.887   8.392  10.669 -0.0086  0.0577  0.1081
10105W        W25914  17.936   0.601  13.022  0.0160  0.1548  0.1352
10106W        W25915   6.880  17.555  15.212  0.4344 -0.0258  0.0977
10107W        W25916   2.239   6.776   4.948 -0.2809 -0.0684  0.0783
10108W        W25917   0.777  10.662   2.772  0.2044 -0.0091  0.1926
10109W        W25918   4.970   9.804  12.899 -0.1031  0.1261 -0.1324
10110W        W25919   2.337   5.508   1.807  0.0276  0.0721 -0.0481
10111W        W25920   7.234  15.869  13.229 -0.3047  0.0286  0.1946
10112W        W25921  13.465  10.846   2.020 -0.2396  0.3473 -0.0640
10113W        W25922   9.117  13.208   0.224 -0.2638  0.3014  0.1272
10114W        W25923   6.099   4.376   1.423 -0.0209  0.2452 -0.0878
10115W        W25924  12.792   1.634   1.103 -0.1338  0.3224  0.0995
10116W        W25925   5.593  16.735   0.818 -0.0700 -0.2285 -0.0312
10117W        W25926  11.878   7.973   0.994 -0.0169 -0.0568 -0.0949
10118W        W25927  17.689  13.486  14.888 -0.1591 -0.1697  0.1784
10119W        W25928  11.524  13.407  15.859 -0.1992 -0.0568 -0.0907
10120W        W25929  10.978  12.395   5.249  0.1037  0.1963 -0.0747
10121W        W25930   0.103  10.559   5.785 -0.0624 -0.3073  0.1905
10122W        W25931  14.675   8.014   1.544  0.0195 -0.0881 -0.0704
10123W        W25932  10.906  16.046  16.071  0.0809 -0.0466 -0.2076
10124W        W25933   5.793  18.222  12.285  0.1350  0.2145  0.2186
10125W        W25934   9.768   7.368  14.926  0.4376 -0.2270  0.0771
10126W        W25935  15.990  14.986   0.988  0.1914  0.1063  0.2862
10127W        W25936  14.880   0.760   2.891  0.2029  0.0228  0.1601
10128W        W25937  11.121  11.669   0.766  0.0281  0.0740 -0.2064
10129W        W25938   2.297   4.265   0.508  0.1150  0.0591  0.0213
10130W        W25939   8.017   5.698   4.699  0.2351  0.0911 -0.1408
10131W        W25940  10.759  11.384   1.118 -0.0460 -0.1645 -0.3142
10132W        W25941  10.850   2.603   0.787  0.1384  0.1424  0.2091
10133W        W25942  13.672  17.113  15.181  0.0429  0.1006 -0.1111
10134W        W25943  11.184   6.584  13.504 -0.0551 -0.0071 -0.2000
10135W        W25944   8.531  11.735  11.884  0.2737  0.1430  0.3566
10136W        W25945  10.299  12.886   4.293  0.4806 -0.0307 -0.2149
10137W        W25946  12.142   4.428   3.162  0.1882 -0.1943 -0.1076
10138W        W25947  14.265  15.121  11.751  0.1038 -0.0567 -0.2011
10139W        W25948   8.568  11.716  11.328  0.2627 -0.1162 -0.0630
10140W        W25949  13.800   6.283  14.142 -0.1338 -0.0497 -0.2196
10141W        W25950   8.226  10.677   5.417  0.0010  0.0225 -0.0682
10142W        W25951  14.477   1.005   5.744  0.3965 -0.0945  0.0193
10143W        W25952   3.663  16.085   3.736  0.1582 -0.1806  0.2313
10144W        W25953   6.287   7.131  14.737  0.0430 -0.3437  0.0220
10145W        W25954   0.674   0.138   0.583  0.0906  0.1151  0.0771
10146W        W25955  17.964  15.971   3.734 -0.0045  0.1937 -0.2970
10147W        W25956  15.326  17.563  15.183 -0.0958 -0.0843 -0.2064
10148W        W25957   8.888  14.683  13.058 -0.0521  0.0199 -0.0539
10149W        W25958  16.026   1.567  11.826  0.0393  0.0184 -0.0397
10150W        W25959  14.351  13.027   3.630 -0.3376 -0.1601  0.0147
10151W        W25960   0.910   8.739  11.870  0.1735 -0.0862  0.0272
10152W        W25961   1.662   2.948  14.465  0.0074 -0.3514  0.1177
10153W        W25962  17.208   0.305  14.079 -0.1788 -0.1276 -0.1766
10154W        W25963   6.972   5.792  15.056  0.1113  0.0370 -0.0227
10155W        W25964   2.786   4.703   4.969 -0.2119  0.3742 -0.2162
10156W        W25965   6.111   1.325  14.976 -0.0346  0.2078 -0.4090
10157W        W25966  13.427   9.554   3.326  0.2244 -0.0669 -0.0059
10158W        W25967   9.566   1.645  15.498  0.1625  0.0434  0.1702
10159W        W25968   4.838  14.765  14.781 -0.0564 -0.0608  0.0665
10160W        W25969   2.289  10.181   5.286 -0.1264  0.1368 -0.1249
10161W        W25970  15.686   3.037   4.004 -0.2431 -0.0097 -0.1719
10162W        W25971  18.048   5.951   4.878  0.0877 -0.0584 -0.0049
10163W        W25972   6.482   6.466  12.663 -0.0179  0.2559  0.2645
10164W        W25973  17.681   7.783   4.734 -0.1415  0.0798  0.2244
10165W        W25974  12.945  14.882   5.445  0.0285 -0.1825 -0.0935
10166W        W25975  13.477   5.494  15.436 -0.2006  0.3922  0.0917
10167W        W25976   2.073   3.200  11.072 -0.0094 -0.0615 -0.0554
10168W        W25977  10.922   3.330   0.650 -0.0217 -0.1529  0.1589
10169W        W25978   0.405   7.684  14.612  0.0932 -0.2725  0.0958
10170W        W25979   2.750  13.023  15.266  0.1954  0.0887  0.0106
10171W        W25980   9.627   7.576   0.920  0.1404  0.4030 -0.0459
10172W        W25981   8.038   4.468  14.290  0.0195 -0.2780 -0.1161
10173W        W25982  16.304  10.480  11.216 -0.2348  0.1748  0.3695
10174W        W25983   3.344   2.115  13.837 -0.0729  0.3561  0.2328
10175W        W25984   6.374  11.050   3.811 -0.4097  0.0385  0.1695
10176W        W25985   5.157  18.132   4.166 -0.1743 -0.0305  0.0051
10177W        W25986  12.100   0.550   4.224 -0.1681 -0.1288  0.1860
10178W        W25987  13.549  10.863  14.102  0.0122 -0.0983 -0.0090
10179W        W25988   2.873   8.044   1.146  0.0425  0.1500  0.1922
10180W        W25989  14.023  12.105  13.892  0.1356 -0.1847 -0.0262
10181W        W25990   6.490   6.664  13.638  0.1839 -0.1300  0.2343
10182W        W25991   3.782   2.010   4.373 -0.1713  0.2393  0.0772
10183W        W25992   0.138  14.311  14.424  0.1693 -0.1268  0.0707
10184W        W25993  13.943   0.438  15.485 -0.1366 -0.1263 -0.2905
10185W        W25994   5.673   4.180   3.546  0.0795 -0.3483  0.0243
10186W        W25995  13.172   9.937   4.615 -0.0522 -0.1913 -0.1206
10187W        W25996   0.122  11.339  13.181 -0.1486  0.0583 -0.2953
10188W        W25997   4.167   8.178   3.491  0.1280  0.0387 -0.0751
10189W        W25998   5.150  15.062  14.415  0.1138 -0.2265  0.0859
10190W        W25999   9.070   4.228   6.028  0.1256  0.0280 -0.1334
10191W        W26000  11.107  11.881  15.229 -0.3813 -0.0236  0.0106
10192W        W26001  14.016   5.051   0.341  0.0434  0.1356  0.0248
10193W        W26002   4.120  15.427   1.914 -0.1387  0.1485 -0.0520
10194W        W26003  15.570  16.118  14.385 -0.1243 -0.2854 -0.0621
10195W        W26004   7.856  16.984   3.058 -0.3776 -0.1304 -0.2931
10196W        W26005   3.005  17.222   1.808 -0.2558  0.0882  0.1845
10197W        W26006  10.972   9.099  13.263  0.1448  0.1131 -0.2927
10198W        W26007   9.934  14.968   0.213 -0.0062 -0.2109 -0.0191
10199W        W26008   9.903  15.392   1.718  0.1138 -0.0153  0.1762
10200W        W26009   9.569  14.175  12.300 -0.3760 -0.0016 -0.3526
10201W        W26010  14.614  17.404  12.862 -0.1859  0.0309 -0.0477
10202W        W26011  11.625   0.165   5.395 -0.0467  0.0603 -0.1995
10203W        W26012  17.122  15.608  12.430 -0.0633  0.3781  0.2128
10204W        W26013   8.495  17.038   0.005  0.3488  0.1604 -0.4278
10205W        W26014  11.056   6.469  12.987 -0.0221  0.0510 -0.1072
10206W        W26015   1.384  13.784   5.167  0.0438  0.1626 -0.0458
10207W        W26016   8.085   1.353  15.706  0.3961 -0.0873  0.2839
10208W        W26017   9.662   1.808   0.589  0.0060 -0.2393  0.1316
10209W        W26018  13.708   0.205   1.933 -0.0439 -0.2874 -0.1656
10210W        W26019  17.234   2.671  11.800  0.3273  0.3559 -0.0433
10211W        W26020  11.442  11.191  13.749 -0.4870  0.2904  0.0830
10212W        W26021  12.327  12.540   3.921 -0.0296 -0.0444  0.4184
10213W        W26022   4.218   2.639   3.953  0.0035 -0.2607  0.1069
10214W        W26023   8.799  14.658  15.712  0.1333 -0.1793  0.1419
10215W        W26024  14.676  13.724   1.420 -0.2950  0.0156 -0.0713
10216W        W26025  11.229  15.012  11.349  0.1665  0.1355  0.1597
10217W        W26026  16.022   9.900   0.857 -0.1982 -0.1054  0.1042
10218W        W26027   7.336  12.781   3.322  0.0186 -0.1996  0.0924
10219W        W26028  15.651   8.521   4.579  0.3817  0.2276 -0.0243
10220W        W26029   3.791  11.951   5.343  0.0149  0.1960  0.0899
10221W        W26030   0.151  13.341   5.105  0.1359  0.3817  0.2573
10222W        W26031   2.976  14.861  15.048 -0.1125  0.1629  0.1263
10223W        W26032   1.346  12.956   1.028  0.0838  0.1595 -0.2233
10224W        W26033   4.851   4.173   1.013  0.1055 -0.0490  0.2333
10225W        W26034   9.913  17.177   4.529  0.0818  0.3478 -0.4865
10226W        W26035   5.055  13.708  12.850 -0.2775 -0.3192 -0.0756
10227W        W26036  17.525  14.134  14.372 -0.4354 -0.1249 -0.5218
10228W        W26037   6.451   6.713   4.496  0.3028  0.1395  0.0282
10229W        W26038   3.393   8.796   0.145  0.1779 -0.0079 -0.0481
10230W        W26039  15.438  17.422   3.548 -0.2172  0.0901 -0.0973
10231W        W26040  13.014  10.199  12.623  0.3701  0.0367  0.1083
10232W        W26041   1.765  13.549   0.906 -0.2785  0.2803 -0.0043
10233W        W26042  11.781  13.530   4.442 -0.1144  0.0724  0.2246
10234W        W26043   8.558  12.533  13.418 -0.2028 -0.1003 -0.0799
10235W        W26044   6.447  16.349   4.145 -0.0200 -0.0588  0.0833
10236W        W26045  17.392  10.960   0.683 -0.0703 -0.3437  0.2395
10237W        W26046   5.309   3.844   3.672  0.2437 -0.0067 -0.0342
10238W        W26047   2.362   7.213   1.666  0.1434 -0.3540 -0.1109
10239W        W26048   8.646  13.834   3.320  0.2603  0.2489 -0.0136
10240W        W26049  13.680   1.743  13.617 -0.1465  0.0277  0.1733
10241W        W26050   8.208   2.784   1.093 -0.0893  0.2156 -0.0858
10242W        W26051  14.595  11.836  13.800 -0.2348 -0.0830  0.0827
10243W        W26052  11.321  16.057   0.947  0.2011  0.1019  0.0273
10244W        W26053   1.095   8.009  11.537 -0.0737 -0.0265  0.0307
10245W        W26054  11.608   5.360   2.300  0.0581 -0.0329  0.0102
10246W        W26055   0.297  17.104   3.522 -0.1757  0.0656 -0.1704
10247W        W26056  10.013   7.128  13.967 -0.1425 -0.1257  0.1281
10248W        W26057   9.801   1.654  14.415  0.0593  0.1170 -0.0090
10249W        W26058   1.078  12.104  11.823  0.0419  0.2486 -0.0696
10250W        W26059   9.263  15.544   3.266 -0.0832 -0.1280 -0.0353
10251W        W26060   5.862  15.786   5.308  0.0298  0.1830  0.1459
10252W        W26061   6.739  12.440   0.902 -0.1883  0.0837 -0.1198
10253W        W26062   5.546  17.087  15.935 -0.0321  0.0093  0.1867
10254W        W26063  14.189   2.216  14.487  0.1058  0.1428  0.0297
10255W        W26064   9.161  15.557  10.894 -0.1085 -0.1909 -0.0799
10256W        W26065  14.423   9.170  11.035  0.2387  0.2367 -0.0612
10257W        W26066  12.751   7.085  12.682 -0.4363  0.0727 -0.0417
10258W        W26067  16.209  12.073  11.981  0.0520 -0.2225 -0.0060
10259W        W26068  11.363   4.670  15.014 -0.2170  0.1648  0.2640
10260W        W26069   8.326   4.816   3.824 -0.0390 -0.1194  0.1951
10261W        W26070  15.500   2.274   5.210  0.1317  0.1136 -0.2475
10262W        W26071  10.809   1.515   5.415  0.0932 -0.0369 -0.0622
10263W        W26072   8.691   6.435  11.455  0.0729  0.0737 -0.2388
10264W        W26073   9.191  11.308   5.118  0.0179  0.0586 -0.1099
10265W        W26074   3.129  15.923   0.205  0.0642  0.1016  0.3047
10266W        W26075   8.138  10.479   4.958 -0.1875  0.0089 -0.0934
10267W        W26076   4.963  16.016   1.588  0.2632  0.0294  0.1167
10268W        W26077   4.751   3.376   5.564  0.2424  0.2302 -0.0677
10269W        W26078   7.939   1.394  10.646 -0.3500 -0.1438 -0.1238
10270W        W26079   5.833  14.199   0.027 -0.1372  0.0701  0.0086
10271W        W26080  12.420   9.370  13.250  0.1604  0.1651 -0.0322
10272W        W26081  15.169   6.363   4.488 -0.0876 -0.2030  0.1882
10273W        W26082   2.730  17.729  11.587  0.2195  0.1229  0.1998
10274W        W26083   7.828  14.204   4.353  0.3029 -0.2115  0.1381
10275W        W26084   9.056  11.357  13.077 -0.0198  0.0012  0.0845
10276W        W26085   1.845   4.172  10.684 -0.0345 -0.1487 -0.0484
10277W        W26086  14.263   3.055   1.251 -0.1145  0.1836 -0.0234
10278W        W26087  16.061   9.391  14.382 -0.4831  0.0075 -0.0498
10279W        W26088   4.153   8.658  13.352  0.1563  0.2274 -0.0843
10280W        W26089  17.601  14.124   4.222 -0.1980 -0.0520  0.2245
10281W        W26090  16.396   2.812  13.056 -0.0325 -0.1702  0.1355
10282W        W26091  13.087   1.996   0.341 -0.3902 -0.1619 -0.3638
10283W        W26092  13.520  12.046   0.518 -0.0677 -0.0758  0.0792
10284W        W26093   1.821  14.151   5.775 -0.3405  0.1266  0.0291
10285W        W26094  10.347   1.010  14.656 -0.1373  0.1394  0.1315
10286W        W26095   5.725  14.613   3.462  0.2176 -0.1709 -0.2180
10287W        W26096  11.539  11.073   2.600  0.0360  0.2061  0.0743
10288W        W26097   9.044   1.678  15.588  0.2609 -0.1194  0.1449
10289W        W26098  16.775   5.164   0.797 -0.1013 -0.1370 -0.0641
10290W        W26099   7.390   8.293  10.688 -0.0363  0.1473 -0.1822
10291W        W26100   4.034  17.850   3.693  0.1021  0.1504  0.0214
10292W        W26101  16.701  15.145  13.949  0.1609 -0.0168 -0.0281
10293W        W26102   1.965  17.296  14.985  0.3558 -0.0578 -0.3080
10294W        W26103  17.329   1.944   1.038  0.1362 -0.0915  0.0235
10295W        W26104   3.381   5.053  13.188 -0.0515  0.1406  0.1246
10296W        W26105   5.311  10.034   0.354 -0.1971  0.0343  0.3197
10297W        W26106   0.146   4.449  13.942  0.1799 -0.2066  0.0557
10298W        W26107   9.149   0.965   5.163  0.0030  0.0210  0.0868
10299W        W26108   9.797   7.401   3.917  0.0286 -0.1719  0.0895
10300W        W26109  15.207   2.605  12.425  0.1873  0.0189  0.0443
10301W        W26110  13.434   4.899   2.624 -0.1384 -0.2431 -0.4382
10302W        W26111  10.009  12.302  13.367 -0.1532  0.1522  0.1457
10303W        W26112  10.031  16.601  10.817  0.1833 -0.0512 -0.3914
10304W        W26113   8.545   0.639   2.850 -0.4599  0.0517 -0.1417
10305W        W26114  13.726  14.667   2.251  0.0539  0.1109  0.2018
10306W        W26115   0.307   0.437   0.673  0.1628 -0.0989 -0.0271
10307W        W26116   3.623  17.041  14.254 -0.0903  0.0735  0.1642
10308W        W26117   6.783   9.221   1.839  0.3258  0.2070 -0.0292
10309W        W26118   0.697   5.863  14.524 -0.0967  0.0785  0.2575
10310W        W26119  10.856  16.669   2.697 -0.0457 -0.2055  0.0982
10311W        W26120  13.565   1.655   3.945  0.0044  0.0776 -0.2412
10312W        W26121  13.748   2.659   4.963 -0.1143 -0.1243  0.0609
10313W        W26122   4.154  10.308  13.594  0.1660 -0.1073  0.0410
10314W        W26123   8.005   9.897   2.713 -0.0663  0.1328  0.0420
10315W        W26124  11.609   8.422  13.804  0.2135 -0.0874  0.0078
10316W        W26125   9.780  10.741   4.026 -0.2625 -0.2027 -0.1753
10317W        W26126   4.764  11.616   2.696  0.0536  0.0288 -0.0098
10318W        W26127  17.520  12.082   3.415  0.0907  0.0151 -0.3557
10319W        W26128   5.214   0.726   1.870 -0.0819  0.1244  0.0800
10320W        W26129  10.783   2.865   3.060  0.2161 -0.3111 -0.3053
10321W        W26130   0.669  14.678  12.856  0.0376 -0.0984  0.2902
10322W        W26131   2.360  14.755  15.619  0.0221  0.0428  0.1498
10323W        W26132   7.006   4.481   1.338 -0.3912 -0.0605 -0.1861
10324W        W26133   3.432  17.893   4.252 -0.1154 -0.2741  0.2558
10325W        W26134  16.433  14.287  15.480 -0.2207 -0.1202 -0.1205
10326W        W26135   0.154   5.740  15.740  0.0371 -0.3871  0.0859
10327W        W26136   9.218   8.240  10.766 -0.0760  0.2116 -0.0406
10328W        W26137   0.394  12.358   0.181  0.1289  0.0302 -0.0691
10329W        W26138   4.533   6.667  14.642  0.1602 -0.0491  0.0025
10330W        W26139  11.388   5.192  12.110  0.1601  0.0307  0.1004
10331W        W26140   2.480   2.397  13.683  0.2473  0.2178  0.1398
10332W        W26141   7.215  16.313   4.899  0.2024  0.0946  0.5515
10333W        W26142   9.439   2.444  14.297 -0.2577 -0.4641 -0.1434
10334W        W26143  16.373   5.239   2.326 -0.2151 -0.4461  0.1097
10335W        W26144  16.552  11.854  15.479  0.1611 -0.0367  0.0036
10336W        W26145  12.542   1.005  12.606  0.0493  0.1266 -0.2090
10337W        W26146   4.502   7.302  10.757 -0.2499 -0.2372  0.0174
10338W        W26147   5.314  14.825  14.046  0.0908  0.0807  0.2487
10339W        W26148  11.672  17.039  13.559  0.0885  0.2214  0.0868
10340W        W26149  11.359   5.182  11.582  0.1282 -0.0467 -0.1120
10341W        W26150  10.767  15.649  13.882  0.0425 -0.1617 -0.0926
10342W        W26151  12.005   3.205   3.447  0.1449 -0.0645 -0.0586
10343W        W26152  16.160  15.202   4.183  0.2006 -0.1100 -0.1323
10344W        W26153   5.041  16.246   0.094 -0.2111  0.2494 -0.1199
10345W        W26154   1.622  14.796   0.308  0.0780  0.0314 -0.0538
10346W        W26155  16.393   9.609  11.089  0.3578  0.1674 -0.1679
10347W        W26156   4.894  17.777  13.724 -0.0972  0.2526  0.0988
10348W        W26157  15.723   2.399  13.442  0.2942  0.1513 -0.0173
10349W        W26158   6.571   6.045  15.888  0.0727  0.0559 -0.1678
10350W        W26159   1.962  11.562  12.623 -0.0764 -0.0395 -0.1353
10351W        W26160  14.637   3.926  14.812 -0.1673  0.1482 -0.0753
10352W        W26161  17.890   3.918   3.424  0.0547  0.0203  0.1807
10353W        W26162   6.161  10.892   1.898 -0.1421 -0.0646  0.0877
10354W        W26163  13.824  14.821   2.869 -0.0353 -0.0278  0.0781
10355W        W26164  11.928   5.368   0.337  0.2849  0.0312 -0.1621
10356W        W26165  14.474  13.313   1.751  0.1518  0.0573  0.1466
10357W        W26166   3.088  15.311  11.916  0.1456 -0.0073  0.0622
10358W        W26167  10.738   8.664  13.913  0.2157  0.0327  0.0396
10359W        W26168  12.760   4.859   5.249  0.0372 -0.0089  0.2083
10360W        W26169   5.369   1.445   2.626  0.0904 -0.3285 -0.0973
10361W        W26170   2.474   0.621   2.589 -0.2235  0.0089 -0.3039
10362W        W26171  14.409   8.648  14.836 -0.3814 -0.0385 -0.1475
10363W        W26172   5.872   0.522  13.609  0.0672 -0.2761 -0.1722
10364W        W26173   5.224   2.599   2.966 -0.0152  0.0266  0.0563
10365W        W26174  16.274  10.223   1.998  0.0816 -0.2097 -0.1326
10366W        W26175   4.123  12.807   0.203  0.0726  0.1909  0.1518
10367W        W26176   3.998   8.665  10.547  0.3093  0.0037  0.2075
10368W        W26177   6.048   4.322  14.999  0.2393 -0.1134  0.1920
10369W        W26178  13.681   8.187  11.275 -0.2160 -0.0086  0.3202
10370W        W26179   1.112   7.218   2.015  0.0278  0.4401 -0.2184
10371W        W26180  14.397  16.662   3.637  0.0270 -0.0651 -0.1376
10372W        W26181  17.809  12.413   3.656 -0.1337 -0.1411 -0.2016
10373W        W26182   4.915  15.028   4.666 -0.0299 -0.2043 -0.0464
10374W        W26183   2.872  11.138   4.229 -0.1653 -0.0353 -0.0359
10375W        W26184   5.381   2.251   1.986  0.2401  0.0443 -0.0767
10376W        W26185   4.418  14.565  11.602 -0.1033 -0.1623  0.1101
10377W        W26186   6.984   8.464  15.760  0.0756  0.3538 -0.1177
10378W        W26187   5.118   8.324   3.633  0.0976  0.0264 -0.1919
10379W        W26188   7.479   5.196  13.997  0.0504 -0.2050 -0.1039
10380W        W26189   8.250  13.411   2.753 -0.0160  0.1741  0.1392
10381W        W26190  15.730  16.818  11.253  0.1981 -0.0345 -0.2177
10382W        W26191  16.130   7.567  15.674 -0.0655 -0.0515  0.2977
10383W        W26192  15.883   1.106   1.263 -0.2082  0.0347  0.2225
10384W        W26193   0.204   9.159  11.764 -0.1740 -0.0353  0.2392
10385W        W26194   3.462  11.639   1.984  0.0321  0.0058  0.0695
10386W        W26195  11.506   3.346   3.402  0.0210  0.0538 -0.0467
10387W        W26196   9.845   6.559  15.760  0.0459 -0.0187 -0.1759
10388W        W26197   1.435   8.929   2.387  0.0861  0.3188  0.1676
10389W        W26198   6.332   4.718  13.805 -0.0553 -0.0748  0.2062
10390W        W26199   0.848  16.935  14.530 -0.0603  0.3529 -0.0795
10391W        W26200  14.411  14.709   1.491  0.1749 -0.0174  0.0804
10392W        W26201   2.706  10.799  16.044  0.0162 -0.2394  0.1545
10393W        W26202   8.156  11.339  14.443 -0.2358 -0.0930 -0.1945
10394W        W26203   0.420   7.079  12.091  0.1627 -0.4013 -0.0225
10395W        W26204  14.572  14.421   3.888  0.0861 -0.1242  0.1854
10396W        W26205   1.390   1.321  11.623 -0.1021  0.0767 -0.3164
10397W        W26206  14.361  11.622   2.119 -0.0754  0.1423 -0.0493
10398W        W26207  11.375   9.131   2.596 -0.1960 -0.1746 -0.2764
10399W        W26208  17.675  12.134  10.710 -0.1092  0.0248  0.1219
10400W        W26209  14.320   0.081  15.505 -0.2778  0.1604 -0.0874
10401W        W26210   4.517  13.114  13.414 -0.4182  0.2238  0.2190
10402W        W26211   0.641   1.938  13.582  0.0089 -0.0194  0.0156
10403W        W26212   4.292  15.143  12.812  0.0077  0.1610  0.1827
10404W        W26213  14.283   8.303  14.042  0.0344 -0.0316 -0.1745
10405W        W26214   6.149   4.161  12.162  0.0972  0.3434 -0.3221
10406W        W26215   6.099   9.715   3.404  0.1044 -0.0241 -0.1700
10407W        W26216  11.348  10.334   3.050  0.1045 -0.1198  0.2830
10408W        W26217   8.257   4.547   0.930  0.0322 -0.1410  0.1240
10409W        W26218   5.348  13.878   5.680  0.0346 -0.0299  0.3098
10410W        W26219   5.845  18.215   1.120 -0.0711 -0.0607  0.1817
10411W        W26220  10.090   2.028  14.654  0.3053  0.2718  0.2551
10412W        W26221   6.424   8.033   0.944 -0.0898 -0.0142  0.2604
10413W        W26222  10.676  17.162  11.889 -0.0888 -0.1938  0.1350
10414W        W26223  16.484   2.555  15.389 -0.4047  0.2201  0.4628
10415W        W26224   0.412  16.594   5.024 -0.1326  0.2721  0.0422
10416W        W26225   6.159   5.310  14.810 -0.2752 -0.3108  0.1526
10417W        W26226  10.736  14.312   0.477 -0.0339  0.1454 -0.1010
10418W        W26227   3.391   4.501   1.819 -0.0563  0.3467 -0.0367
10419W        W26228  18.083   8.875   2.462  0.1336  0.0037  0.2816
10420W        W26229  16.815  15.051   0.739 -0.0403  0.0683  0.0360
10421W        W26230   4.316   0.380  13.545 -0.1499 -0.1394 -0.2016
10422W        W26231   5.731   5.565  13.367  0.1977 -0.0025 -0.1690
10423W        W26232   1.771   1.817   5.209  0.2927 -0.2011  0.1602
10424W        W26233  18.045  12.049   4.931 -0.3161 -0.0362 -0.1362
10425W        W26234  11.036   9.541  15.512 -0.2085  0.2019 -0.1500
10426W        W26235  12.559   9.036   3.867 -0.3084  0.0426  0.0485
10427W        W26236   6.520   5.793  13.028  0.0160  0.1464 -0.0518
10428W        W26237   4.077   1.355  12.274 -0.0466  0.0084 -0.1362
10429W        W26238  10.292   6.515   3.815 -0.0476 -0.2772  0.0446
10430W        W26239  15.072  15.382  14.029 -0.0108 -0.2115  0.1843
10431W        W26240   0.020  12.581  14.896  0.1547 -0.2047 -0.1646
10432W        W26241   9.210  15.202  14.506 -0.1671  0.0181 -0.0221
10433W        W26242  12.519   9.842  13.408 -0.1240 -0.0314 -0.0499
10434W        W26243  11.070   0.091   4.666 -0.0086 -0.2466  0.0958
10435W        W26244  12.033  16.508  14.034 -0.1134 -0.2682  0.4016
10436W        W26245   8.516  13.535  14.458  0.0807  0.0956 -0.1243
10437W        W26246  15.629  17.875   2.125  0.2030  0.2356 -0.1146
10438W        W26247  14.187   7.678   4.347  0.2387 -0.0827 -0.0584
10439W        W26248  12.636   4.073   5.720  0.3040 -0.0109 -0.0894
10440W        W26249  15.416   6.644  12.321  0.1487  0.2945 -0.0443
10441W        W26250   4.626   1.084  14.368 -0.0706  0.0095  0.0907
10442W        W26251   4.555  17.254   5.624  0.1883  0.2050 -0.2797
10443W        W26252  11.137   5.912   4.994 -0.2431  0.2353  0.2021
10444W        W26253   3.245   4.938   2.519 -0.0623  0.1504  0.4687
10445W        W26254   7.837  12.349   2.554  0.0414  0.1814 -0.2176
10446W        W26255  10.743   5.069   2.060  0.0290 -0.2143  0.0438
10447W        W26256  12.297  12.002  12.299  0.0087 -0.1592 -0.1581
10448W        W26257   9.188   8.145   4.661  0.1573  0.1657 -0.1363
10449W        W26258  11.064   4.020  15.794 -0.2389  0.0836 -0.0878
10450W        W26259  13.915   1.339   0.735  0.3467 -0.0104  0.0009
10451W        W26260   5.563   9.969   2.705 -0.1006  0.1086 -0.0739
10452W        W26261  12.674  14.783  12.831 -0.2263  0.2273 -0.0188
10453W        W26262  15.547   2.235   3.283  0.0873  0.0973 -0.1505
10454W        W26263  10.658  13.718   5.061 -0.0471  0.0419  0.2432
10455W        W26264  10.437  10.504   3.067 -0.0524 -0.2733 -0.2026
10456W        W26265   5.808  14.673  13.933  0.1109 -0.1729 -0.2412
10457W        W26266   6.910   6.213   3.563  0.0287 -0.1285  0.1844
10458W        W26267   2.054   8.767   3.710 -0.1162  0.1915  0.0731
10459W        W26268   1.345   4.804  14.264 -0.1213 -0.1362 -0.0439
10460W        W26269  10.618   8.638  15.114  0.1457  0.0007 -0.1291
10461W        W26270  10.842  17.208  13.778 -0.3315  0.2035 -0.0179
10462W        W26271  16.489   9.809   1.132  0.1327  0.0806 -0.2146
10463W        W26272  11.996  13.971  11.637 -0.1681  0.0245  0.1291
10464W        W26273   4.269   3.104  10.336 -0.1857 -0.1527  0.0817
10465W        W26274  11.142  11.525   0.274 -0.0926 -0.1316 -0.1869
10466W        W26275  14.514  10.494  10.504  0.2102 -0.0302  0.0073
10467W        W26276   7.660  16.960   0.267  0.2792 -0.1186  0.0780
10468W        W26277   5.852   9.477   4.431  0.1145  0.1757  0.2424
10469W        W26278  11.594  13.325  15.348  0.0713  0.0451 -0.0295
10470W        W26279  15.648   5.570   1.172 -0.0267  0.2298  0.2498
10471W        W26280   5.071  14.125   3.645  0.2151  0.1362  0.0552
10472W        W26281   8.447  12.214  14.701  0.2577 -0.0431 -0.0453
10473W        W26282   7.564  13.132   2.881  0.1779 -0.0399 -0.2214
10474W        W26283  10.505  13.975   4.269  0.1354 -0.1964  0.0486
10475W        W26284  17.029   2.895   1.428 -0.4471  0.1016  0.0500
10476W        W26285  12.916   7.888  11.648 -0.1103 -0.2784  0.3666
10477W        W26286  10.837  11.205   1.597 -0.0314 -0.1756 -0.3877
10478W        W26287   4.316  10.343   0.593 -0.0318  0.1321  0.3076
10479W        W26288  15.377  12.659   2.896  0.0912  0.2153  0.2339
10480W        W26289   8.245   3.256   0.064 -0.3853 -0.2185  0.2775
10481W        W26290   2.970   3.056  11.696 -0.1286 -0.0790 -0.0233
10482W        W26291   1.275  17.585   0.318  0.0329  0.0163  0.0948
10483W        W26292  15.426   4.110   0.836 -0.1652  0.0000  0.2404
10484W        W26293   8.533  11.424   4.038  0.1450  0.1322 -0.0281
10485W        W26294   9.438   6.315  14.337 -0.1722 -0.2080  0.0713
10486W        W26295  15.209   1.757   1.295  0.1303 -0.2192 -0.0299
10487W        W26296  17.400  15.438   0.592  0.4148 -0.1774 -0.0564
10488W        W26297  16.691   2.032   1.783 -0.2097 -0.0135 -0.1054
10489W        W26298  14.715  16.810   1.325 -0.0360 -0.1565  0.0489
10490W        W26299   2.670   6.228   4.903 -0.0704  0.0855 -0.0130
10491W        W26300   1.251   0.239  15.716  0.0873  0.0914 -0.1317
10492W        W26301  12.878  18.062   0.386  0.2112 -0.0969 -0.2861
10493W        W26302   6.725  16.224  15.551  0.1892  0.2799  0.2042
10494W        W26303  12.590   1.099  14.486 -0.1060  0.1802 -0.0178
10495W        W26304  12.664  10.196  15.982  0.1251  0.3969  0.0357
10496W        W26305  16.727   4.879   0.103  0.3200 -0.2537 -0.0183
10497W        W26306  15.955   1.795  14.806  0.0792  0.1354  0.0102
10498W        W26307  10.416  16.274   4.969 -0.1898  0.0998 -0.4527
10499W        W26308  18.137  16.168   2.734 -0.0811 -0.0785 -0.0665
10500W        W26309  13.329  14.850   0.669 -0.1675 -0.2464  0.0464
10501W        W26310  11.807  10.780  12.199  0.1629 -0.1235 -0.3765
10502W        W26311   3.202  10.300  13.232 -0.0286  0.0374  0.0594
10503W        W26312   4.192   7.186   0.364  0.0789  0.3516 -0.1209
10504W        W26313  15.203  13.844   5.281  0.1016  0.0414  0.4191
10505W        W26314  13.181   8.059  12.209 -0.0179 -0.1227 -0.1235
10506W        W26315  17.744  14.535  11.737  0.2391 -0.3845 -0.1676
10507W        W26316   3.647  12.654   2.062  0.2371  0.1463 -0.1101
10508W        W26317  15.327   1.373   0.864  0.0937 -0.0114  0.3467
10509W        W26318  14.676  12.019   1.478 -0.0781 -0.2212  0.2316
10510W        W26319   5.014   1.410  12.472 -0.3654  0.0504  0.0286
10511W        W26320   7.165  16.373   0.323 -0.0731  0.2311 -0.1743
10512W        W26321  12.249   4.722  14.524  0.1166  0.1544  0.3014
10513W        W26322  16.520   5.577   3.168 -0.0434  0.0654  0.2662
10514W        W26323  11.226   0.568   4.522  0.1089 -0.1015  0.1930
10515W        W26324  17.163  17.437   0.963  0.0804 -0.1939 -0.1697
10516W        W26325   2.894   1.763   2.971  0.0925  0.2182 -0.1870
10517W        W26326   5.405   6.117   3.276  0.2226 -0.0781  0.1036
10518W        W26327   4.521   1.072  12.219  0.2909 -0.0264 -0.1335
10519W        W26328  11.856  17.862  14.951  0.0683 -0.0179  0.0261
10520W        W26329   1.989  16.562   5.438  0.0954  0.2214 -0.2531
10521W        W26330   1.984   2.462   0.062 -0.2205  0.3426  0.2418
10522W        W26331  15.035   6.832  13.515 -0.1553 -0.2046  0.1663
10523W        W26332   1.359   6.683   1.903 -0.1909  0.0928  0.2749
10524W        W26333  14.624   2.725   3.651 -0.1693  0.0018  0.0174
10525W        W26334  11.646   6.969   1.783  0.0003 -0.0711  0.1911
10526W        W26335  10.455  14.970   1.029 -0.1207 -0.0808  0.0100
10527W        W26336  15.676  18.179  15.117 -0.1522 -0.1060 -0.3918
10528W        W26337  17.438   4.940  12.501 -0.1639 -0.4321 -0.0575
10529W        W26338   7.550   8.100   4.254 -0.0750  0.2230 -0.0447
10530W        W26339  16.851   9.028   2.769 -0.0319 -0.0296 -0.5025
10531W        W26340  17.725  17.015   1.630  0.1483 -0.1695  0.0104
10532W        W26341   2.021  11.812  14.944  0.4914  0.0331 -0.3954
10533W        W26342   6.595  16.458   2.934  0.3396  0.3373  0.2762
10534W        W26343   9.934   0.087  15.803 -0.1104 -0.1532 -0.3075
10535W        W26344  16.561  12.368  12.120  0.3503  0.2630 -0.0352
10536W        W26345  16.048   8.981   1.226 -0.1342  0.0943  0.1473
10537W        W26346   4.186   6.792  14.168 -0.2882 -0.2162  0.1398
10538W        W26347   4.455  11.808   2.267 -0.0209 -0.0106 -0.2758
10539W        W26348   3.925   5.015   0.353 -0.1688 -0.0808  0.1986
10540W        W26349  13.691   4.162  13.303  0.1906  0.0501 -0.1467
10541W        W26350   4.871   4.563   4.007 -0.0126 -0.1468  0.0727
10542W        W26351   3.664  14.974   3.828 -0.0101 -0.1046  0.1107
10543W        W26352   0.833   2.208   5.351 -0.1318  0.0018 -0.1354
10544W        W26353   0.261   8.871   5.687 -0.1762  0.3978  0.3602
10545W        W26354   3.167   2.192  14.344  0.1007  0.2217 -0.0181
10546W        W26355  15.736   0.873  11.702  0.2390 -0.1151  0.0306
10547W        W26356   6.179   4.033   0.998 -0.0020 -0.0800  0.0208
10548W        W26357  13.497  13.793   2.731  0.1207  0.0816 -0.0058
10549W        W26358  13.988  11.461   3.472 -0.2628 -0.0038 -0.1010
10550W        W26359  15.016   2.785  14.571 -0.3504 -0.0533  0.1279
10551W        W26360  17.941  13.066  14.520  0.4354  0.0139 -0.0572
10552W        W26361  10.399   2.352  15.285  0.2165 -0.1691  0.1098
10553W        W26362   4.328   0.870   5.601  0.2713 -0.1955  0.3495
10554W        W26363   0.101   9.004  11.250  0.0619 -0.0587  0.0933
10555W        W26364   7.644   1.910  12.235  0.2412  0.3269 -0.1234
10556W        W26365  15.680  17.489   0.568 -0.1050 -0.0052 -0.2151
10557W        W26366  10.153  11.915   4.204  0.0807  0.0401  0.0781
10558W        W26367  10.574   0.531  11.644 -0.0826  0.0030  0.0523
10559W        W26368  10.936   4.237   2.334 -0.0910  0.1251  0.2325
10560W        W26369   9.963   9.629   3.061  0.0089  0.1674 -0.0330
10561W        W26370  16.752  11.040  14.104  0.0344  0.0595 -0.0757
10562W        W26371   4.506   3.810   4.078 -0.0103 -0.3118 -0.0032
10563W        W26372  14.336  15.937  13.530  0.1413 -0.0695 -0.3613
10564W        W26373  12.114   6.512   4.435 -0.0953 -0.1258  0.0498
10565W        W26374  15.229   2.916   0.570 -0.0329 -0.1185 -0.2134
10566W        W26375   3.356   1.563   3.016 -0.1147 -0.1724  0.3274
10567W        W26376   7.743   9.332  10.808  0.3224 -0.1242  0.1811
10568W        W26377  13.643  16.891   4.145 -0.3495 -0.0525  0.0247
10569W        W26378   0.539  18.145  15.917  0.1980 -0.0237 -0.0205
10570W        W26379   2.788   8.919   2.766  0.0979 -0.0298 -0.0703
10571W        W26380   7.052  17.746  14.795  0.0446  0.1265  0.1323
10572W        W26381   7.195  15.741   4.912  0.1667 -0.0254 -0.0447
10573W        W26382   7.066  14.916   2.020 -0.0351  0.1164 -0.1142
10574W        W26383  10.150   8.441  13.634 -0.0590 -0.2337  0.1415
10575W        W26384   0.179  15.070   1.891  0.0546 -0.1224  0.0332
10576W        W26385  14.797   2.459  14.993 -0.0789  0.3408  0.2711
10577W        W26386  11.696   7.924   5.409  0.0359 -0.1970  0.2725
10578W        W26387  13.256  11.728   1.436  0.1865 -0.0586 -0.2099
10579W        W26388  15.539  12.447  15.468 -0.0567  0.2481 -0.3011
10580W        W26389   4.133  15.567   1.021 -0.0907  0.0333  0.1097
10581W        W26390  15.851   4.340   5.232  0.4913 -0.0046 -0.0725
10582W        W26391  13.469  12.868  14.036  0.0945  0.1735  0.0111
10583W        W26392   3.511   8.630   2.973 -0.0625  0.2091  0.0653
10584W        W26393  10.548   5.496   0.616 -0.1027  0.2918  0.0557
10585W        W26394   1.784  15.020   0.740  0.1525  0.1252  0.1934
10586W        W26395   2.149  15.263  11.452  0.2591  0.1737  0.1773
10587W        W26396  12.349  12.710  11.529  0.4699 -0.0310 -0.2133
10588W        W26397  14.653  17.323   4.463  0.0166  0.3240 -0.1418
10589W        W26398   7.883  12.695   2.083 -0.0685 -0.2532  0.0876
10590W        W26399   1.147   3.078   0.037 -0.1982 -0.0765 -0.1141
10591W        W26400   0.110   3.213   3.613  0.1619 -0.1442  0.1319
10592W        W26401  15.947  14.342  14.224 -0.1534 -0.0749  0.2721
10593W        W26402  12.269   9.541   3.157 -0.3052  0.2000  0.0386
10594W        W26403   3.733  15.546  12.920 -0.0300 -0.2693  0.0947
10595W        W26404   0.883  18.100   2.838  0.3605  0.0937  0.2140
10596W        W26405   6.962   3.176   4.221  0.0547 -0.1250  0.0508
10597W        W26406   0.123   2.848  11.096  0.0221  0.0540  0.1392
10598W        W26407   5.735   0.161  14.903 -0.2146 -0.2899  0.0644
10599W        W26408  14.208  16.554  12.809  0.0370  0.0932  0.0672
10600W        W26409   5.801   6.396   5.556  0.2409  0.0780 -0.1160
10601W        W26410   4.623   9.157   1.479  0.0385  0.0821  0.0793
10602W        W26411  17.151  12.594   1.358  0.0386  0.2448 -0.1225
10603W        W26412  16.201   2.504   2.193  0.2638 -0.0913  0.0392
10604W        W26413   8.372  10.223   1.450  0.2124 -0.1108  0.0788
10605W        W26414  11.980  11.318  15.924 -0.0744 -0.1151 -0.0386
10606W        W26415   2.197  14.380  14.199 -0.3383 -0.1039 -0.1561
10607W        W26416  13.718  15.154   2.024  0.2867  0.1550  0.1736
10608W        W26417   4.307   5.929   4.880  0.1610 -0.0317 -0.3500
10609W        W26418   2.479   6.771  15.677 -0.0717  0.0290  0.1419
10610W        W26419   4.021   7.679   5.006  0.3251 -0.0137  0.0375
10611W        W26420  17.190  11.842  14.007 -0.3733 -0.0345 -0.0065
10612W        W26421   9.309  14.230   2.211  0.2534 -0.0068 -0.1824
10613W        W26422   9.509   3.982  12.685  0.3336 -0.3132 -0.3051
10614W        W26423   2.603   4.527   3.589 -0.2453  0.3565  0.5179
10615W        W26424   9.024   3.742  14.784 -0.2474  0.2119 -0.4069
10616W        W26425   0.416   6.711   2.279 -0.0158 -0.1164 -0.1741
10617W        W26426   0.177  16.829  11.684 -0.1669 -0.0282 -0.0438
10618W        W26427   5.955   2.252  15.447 -0.1876  0.2427 -0.2923
10619W        W26428   7.588   3.118  14.605 -0.1104 -0.0120 -0.2713
10620W        W26429  10.380  13.497   3.680  0.1543  0.0513 -0.1699
10621W        W26430   7.672   8.132   1.280 -0.0497 -0.1560 -0.3904
10622W        W26431  14.924  13.919  12.051  0.0276  0.1998  0.1487
10623W        W26432  12.612  10.058   2.509 -0.1576  0.1095 -0.0283
10624W        W26433  14.457  13.613   0.860 -0.2564  0.0554 -0.1000
10625W        W26434  11.886  12.326   3.923  0.1567  0.3310 -0.0659
10626W        W26435  11.614   9.658   2.598  0.0410 -0.0128  0.3830
10627W        W26436   0.699   1.309  15.501 -0.0039  0.0245  0.0231
10628W        W26437   3.575   7.538  14.466 -0.2159 -0.2016  0.1021
10629W        W26438   2.352   9.901  16.069 -0.1599 -0.0578  0.0742
10630W        W26439   1.790   4.178  11.211 -0.2540  0.3364  0.0198
10631W        W26440  14.651   5.074  14.587  0.0994  0.1568  0.0024
10632W        W26441   7.153  13.737  10.228  0.0273  0.0198 -0.2551
10633W        W26442   5.287  11.908  15.825  0.0965  0.0050  0.0957
10634W        W26443   3.113   5.906  11.978 -0.0168  0.1580 -0.0402
10635W        W26444   1.762  10.867  12.401  0.2979 -0.0095  0.3013
10636W        W26445  14.668  14.450  15.831  0.2446  0.0189  0.1561
10637W        W26446  16.446  12.507   4.684  0.0504 -0.0154  0.4303
10638W        W26447  13.432  15.153  12.847 -0.4971 -0.1043  0.0059
10639W        W26448   4.700   8.831   3.003 -0.0801  0.0422 -0.0785
10640W        W26449   5.217  14.443  15.048  0.0209 -0.0792 -0.3297
10641W        W26450   0.009   8.740   5.206 -0.3391  0.2690  0.1948
10642W        W26451   5.545  16.242  10.901  0.0793  0.1586 -0.0980
10643W        W26452   1.280   7.986  12.495  0.0474 -0.0703 -0.1189
10644W        W26453  15.065   9.529  12.547  0.0930 -0.0268 -0.0576
10645W        W26454  18.011   5.665   0.117 -0.1665  0.0216 -0.0429
10646W        W26455  15.943   8.900   2.463  0.0675  0.1043 -0.1332
10647W        W26456   8.588   5.713  15.178 -0.0575  0.0306  0.0818
10648W        W26457  12.666   4.546   0.323 -0.3940  0.0720  0.3885
10649W        W26458   6.028  10.048   0.796 -0.0456  0.0008 -0.0418
10650W        W26459   7.820  16.348  11.640  0.2562  0.1222  0.1093
10651W        W26460  10.522  13.544   1.742 -0.2923 -0.4478 -0.2207
10652W        W26461   5.898   0.298   4.738 -0.2306 -0.2952 -0.0152
10653W        W26462  10.918  16.800  14.609 -0.1987 -0.2694  0.0062
10654W        W26463   6.418  15.385   5.288 -0.1821 -0.0091 -0.0440
10655W        W26464   1.420  13.154  12.847  0.0973  0.0615 -0.2152
10656W        W26465   5.455  14.415   3.870 -0.2533 -0.2495  0.1100
10657W        W26466  13.151   9.684   5.149  0.0324  0.0841  0.3309
10658W        W26467   5.932   2.598   9.915 -0.1485 -0.0861  0.0745
10659W        W26468  12.878   7.816   3.385  0.3548 -0.2603  0.0608
10660W        W26469   6.889  15.455   4.557  0.1218  0.0562 -0.0914
10661W        W26470  12.176   2.494  11.057 -0.0220 -0.0308  0.0332
10662W        W26471  16.722   6.713  15.841  0.0352  0.0263 -0.1947
10663W        W26472  10.835  12.578  10.309 -0.0898  0.1591  0.1673
10664W        W26473   4.639   8.861   0.459  0.0669 -0.0972 -0.0451
10665W        W26474  16.526   4.327  15.791 -0.2286 -0.1447 -0.0425
10666W        W26475   4.297  14.279  14.818 -0.0406  0.3533  0.1807
10667W        W26476   7.168   3.576  11.810  0.2801 -0.3390 -0.2624
10668W        W26477   6.291   0.725  13.801  0.0101  0.2978  0.2024
10669W        W26478  10.603  12.471  14.122  0.1253  0.3484  0.0467
10670W        W26479   4.392   4.674   3.214  0.0228 -0.0851  0.0605
10671W        W26480  10.230  12.790  11.649  0.0774 -0.1880 -0.2268
10672W        W26481  16.099  17.357  14.716  0.0461  0.1348  0.1231
10673W        W26482   4.179  10.637   5.471  0.0319 -0.1193  0.3174
10674W        W26483  12.962  13.504  10.787 -0.1804  0.4353 -0.1591
10675W        W26484   9.517  11.432   2.291  0.2561  0.1796 -0.2135
10676W        W26485  11.454   3.216  14.581 -0.0222  0.0699  0.1597
10677W        W26486   8.163   5.206  12.548 -0.1982 -0.0935 -0.5360
10678W        W26487   7.103  14.121   0.970  0.0921  0.0678  0.0684
10679W        W26488   4.092  15.775  11.533  0.4468 -0.3708 -0.2484
10680W        W26489  10.855   2.524  11.500 -0.3130  0.1884  0.1440
10681W        W26490   6.251   5.403   5.003  0.0072  0.0236 -0.1707
10682W        W26491   8.624  12.710   3.322  0.2277 -0.2638  0.0551
10683W        W26492   1.591  10.768  10.749  0.0571 -0.1133 -0.1882
10684W        W26493  17.167   6.938  15.693  0.0422  0.1368 -0.3315
10685W        W26494  10.219   5.075   3.788  0.0768  0.0574 -0.1519
10686W        W26495   7.701   3.746   4.468 -0.1415  0.1566 -0.2641
10687W        W26496   8.283   0.032  12.391 -0.2114 -0.1124 -0.1022
10688W        W26497  13.011   5.494   0.130  0.3057  0.0316  0.1077
10689W        W26498  13.581  15.048   4.953 -0.1233  0.1148 -0.0179
10690W        W26499  15.096  14.194   3.149  0.0885 -0.1034  0.1247
10691W        W26500   1.929   4.440  14.615 -0.0096 -0.0823 -0.2065
10692W        W26501  16.498  18.263  12.642  0.3183  0.0181 -0.0532
10693W        W26502   7.739   5.374  11.568  0.2338 -0.1135  0.1082
10694W        W26503   0.072   1.162   5.580  0.0648  0.0480 -0.1391
10695W        W26504   1.165   1.238  13.858  0.2485  0.0567 -0.2602
10696W        W26505   5.494   0.471  12.198 -0.0148 -0.0003  0.0570
10697W        W26506  14.898  13.752  13.829  0.2567  0.0125 -0.3771
10698W        W26507   8.792  17.714   1.229 -0.0705  0.1226 -0.0790
10699W        W26508  18.069  12.077   0.898 -0.3260 -0.1573  0.0811
10700W        W26509   4.268  12.018   5.300  0.1865  0.1882 -0.0738
10701W        W26510   8.293   7.844   4.660 -0.1940  0.0447 -0.1708
10702W        W26511   6.097   6.821   3.600  0.3075  0.3045 -0.1899
10703W        W26512   6.002  18.031   6.053  0.0243 -0.3051 -0.0175
10704W        W26513  14.271  10.315   1.729  0.2628 -0.0691  0.1031
10705W        W26514   8.995  13.690   4.084  0.1478  0.1734 -0.0990
10706W        W26515   0.152   1.473   1.447 -0.0907  0.1449 -0.0514
10707W        W26516   4.923  14.152   4.966  0.0229  0.1962  0.0304
10708W        W26517   6.663   9.000  11.197  0.3234  0.1170 -0.1520
10709W        W26518   5.668  17.247  11.960  0.1166  0.2338  0.1196
10710W        W26519  10.378   2.889   5.404 -0.0337 -0.0985 -0.2914
10711W        W26520  13.860   3.000   4.084 -0.0081  0.1358 -0.0392
10712W        W26521   7.536   4.799   1.373  0.0042  0.4174  0.0651
10713W        W26522   0.602   1.364   3.614 -0.0655  0.2332  0.2130
10714W        W26523   5.618  16.258   1.863 -0.1278  0.2848  0.0072
10715W        W26524  17.454   1.221   2.404  0.0312 -0.1365 -0.0976
10716W        W26525  15.361  16.484   5.644  0.0132 -0.1442  0.0306
10717W        W26526  14.564   7.080   0.719 -0.2258  0.4029 -0.0235
10718W        W26527  11.420   5.276  13.677 -0.0667 -0.2316 -0.0205
10719W        W26528  12.707   6.742   0.536  0.1494 -0.0594 -0.0432
10720W        W26529  13.239  17.032   5.400 -0.0012 -0.0563 -0.0912
10721W        W26530  10.195  11.859  13.560 -0.1020  0.0074 -0.1345
10722W        W26531   4.542   5.084  12.464 -0.0121  0.0568  0.2036
10723W        W26532   6.387  11.017   5.705  0.0928  0.3662  0.0700
10724W        W26533   5.526   3.477   3.896  0.0647  0.0955 -0.0721
10725W        W26534   8.109   9.947  11.692 -0.0752  0.0034 -0.1361
10726W        W26535   9.924   2.398  14.996 -0.0599 -0.3227  0.0682
10727W        W26536   7.790   2.516   5.119 -0.0666 -0.3495  0.0752
10728W        W26537   1.153   0.453   3.413  0.1432 -0.2986 -0.2253
10729W        W26538  11.514  11.406   4.422 -0.1867 -0.3436 -0.1031
10730W        W26539  10.814   9.466  12.213  0.0597  0.1692 -0.0591
10731W        W26540   7.725  14.474  14.551 -0.0091  0.2710  0.0287
10732W        W26541  18.236   6.948  15.751 -0.1030 -0.2868  0.3872
10733W        W26542   8.537  15.991   0.541  0.1604 -0.2241  0.1989
10734W        W26543   3.317  10.241   4.863  0.2315  0.0183 -0.0945
10735W        W26544   6.586   8.909  13.298 -0.1209 -0.1518 -0.1854
10736W        W26545  10.647   8.901   0.229 -0.2129  0.2426 -0.0462
10737W        W26546   1.522  16.423  11.393  0.1105 -0.1564 -0.1303
10738W        W26547   2.558  11.890   3.961 -0.3474 -0.2495  0.2213
10739W        W26548   9.982  17.831   2.980 -0.0501 -0.2361  0.0372
10740W        W26549   1.983  16.508  11.166  0.0586  0.0713 -0.0255
10741W        W26550   0.053   9.155   4.770 -0.0711 -0.0707 -0.3964
10742W        W26551  10.554   8.269   3.063  0.0398  0.0822 -0.1102
10743W        W26552   3.468   2.654   2.561  0.0512  0.4306 -0.0560
10744W        W26553   2.790  13.183  14.780 -0.0602 -0.0253 -0.0152
10745W        W26554  12.385  14.378   1.612 -0.0745  0.2514  0.2973
10746W        W26555   1.474   7.259  13.772 -0.1520  0.0919 -0.3467
10747W        W26556   1.648  18.184   5.224  0.1924 -0.0155  0.0341
10748W        W26557  17.421   0.880   5.693  0.0579 -0.1493 -0.1698
10749W        W26558   6.513   5.987  14.906 -0.0133  0.0662 -0.1188
10750W        W26559   2.414   6.906   2.847  0.1994  0.0153 -0.1007
10751W        W26560   6.062  16.210  14.867  0.4289 -0.0153  0.0332
10752W        W26561   2.149   9.417  14.715  0.1146 -0.1732 -0.1963
10753W        W26562  12.222   1.930  12.876  0.0611 -0.1000 -0.1361
10754W        W26563   9.474  13.106   4.903 -0.2436 -0.0439 -0.0219
10755W        W26564   8.185   3.878  12.631 -0.1769 -0.0218  0.0668
10756W        W26565   9.245  15.880   4.768 -0.1223  0.3284 -0.0667
10757W        W26566  16.875   9.339  12.772  0.0929  0.1043 -0.1933
10758W        W26567   0.831   4.902   3.548 -0.2807  0.1032  0.0908
10759W        W26568   0.081  12.996  15.226 -0.1139  0.2474 -0.1915
10760W        W26569   3.177   6.347   2.315  0.1784 -0.0316  0.1719
10761W        W26570  14.450   7.947   0.396 -0.0247 -0.0966 -0.1967
10762W        W26571  14.019  12.554  14.733 -0.1788  0.1286  0.0933
10763W        W26572   7.791   9.066  14.910 -0.1150  0.0085 -0.1918
10764W        W26573   8.916   7.188  14.180 -0.0484 -0.1368  0.1023
10765W        W26574   0.364  10.826   3.068 -0.0889  0.3703 -0.2255
10766W        W26575  16.243  15.425   3.297  0.0103  0.0383  0.1547
10767W        W26576   4.352  11.557  11.375 -0.1331  0.1478 -0.0407
10768W        W26577  15.451   8.363   5.071 -0.0864 -0.1472  0.2405
10769W        W26578   7.162   4.764  13.118 -0.0898  0.2190  0.1558
10770W        W26579   9.325   2.742   3.650  0.4686  0.2553 -0.2824
10771W        W26580   0.420  10.654   3.927  0.0983 -0.0195  0.3000
10772W        W26581  13.716   4.758  14.181  0.0887  0.0174 -0.0278
10773W        W26582   6.418  11.623   0.842 -0.0278  0.3599  0.0585
10774W        W26583  16.295  11.665   0.502  0.0180  0.0647 -0.0471
10775W        W26584   1.417   6.949   0.951  0.0345 -0.1919  0.0627
10776W        W26585  15.862   1.646  11.356 -0.2439  0.0635 -0.1438
10777W        W26586  10.087  12.416   4.176 -0.0741  0.0820 -0.0637
10778W        W26587  13.334  17.681   3.398 -0.1760  0.0361  0.3016
10779W        W26588   2.677   9.801   0.896  0.0432  0.3729 -0.3323
10780W        W26589   4.065  15.083  12.220 -0.2720 -0.0597  0.1237
10781W        W26590  18.115  11.747  13.089  0.0767  0.0138  0.5490
10782W        W26591  17.311  16.274  13.170  0.0010 -0.0943  0.2452
10783W        W26592  17.109  16.319  12.298  0.1432  0.0091 -0.1301
10784W        W26593   5.715   5.672   0.889 -0.2102  0.1507  0.2217
10785W        W26594  13.342  17.595  13.939  0.0006  0.1689 -0.1467
10786W        W26595  13.368   7.963   2.164  0.0169 -0.2175  0.0816
10787W        W26596   3.110   7.676  14.355 -0.0571  0.0410 -0.1508
10788W        W26597  13.357  15.451   2.894 -0.2294 -0.0878  0.1808
10789W        W26598   8.376   8.152  14.355  0.2412 -0.0666  0.1372
10790W        W26599  11.591  14.187   4.740  0.0619 -0.1595 -0.0318
10791W        W26600  12.128  10.016  14.527  0.0240  0.2137  0.2499
10792W        W26601   4.628  13.259   5.876  0.0052  0.2565  0.2621
10793W        W26602   2.474  16.949   0.128 -0.1053 -0.0702  0.0864
10794W        W26603  16.232   0.857  14.843  0.0173 -0.2110 -0.0670
10795W        W26604  10.460   7.273   3.266  0.3067  0.3439  0.0073
10796W        W26605   3.262   9.798  14.490 -0.1519  0.1374  0.3511
10797W        W26606  10.344  10.339   5.100  0.0278  0.1063  0.4714
10798W        W26607   8.579   5.631   4.854  0.0785 -0.1398  0.0957
10799W        W26608   8.361  16.244   2.809 -0.4195 -0.1740  0.2362
10800W        W26609  12.248   7.224   2.351 -0.1970  0.2509  0.2286
10801W        W26610  16.662  14.691   1.549  0.1841  0.2012  0.1690
10802W        W26611  15.318   9.783  15.566 -0.0580 -0.3414 -0.1631
10803W        W26612  11.704   2.412   2.916 -0.2578 -0.1448  0.1380
10804W        W26613   3.473   8.945   1.384  0.1083 -0.3447 -0.1136
10805W        W26614  15.828   8.115   0.139 -0.1009 -0.0999  0.0441
10806W        W26615   1.129  16.614   3.885  0.1732 -0.3651  0.0130
10807W        W26616   4.399   4.387   0.867  0.3461  0.3450  0.1825
10808W        W26617  12.295  10.781  14.636  0.3535 -0.0738  0.4774
10809W        W26618   6.081  12.218   0.259  0.1500 -0.1442 -0.2141
10810W        W26619   3.345   0.072   0.750  0.1156 -0.0634 -0.1295
10811W        W26620   9.869  12.004   1.326 -0.0074 -0.6111 -0.2183
10812W        W26621   8.059  12.655   0.910  0.0297 -0.1665  0.1811
10813W        W26622   7.069  12.744   2.386  0.3460 -0.0695 -0.1338
10814W        W26623  10.490  12.002   0.021  0.1015 -0.0442  0.2207
10815W        W26624  16.503   5.063  12.198 -0.1241  0.3668 -0.0353
10816W        W26625  18.205   3.742  15.963  0.2335  0.1191 -0.2672
10817W        W26626   1.896  18.095   4.787 -0.1181 -0.0025 -0.0100
10818W        W26627  11.564  10.657   0.426 -0.2280 -0.2637 -0.0414
10819W        W26628   3.905  11.883   3.995 -0.2855  0.0386 -0.4070
10820W        W26629  14.730   8.985  11.420 -0.0585 -0.1166  0.1294
10821W        W26630   4.349  14.109   4.692  0.0022  0.1768  0.3657
10822W        W26631  14.078   5.649  11.582 -0.2297 -0.0241 -0.1131
10823W        W26632   0.805   2.929   4.690 -0.4434  0.3755  0.1588
10824W        W26633  16.666   7.168  15.840 -0.2740 -0.0614  0.1718
10825W        W26634  14.818   0.248   3.944 -0.3500  0.1448  0.0560
10826W        W26635  14.947   7.985   0.718 -0.1399  0.2844 -0.0211
10827W        W26636  10.435   5.925   1.377  0.0632 -0.1759  0.0205
10828W        W26637   2.123   1.735   4.357 -0.2744 -0.0571  0.1355
10829W        W26638  14.688  12.404  13.261  0.0786 -0.2924  0.0420
10830W        W26639  11.091  18.208  14.552  0.1799  0.2517 -0.2309
10831W        W26640   0.617  10.266   4.275  0.2119 -0.4360 -0.0190
10832W        W26641  13.676   3.076  14.953  0.0606 -0.0913  0.2069
10833W        W26642   2.632   6.501   2.374 -0.0625 -0.0558 -0.0532
10834W        W26643  10.402   1.383  15.691 -0.3314  0.1366  0.0871
10835W        W26644   1.791  17.288   3.648  0.0596 -0.0438 -0.2239
10836W        W26645   9.977   7.171   3.388 -0.1037  0.5341  0.1405
10837W        W26646  13.016   2.775   1.065  0.0207 -0.0075  0.0745
10838W        W26647   4.731  12.048  14.460 -0.0908 -0.0566 -0.0845
10839W        W26648  11.901   4.776  13.163  0.0085  0.0297  0.1825
10840W        W26649  11.947   8.426   4.517 -0.0033  0.1937  0.1364
10841W        W26650   4.046   7.909  12.812 -0.1633 -0.0759  0.1152
10842W        W26651   3.612   3.140  15.376 -0.1612  0.1817 -0.4859
10843W        W26652  13.141   6.064  12.938 -0.2575 -0.0276  0.1250
10844W        W26653   6.626  18.248  15.909  0.1078 -0.0283 -0.5757
10845W        W26654  17.787  11.053  14.678  0.0291  0.0512 -0.2198
10846W        W26655   6.561   0.237   5.331  0.4792  0.1321 -0.1176
10847W        W26656   5.298   4.327   1.261 -0.3064  0.0217  0.2254
10848W        W26657   8.961   6.650  11.864  0.1556 -0.2870 -0.1750
10849W        W26658  17.815  17.147   4.096 -0.3330  0.0474 -0.1901
10850W        W26659  17.138  12.381   1.793  0.1913 -0.3425 -0.0024
10851W        W26660   7.446   8.632   2.849 -0.2650 -0.1852  0.0087
10852W        W26661  10.250   8.156   1.833 -0.0096  0.1926  0.0692
10853W        W26662   8.984   1.779   3.379 -0.2052  0.2341  0.0085
10854W        W26663  11.275   9.899  11.048 -0.3738 -0.2768  0.2570
10855W        W26664  11.919   7.843  11.553 -0.2001 -0.0165 -0.1184
10856W        W26665   0.632   2.271   3.992 -0.3851  0.3205  0.3072
10857W        W26666   0.230   6.518  15.905 -0.0233  0.1067  0.1129
10858W        W26667  17.927  17.840   6.072  0.0300  0.1906 -0.4056
10859W        W26668   4.163   5.677  13.727  0.0432 -0.0102 -0.0140
10860W        W26669   7.977   2.658   3.757  0.0963  0.0756  0.1251
10861W        W26670  17.998   6.598   0.067 -0.1058  0.0992  0.2480
10862W        W26671   4.179  12.871  12.881 -0.0144 -0.0593 -0.0957
10863W        W26672  12.860   9.156  13.934 -0.3640  0.1928 -0.1044
10864W        W26673   0.562   9.915  12.090  0.1358  0.0588  0.0438
10865W        W26674  14.871  14.272  15.184 -0.3121 -0.1550  0.0698
10866W        W26675   0.518  12.993   3.815  0.2122  0.1403  0.1081
10867W        W26676   5.011  16.898   4.943 -0.3346  0.0670 -0.1525
10868W        W26677   1.531  15.849   2.013  0.0735 -0.0387 -0.2125
10869W        W26678  13.976   9.303  11.885  0.1272 -0.1165 -0.0216
10870W        W26679   9.034  10.977  11.200  0.0920  0.0750 -0.0129
10871W        W26680  13.247   1.178   2.819 -0.1060 -0.3067 -0.1357
10872W        W26681   7.270   7.910   5.555  0.0121 -0.0730  0.1739
10873W        W26682  11.108   6.361   4.819  0.1808  0.0754  0.1025
10874W        W26683   4.554  10.501  12.266 -0.0163  0.0214 -0.0711
10875W        W26684   0.895   6.511  15.600 -0.2876 -0.0065 -0.3156
10876W        W26685   9.488  15.502   5.007  0.1397  0.2414 -0.1303
10877W        W26686   0.983   6.551   5.567 -0.3845 -0.1096  0.1207
10878W        W26687   7.117  17.408   1.929 -0.1637  0.0889 -0.0971
10879W        W26688  12.199   7.409  12.124 -0.0462 -0.0135 -0.2037
10880W        W26689  12.544  10.416   2.915 -0.0548  0.2525  0.0608
10881W        W26690   6.010   5.940   3.000 -0.1826  0.0421  0.2152
10882W        W26691   2.502  11.499   4.620 -0.0097  0.0501 -0.1970
10883W        W26692  16.809  11.437  14.597 -0.0780 -0.3171  0.0720
10884W        W26693   8.866  13.503  14.048  0.0898 -0.0159  0.1852
10885W        W26694  12.557  14.702  11.210  0.0201  0.0575 -0.0096
10886W        W26695  16.134   0.402   2.512  0.1027 -0.1335 -0.2689
10887W        W26696   4.145   6.219  11.364 -0.1875  0.0165 -0.2928
10888W        W26697   2.488  11.445   3.641  0.0388 -0.0133  0.0412
10889W        W26698  12.877  17.708  14.129 -0.4248  0.3241 -0.2054
10890W        W26699  15.304  11.719  11.781 -0.2123  0.0761 -0.0468
10891W        W26700   9.043  15.852   3.634 -0.1396  0.0677  0.3716
10892W        W26701  11.101   5.445  14.180 -0.0837  0.2674 -0.1474
10893W        W26702   5.659   1.541  13.694  0.3272 -0.0500  0.1132
10894W        W26703   4.723   6.375   0.377  0.0288 -0.0675 -0.0251
10895W        W26704   2.931   4.588   2.786 -0.0616  0.0949  0.0088
10896W        W26705  12.900  14.149   4.372 -0.1480 -0.0018 -0.0154
10897W        W26706  10.370   5.651  10.138  0.0952 -0.0020  0.2619
10898W        W26707  18.118   2.715   3.801  0.1092  0.1543  0.2419
10899W        W26708   6.340  16.855   5.065  0.0882  0.0749 -0.1058
10900W        W26709   0.868   7.001   0.405  0.1857  0.1071 -0.0261
10901W        W26710   9.162   4.461  15.567  0.0610  0.0903 -0.1214
10902W        W26711   2.658   7.091  11.700 -0.1613 -0.0310  0.0995
10903W        W26712   2.864   7.686   0.653 -0.0949 -0.2278  0.1471
10904W        W26713   0.105   4.429  12.516  0.2460  0.0082 -0.5217
10905W        W26714   0.478   6.703   5.373  0.1495 -0.1791 -0.0431
10906W        W26715   6.389   6.297   5.353  0.1066  0.0906  0.2626
10907W        W26716   3.766   7.875   0.297  0.1168 -0.0298 -0.1948
10908W        W26717   0.586   3.364   3.833 -0.1383 -0.1145 -0.0331
10909W        W26718  16.539   4.037  11.387  0.2116 -0.2118  0.3410
10910W        W26719   4.927  11.169   2.887  0.2428 -0.1248 -0.0743
10911W        W26720  12.971   6.254   5.864 -0.3597  0.0312 -0.2708
10912W        W26721   8.421   6.382   1.478 -0.1690  0.0495  0.0489
10913W        W26722   8.740   3.863  14.396 -0.1689  0.0115 -0.1197
10914W        W26723   6.611   8.613  11.743  0.1871 -0.1205 -0.3095
10915W        W26724  14.097  11.484   4.532 -0.1386 -0.0510 -0.0529
10916W        W26725  17.998  11.307   3.626 -0.1466  0.0259 -0.0859
10917W        W26726   4.021   5.153   1.825  0.0739  0.0772  0.1786
10918W        W26727  16.686   2.536  14.947 -0.0148  0.0028  0.1239
10919W        W26728  17.894   8.149  11.736 -0.1924 -0.0184 -0.0556
10920W        W26729   9.682   8.542  15.404  0.1443  0.1389  0.2625
10921W        W26730   1.233   0.975  13.470  0.0978 -0.0232  0.0330
10922W        W26731  10.963  12.068  11.942  0.0401  0.1766  0.2291
10923W        W26732   6.465   1.664   0.647 -0.0574 -0.1392  0.0584
10924W        W26733  14.208   7.436  13.649  0.0511  0.0195 -0.1408
10925W        W26734   6.419  17.338  16.071 -0.1151 -0.0204  0.2729
10926W        W26735   0.751   3.885  15.683  0.0846  0.2478  0.0408
10927W        W26736  13.963   9.125  11.320 -0.0029 -0.0784  0.0280
10928W        W26737  12.138   4.411  15.414  0.0075  0.2257 -0.0160
10929W        W26738   5.618   3.951   4.059 -0.0013  0.0391  0.1267
10930W        W26739  12.552   8.356  14.522  0.2138 -0.1129  0.0337
10931W        W26740   2.057   0.372  14.302  0.1859  0.3527  0.3061
10932W        W26741  11.436   8.546   2.676 -0.1179  0.0469 -0.2166
10933W        W26742  17.252   9.850   4.537  0.1037  0.0878  0.1287
10934W        W26743   3.055  12.935   0.275 -0.3212 -0.1346 -0.0305
10935W        W26744  15.496   0.138  13.644 -0.0236  0.5619 -0.0537
10936W        W26745   4.064   5.811  11.652  0.1240 -0.3915  0.2588
10937W        W26746  15.342  10.990   1.390 -0.2180  0.1163 -0.1838
10938W        W26747  17.286   9.507   0.078 -0.1771 -0.4855  0.3460
10939W        W26748  12.616  13.335  13.978  0.1288 -0.0671 -0.3310
10940W        W26749  14.292  10.812   2.900  0.0231  0.0503 -0.0660
10941W        W26750   3.382  13.697  11.362 -0.2479  0.1809 -0.2177
10942W        W26751  16.047  13.751   4.014  0.2203  0.0806  0.0845
10943W        W26752  15.280   0.056  15.398 -0.0764  0.2030 -0.1038
10944W        W26753   7.258   1.691   0.394  0.1086 -0.0293  0.0429
10945W        W26754  14.755  15.803  13.129 -0.1929  0.0008  0.0400
10946W        W26755  14.306   0.378   5.650 -0.0549  0.2990  0.1074
10947W        W26756   6.381  14.409   4.106 -0.0470 -0.1657  0.0620
10948W        W26757  14.254  14.956  14.320 -0.1305 -0.1428  0.0769
10949W        W26758   6.077  16.444   3.135  0.3538 -0.0341 -0.0291
10950W        W26759   5.000   9.483   1.686 -0.0256 -0.3244 -0.4325
10951W        W26760   1.377   7.969   3.501  0.2112 -0.2031  0.0265
10952W        W26761   3.263   8.582  15.748 -0.4469 -0.2241  0.0680
10953W        W26762   6.877  16.865   3.059  0.1239  0.4390 -0.1551
10954W        W26763   3.915  10.018   2.115  0.2651  0.0303 -0.0210
10955W        W26764  16.316  17.512  12.249  0.2315 -0.1379 -0.1378
10956W        W26765  17.031  17.110  11.592 -0.0897 -0.1042 -0.3133
10957W        W26766  17.947  13.732  12.676  0.5363  0.2384  0.1579
10958W        W26767   3.725   9.019   4.163  0.2382 -0.1344  0.3150
10959W        W26768   9.970   3.630   0.477 -0.1429  0.2159  0.0195
10960W        W26769   3.152   6.686   0.752 -0.1352 -0.0436  0.0603
10961W        W26770  13.048   6.042   3.318  0.0098  0.2672  0.0459
10962W        W26771   4.827  13.395   3.075  0.0882  0.2400 -0.2132
10963W        W26772  17.448  16.482  15.539 -0.3507  0.1749  0.0261
10964W        W26773  11.162   6.991  12.252  0.0106  0.5248  0.0957
10965W        W26774  11.770  11.442  12.762  0.0334  0.2422  0.2232
10966W        W26775   3.137  16.498  13.126 -0.1121 -0.0330  0.0586
10967W        W26776  17.900   6.836   2.210 -0.1746  0.0779  0.2733
10968W        W26777  16.100  14.221   4.224  0.0310  0.0061  0.0336
10969W        W26778  11.606   9.545   1.646 -0.2446 -0.1665 -0.1270
10970W        W26779   6.677   3.406  13.010  0.0195  0.2920  0.0145
10971W        W26780   7.827  14.454  12.366  0.0182 -0.2022  0.1332
10972W        W26781   2.835   5.541  12.140  0.0029  0.1134 -0.0106
10973W        W26782   6.106   9.160  12.478 -0.2154 -0.0985  0.0502
10974W        W26783  10.034   6.746  13.603 -0.1346  0.0365 -0.3873
10975W        W26784   6.295   2.593  15.304 -0.0696 -0.0120 -0.3717
10976W        W26785   9.742  16.525  12.479 -0.1631 -0.0063  0.2250
10977W        W26786   0.636  12.226  11.474 -0.3397  0.3663 -0.1251
10978W        W26787  14.678  17.032   4.048  0.1984 -0.3301  0.0878
10979W        W26788  14.999   6.168   0.747  0.0186 -0.1482 -0.0515
10980W        W26789   1.882  12.556   5.977 -0.4127 -0.2128  0.0683
10981W        W26790   8.807   9.839   3.687 -0.0111  0.0421 -0.1656
10982W        W26791   7.054  12.081  12.412 -0.0570  0.2627  0.1572
10983W        W26792  16.462   2.984  15.042 -0.1877 -0.0716  0.0036
10984W        W26793   4.563   4.224  13.981  0.0474  0.2796 -0.3227
10985W        W26794   1.320  17.589  11.337 -0.0833  0.1647  0.1615
10986W        W26795   0.231  15.998   2.325 -0.1992 -0.1182  0.0214
10987W        W26796  18.060   1.706   4.897 -0.2031  0.0371 -0.0260
10988W        W26797  12.601   0.671   4.281  0.2315  0.0287 -0.0835
10989W        W26798  15.620  14.177   5.696  0.1061 -0.2441  0.2318
10990W        W26799   6.622   6.762  15.260 -0.0859  0.0676  0.2576
10991W        W26800   8.812   5.340   1.409 -0.1503 -0.0869  0.1073
10992W        W26801   6.589  14.353  14.206 -0.0206 -0.1312  0.3388
10993W        W26802  10.066  10.430  13.573  0.2951 -0.1790  0.2005
10994W        W26803  12.239   5.216  14.184 -0.0181 -0.0301 -0.2520
10995W        W26804   9.515  17.775   2.636  0.1695 -0.2005  0.3608
10996W        W26805   7.760  12.489  12.878 -0.1674 -0.2788 -0.1806
10997W        W26806   3.379   9.518  10.475 -0.0752  0.0620 -0.0551
10998W        W26807   4.969   6.624   1.969 -0.1010 -0.1961  0.2088
10999W        W26808  17.962  14.335   3.795  0.0184  0.1744  0.0366
11000W        W26809   2.809   7.207   1.932  0.2383  0.2106  0.0772
11001W        W26810  11.071   5.546   0.322 -0.3201  0.0472 -0.0954
11002W        W26811  11.609   6.533  13.174 -0.0774  0.0792 -0.1841
11003W        W26812   4.564  13.795  14.743  0.1912  0.0704  0.0329
11004W        W26813  11.252   8.162  11.552  0.1328  0.1132  0.2094
11005W        W26814   5.931   8.575   4.952  0.0622  0.0074  0.1626
11006W        W26815   5.658   5.314  14.568 -0.0566 -0.0694  0.2562
11007W        W26816  11.948   4.582   2.239  0.0095  0.0096 -0.2657
11008W        W26817  16.493   2.805   2.503 -0.0530  0.0033  0.1076
11009W        W26818  11.447  13.729  12.320 -0.1549  0.0004 -0.3571
11010W        W26819  16.743   8.179  13.252  0.2050 -0.0997  0.1105
11011W        W26820   8.968  12.925  12.746 -0.0636  0.0852 -0.1051
11012W        W26821  17.311   4.346  10.437 -0.0534  0.2509  0.0790
11013W        W26822   4.745  15.198  13.714 -0.1774  0.2726  0.0702
11014W        W26823   9.034   1.520   1.298  0.3774 -0.0636 -0.0381
11015W        W26824   0.666   3.009  11.651  0.6304 -0.0528  0.0939
11016W        W26825   9.752   7.764  12.031  0.1632  0.1302 -0.2410
11017W        W26826   9.515  11.245   1.775 -0.5197 -0.1646 -0.0207
11018W        W26827  10.621   8.347  11.710 -0.0144  0.2453  0.2478
11019W        W26828   8.086   7.226  15.868  0.1147 -0.0181 -0.3944
11020W        W26829  12.779   9.530  12.994 -0.3319 -0.0778  0.2171
11021W        W26830  13.755  10.794  12.073 -0.2251 -0.0793  0.3394
11022W        W26831   3.281  12.293  14.945 -0.1222  0.4317 -0.2677
11023W        W26832   4.654   6.461  12.223 -0.0377 -0.0406  0.2030
11024W        W26833  11.358   2.023   0.555  0.2495  0.4319 -0.0973
11025W        W26834   5.931   1.679  15.236  0.2845  0.2451  0.4087
11026W        W26835   2.525  14.995   1.400 -0.4315  0.5167 -0.2767
11027W        W26836   4.804   0.283   0.306 -0.1181 -0.0216 -0.0975
11028W        W26837   2.819   0.696  14.430  0.0256  0.2892 -0.2269
11029W        W26838  12.746  11.422   3.552  0.0012  0.2190 -0.0739
11030W        W26839  11.567  12.568  11.985  0.0015  0.0565  0.3489
11031W        W26840  16.844  16.149  11.262 -0.0290  0.1354  0.0222
11032W        W26841   7.941   5.862   1.218  0.0309 -0.2949 -0.1293
11033W        W26842  17.653  12.922   3.732  0.0070 -0.0232  0.1111
11034W        W26843  18.094  15.499  11.038 -0.1882  0.0055  0.0016
11035W        W26844   5.660  10.704  11.461 -0.0651 -0.3800  0.1566
11036W        W26845   1.847   0.897  12.779  0.2096  0.2405  0.0492
11037W        W26846   1.149   7.160  14.232 -0.1902  0.1028 -0.1612
11038W        W26847  13.412   2.802  10.332  0.2601  0.0619  0.1227
11039W        W26848   6.916  17.433  13.763  0.1157  0.0647  0.2435
11040W        W26849  13.220   3.978  14.014  0.3531  0.0080  0.2936
11041W        W26850   2.593   0.142  15.832 -0.1866  0.1740 -0.1355
11042W        W26851   9.926  14.607  14.204  0.1398 -0.0889  0.0043
11043W        W26852   3.347   7.595   0.561  0.0135  0.0599  0.3529
11044W        W26853  11.819  11.748  15.735  0.0857  0.1344  0.1295
11045W        W26854   5.102   8.499   2.466  0.0531  0.0607 -0.1369
11046W        W26855   8.257   1.373   0.098 -0.1256 -0.0544 -0.1610
11047W        W26856  10.071   4.549   5.658 -0.4476 -0.2900  0.0782
11048W        W26857   3.094  15.313  14.650  0.1531  0.1834  0.0910
11049W        W26858  14.685   2.400   4.611 -0.1182 -0.1048 -0.0587
11050W        W26859  17.592  17.444  11.820 -0.0572  0.1049 -0.0604
11051W        W26860   9.496  10.457   2.670 -0.1083  0.0497  0.1843
11052W        W26861  11.480   3.206   2.905  0.0547 -0.1899  0.2231
11053W        W26862  14.449   1.130  14.405  0.3283  0.1323  0.1060
11054W        W26863  15.303   5.150  11.507 -0.1621  0.0022  0.2249
11055W        W26864   0.081  18.140  13.479 -0.1762  0.1616 -0.1543
11056W        W26865   2.370  11.174  13.446 -0.0926 -0.1144 -0.0099
11057W        W26866  11.342  10.320  10.808  0.1047 -0.0084  0.1746
11058W        W26867   3.817  10.038   0.622 -0.1337  0.2565 -0.0843
11059W        W26868  17.041   3.550   5.154 -0.0624  0.0543 -0.3554
11060W        W26869   6.595  11.356   0.437  0.2403 -0.0067  0.1867
11061W        W26870  14.300  10.312   0.888  0.1992 -0.4783  0.1825
11062W        W26871  14.862   8.385  15.422  0.1154  0.0054 -0.0844
11063W        W26872   7.176   8.151   4.698  0.1099 -0.1507  0.1844
11064W        W26873  13.897  11.267   0.064 -0.0754  0.0370 -0.0838
11065W        W26874   0.937   4.343  13.585 -0.1477 -0.1107 -0.1315
11066W        W26875   0.476   3.524   2.145  0.1896 -0.2558  0.3277
11067W        W26876   2.768   9.753  12.097  0.2194  0.3437 -0.0061
11068W        W26877   2.155   8.028  12.737  0.0650 -0.2996 -0.1132
11069W        W26878   0.356   1.742   1.070  0.3962  0.0897  0.0126
11070W        W26879  16.616   1.725  13.311 -0.1696  0.0676  0.0553
11071W        W26880  17.945  15.517   4.494 -0.0769 -0.0448  0.1609
11072W        W26881  16.389  17.919   5.242 -0.0457  0.0796 -0.1615
11073W        W26882   7.164  13.339  13.754  0.1035  0.0003 -0.1572
11074W        W26883  11.747   8.474   5.464  0.2799  0.3314 -0.0412
11075W        W26884  16.940   4.128   2.091  0.0993 -0.0154  0.0436
11076W        W26885  10.639  17.818   1.108  0.0838 -0.1385  0.0829
11077W        W26886   4.168   4.621  13.986  0.3742 -0.2492 -0.0353
11078W        W26887  13.302   7.918  14.932 -0.2839  0.1527 -0.0033
11079W        W26888  15.240   5.126  14.881  0.0038  0.0113 -0.0769
11080W        W26889  16.547   7.600  12.724  0.3135 -0.2859  0.0178
11081W        W26890   4.800   6.398  13.357 -0.0780 -0.0115  0.0210
11082W        W26891  13.003   2.750   1.577  0.0758 -0.1744 -0.1940
11083W        W26892   1.084  18.203  11.978  0.1232 -0.1942  0.0519
11084W        W26893  14.290  11.155  12.923  0.1704 -0.0646 -0.2452
11085W        W26894  15.408   4.830   1.600  0.0985  0.1459  0.2688
11086W        W26895  15.012   9.215   2.751  0.1494 -0.0054  0.3117
11087W        W26896   9.974  13.858  11.276  0.2428  0.0477  0.2224
11088W        W26897   2.593  18.179  13.557 -0.2618  0.0097  0.3131
11089W        W26898   9.377   0.190  11.547  0.2553  0.1020  0.0632
11090W        W26899   4.595  16.717   1.064 -0.0483 -0.1060  0.2073
11091W        W26900   0.303  13.895   5.123 -0.0361  0.2972 -0.0328
11092W        W26901  11.709  15.253  13.597  0.0851 -0.1747  0.0684
11093W        W26902   6.306  13.070  11.134 -0.1670 -0.5153  0.0661
11094W        W26903   5.622  14.064  11.585 -0.1078  0.2529  0.2298
11095W        W26904   8.653   5.399   0.414  0.0155  0.2883 -0.0563
11096W        W26905   8.386   1.856  12.675 -0.0679  0.0413 -0.0785
11097W        W26906   1.635  12.711   4.243 -0.0430 -0.0744  0.0820
11098W        W26907   2.209   1.633  12.137 -0.0862 -0.1645  0.2786
11099W        W26908  15.269  17.576  14.193  0.2820 -0.0390  0.1311
11100W        W26909  13.098  12.438  13.344 -0.2936  0.1386 -0.0166
11101W        W26910  12.390  10.450   1.618  0.2931 -0.2179  0.1104
11102W        W26911   8.239  17.922   2.965  0.1258 -0.0864  0.3162
11103W        W26912  14.621   2.252   5.106 -0.1489 -0.0106 -0.3858
11104W        W26913  17.666  12.042  12.954  0.0187  0.0963  0.1437
11105W        W26914   1.106  17.386   1.694  0.0665  0.1168 -0.2262
11106W        W26915  18.216  15.232  15.414  0.0817 -0.2630 -0.2803
11107W        W26916   7.727   3.971  13.082  0.0648 -0.2143  0.2128
11108W        W26917   7.200   3.493   4.625 -0.0637 -0.0558 -0.2813
11109W        W26918  12.506  16.016   3.917 -0.4316  0.0666  0.0356
11110W        W26919  10.129   1.795   4.369 -0.0995  0.1510 -0.0641
11111W        W26920  10.636  16.989   5.717  0.0521  0.1018  0.2569
11112W        W26921  15.256   8.210   4.025  0.0191  0.0991  0.2524
11113W        W26922  11.661   8.423  12.857  0.0430  0.2135 -0.3639
11114W        W26923   2.910  17.292   4.672  0.0417  0.0867  0.0261
11115W        W26924   8.182   6.302   3.404  0.2102  0.2893  0.2464
11116W        W26925  13.073   8.371  14.484  0.2957  0.2588 -0.0392
11117W        W26926   6.605   7.033  11.566 -0.1184  0.1425 -0.0700
11118W        W26927  16.045  11.122   1.696 -0.3199  0.2034  0.1995
11119W        W26928   2.426  15.292   2.040 -0.1073 -0.2424  0.1864
11120W        W26929   3.265   2.147   1.812  0.0382 -0.3429 -0.0572
11121W        W26930   1.335  15.793  13.953  0.0671  0.3123  0.2469
11122W        W26931  12.484   1.407   0.667 -0.3975  0.2054  0.0887
11123W        W26932   0.149  16.404  15.701 -0.1482  0.1520  0.0379
11124W        W26933   1.495  13.795   0.539  0.1032 -0.0083 -0.3769
11125W        W26934   6.551   3.586  11.716  0.1452 -0.2430  0.1046
11126W        W26935  11.400  12.185  12.170  0.1843 -0.1466 -0.1415
11127W        W26936  12.874   7.567   0.183 -0.0672  0.0006  0.1518
11128W        W26937   1.668   0.636   1.865  0.2335  0.1856  0.2065
11129W        W26938   6.296   5.020  14.372 -0.0516 -0.2314  0.0325
11130W        W26939   5.903  13.731   3.513  0.0535  0.1730 -0.1105
11131W        W26940   6.192  15.060   5.640  0.4140  0.0397 -0.2808
11132W        W26941   7.741  15.772   2.582 -0.0528  0.2290 -0.0640
11133W        W26942   1.110   3.543  12.229  0.2472  0.6354  0.0570
11134W        W26943  15.217  13.997  11.595 -0.3196  0.0593 -0.0056
11135W        W26944   7.703  10.949   1.195  0.3476  0.2670 -0.1692
11136W        W26945   5.015   1.188   0.583  0.1027 -0.2258  0.0690
11137W        W26946   0.984  11.062  13.535  0.0143  0.1273 -0.0808
11138W        W26947  17.611  15.892  11.652  0.0494 -0.0748 -0.0126
11139W        W26948  16.098   3.769  12.410  0.0479  0.3722  0.0516
11140W        W26949  18.032   0.666   3.379 -0.1524  0.1236 -0.3653
11141W        W26950  15.978   5.887  13.747 -0.1273 -0.2689  0.0569
11142W        W26951  12.000   7.478   5.057 -0.2395  0.0677 -0.0209
11143W        W26952   8.078  16.367   3.289 -0.0927  0.0680 -0.2454
11144W        W26953   5.906   3.321  15.773 -0.2443  0.1572 -0.0965
11145W        W26954   5.134  11.019  11.504 -0.1902 -0.0599 -0.2006
11146W        W26955   5.519  15.680  14.124  0.0348  0.1924  0.0489
11147W        W26956   2.484   7.189   3.300  0.0690  0.0491 -0.0318
11148W        W26957   3.041   9.647  10.787  0.4664 -0.2060 -0.1777
11149W        W26958   7.161   5.735  10.602  0.0066  0.1246 -0.4075
11150W        W26959  16.110  11.147   2.552 -0.2515  0.0316  0.0573
11151W        W26960   2.326  11.753   3.191  0.4681  0.0567 -0.3341
11152W        W26961   4.207  11.432   4.079  0.2642  0.0468  0.1109
11153W        W26962  15.246   5.032  12.062 -0.2343 -0.1822 -0.4260
11154W        W26963  17.966  11.205   1.625 -0.1230 -0.2696 -0.1094
11155W        W26964   2.627   8.413  15.917  0.0620  0.0944  0.1877
11156W        W26965  15.670   2.257   2.357 -0.1304  0.1527  0.2006
11157W        W26966   7.072  11.616   4.313  0.1301  0.0232 -0.1388
11158W        W26967  13.886   2.235   3.355  0.2781 -0.3733 -0.2342
11159W        W26968   2.655   3.849  13.649  0.2776 -0.2348 -0.2286
11160W        W26969   3.981   3.119  15.772  0.0414  0.2201  0.0469
11161W        W26970  13.337   9.963  13.688 -0.4922  0.2867 -0.0134
11162W        W26971   9.885  13.988  14.328 -0.1304  0.0983 -0.1361
11163W        W26972   5.631   8.612   0.891 -0.0126 -0.0139  0.1780
11164W        W26973   7.518   3.294   0.746 -0.0094  0.1703 -0.0395
11165W        W26974   1.635  11.631  11.767  0.0827 -0.0933  0.1228
11166W        W26975   8.439   3.480  12.051  0.3270  0.2151 -0.2376
11167W        W26976   1.512  17.279  11.636  0.1322 -0.0267  0.4032
11168W        W26977   1.577  16.684  12.400  0.2564 -0.1954  0.0135
11169W        W26978   1.203  15.101  12.494 -0.2930 -0.0384 -0.5921
11170W        W26979  11.912   5.769   1.431 -0.0435 -0.2383  0.0585
11171W        W26980   7.352  14.152  13.279  0.2690 -0.2750  0.3014
11172W        W26981  15.921   9.604   0.134 -0.0462 -0.3392  0.0260
11173W        W26982  17.540   2.015   3.938 -0.0842 -0.0747  0.1478
11174W        W26983  17.475   5.353  15.607  0.0404  0.0079  0.1222
11175W        W26984  11.688   6.550   5.842 -0.1080 -0.3234 -0.0439
11176W        W26985   2.699   2.667  15.981 -0.0214  0.0051 -0.0646
11177W        W26986  11.987  16.541  12.930 -0.1929 -0.2202 -0.1119
11178W        W26987   2.300   4.766  14.564  0.1486  0.5451  0.1245
11179W        W26988   1.902  13.047  14.967 -0.0281  0.0401 -0.0481
11180W        W26989   8.313   0.986   4.440 -0.1367 -0.0527  0.2053
11181W        W26990  17.947   7.305   5.144 -0.0792 -0.1863 -0.2444
11182W        W26991  11.775  17.846   4.911 -0.0291  0.0370  0.1072
11183W        W26992  13.290   4.164   3.797 -0.2364 -0.0735  0.1990
11184W        W26993  14.775  16.534   3.983  0.0465 -0.0934 -0.1946
11185W        W26994   0.331   6.828  14.426  0.2583  0.0512  0.1726
11186W        W26995  13.363   7.502   0.892  0.2100 -0.0391  0.0301
11187W        W26996  12.053  11.885  12.707 -0.1377  0.2819  0.2824
11188W        W26997  15.079   5.447   4.896  0.2175  0.0205 -0.2313
11189W        W26998   3.920  16.703  13.521  0.0332  0.1761  0.2491
11190W        W26999   8.913   5.444  10.856  0.3001 -0.0427  0.0348
11191W        W27000   1.634  13.930  12.943  0.2315 -0.2166  0.0985
11192W        W27001   7.867   0.020   5.538 -0.3101  0.1564  0.2813
11193W        W27002   7.276  10.770  11.116 -0.0044  0.2447  0.2125
11194W        W27003   8.986  11.516  14.421 -0.1147 -0.0738 -0.0187
11195W        W27004  14.024   0.026   5.381  0.0950 -0.2462 -0.2538
11196W        W27005  13.235   1.547   2.377  0.2894 -0.0634  0.0032
11197W        W27006  18.221  16.221  11.623 -0.3356 -0.4318  0.2191
11198W        W27007   0.640  12.014  10.222 -0.0683 -0.0903 -0.3119
11199W        W27008  16.295   8.419  13.448 -0.2344 -0.1860  0.0044
11200W        W27009  15.444   8.008  10.927 -0.2247  0.0713  0.0934
11201W        W27010  17.290  12.081   2.627 -0.0226 -0.3197 -0.0582
11202W        W27011   6.847   2.258   3.606 -0.0652 -0.2029 -0.1315
11203W        W27012   7.633   3.465   3.467  0.2105 -0.1218  0.2029
11204W        W27013   0.941   3.379  13.559 -0.2536  0.1039 -0.2739
11205W        W27014   5.632   6.548  10.809  0.1033 -0.0222  0.1495
11206W        W27015   2.349  17.964   2.005  0.3931  0.2965 -0.0510
11207W        W27016   1.082   1.175   3.800 -0.0060  0.3621  0.0685
11208W        W27017  14.935   2.929   4.659 -0.0810  0.0087  0.0484
11209W        W27018  16.090   4.903  15.386 -0.1757 -0.1070 -0.1253
11210W        W27019   5.917  18.218   1.632  0.0201  0.2335 -0.4376
11211W        W27020  15.256  13.553   2.552 -0.0244 -0.1863  0.0330
11212W        W27021   4.334  11.769   0.668 -0.1945  0.2074  0.3695
11213W        W27022   2.625  16.441   4.688  0.2173 -0.4533  0.4890
11214W        W27023  17.840   1.803   5.350  0.0981  0.1236  0.0458
11215W        W27024  11.805  17.146   1.535  0.1247 -0.1758  0.2148
11216W        W27025  10.004   7.064  12.851 -0.2202 -0.0708 -0.3052
11217W        W27026   9.500   8.761   1.028  0.2447 -0.0653 -0.1330
11218W        W27027   0.047   5.271  12.309 -0.0747 -0.1952  0.0698
11219W        W27028   3.803  17.945   4.608 -0.0480 -0.0863 -0.2977
11220W        W27029   4.087  10.893   3.776 -0.2563  0.0077 -0.1268
11221W        W27030   2.388   9.325  12.195 -0.0353  0.0696 -0.0046
11222W        W27031   7.446   1.409  12.988  0.0456  0.1651 -0.3589
11223W        W27032   6.711   7.405   1.040 -0.0672  0.1485 -0.1584
11224W        W27033   3.408  11.492  11.171 -0.1732 -0.1439 -0.0493
11225W        W27034   3.098   2.714  14.310 -0.1219 -0.3655 -0.1062
11226W        W27035  10.670   6.970  10.875  0.2103  0.0098 -0.1570
11227W        W27036   3.801  17.094  13.017  0.0076 -0.1063  0.0461
11228W        W27037   2.364  13.055   1.298  0.2786 -0.4229 -0.0615
11229W        W27038   6.761   8.780  12.154  0.2257 -0.2771 -0.0625
11230W        W27039   2.142  12.257  11.156  0.1440 -0.2119 -0.1884
11231W        W27040   1.804   9.796  11.660  0.2203 -0.0157  0.0397
11232W        W27041   1.720   6.646   3.508 -0.1969 -0.3104 -0.0465
11233W        W27042  16.700   5.390  15.900  0.3411 -0.2839  0.0355
11234W        W27043  16.059  15.134  13.155 -0.0880  0.1383 -0.0345
11235W        W27044  16.726   3.840   4.509 -0.2000 -0.1760  0.1559
11236W        W27045  14.447  12.378  12.360 -0.0792 -0.0782 -0.2451
11237W        W27046   1.794   2.141   2.288 -0.1565  0.0461  0.2533
11238W        W27047   2.370  11.430   0.729 -0.0356  0.0926 -0.0163
11239W        W27048   3.404  15.640   2.427 -0.1429  0.0953  0.0281
11240W        W27049   2.652   8.321  11.944 -0.1357  0.0793  0.3179
11241W        W27050   7.471   4.208  15.516 -0.2023 -0.0855 -0.0559
11242W        W27051   6.932   6.350  13.610  0.1790  0.0688  0.0299
11243W        W27052  11.417  17.437  11.965 -0.1288  0.3648 -0.3076
11244W        W27053   3.834   8.547  11.580 -0.1021  0.2737 -0.2095
11245W        W27054  14.896   5.146  15.239 -0.0226 -0.1452 -0.3257
11246W        W27055  11.505   5.651  12.988 -0.0589  0.1625  0.1298
11247W        W27056  16.545   0.130   3.871  0.1147 -0.0339 -0.0451
11248W        W27057   5.055   2.239  12.712 -0.0548  0.3943  0.0980
11249W        W27058   3.995  18.186  11.586  0.1292  0.0597 -0.0858
11250W        W27059  13.889  16.174  12.628  0.2322  0.1541 -0.2571
11251W        W27060   1.723   1.708  12.756  0.2545 -0.0784 -0.2527
11252W        W27061   3.240  15.060  13.788  0.0406  0.2077 -0.3502
11253W        W27062   3.772   5.032   3.742  0.1226 -0.0959  0.0141
11254W        W27063   0.721  17.617   0.948 -0.0919  0.2780  0.3632
11255W        W27064   0.802  11.895  15.681 -0.0351  0.1751  0.1922
11256W        W27065  13.183   3.039  14.943  0.0004 -0.1045  0.0705
11257W        W27066  12.194  11.794   5.336 -0.0562  0.2059 -0.0488
11258W        W27067   0.584   0.334   3.513 -0.0606  0.0445 -0.1942
11259W        W27068  10.285   7.172   0.474 -0.0690  0.0479  0.0298
11260W        W27069  16.491  15.467   0.331  0.1437 -0.0234 -0.0404
11261W        W27070   2.599   9.540  14.435 -0.0945  0.0599  0.2825
11262W        W27071  15.133   2.173  12.799  0.1457  0.1734 -0.0201
11263W        W27072   3.232   0.231   2.358 -0.0296  0.0756  0.1701
11264W        W27073  15.388  13.971   3.988 -0.2974  0.0499  0.0467
11265W        W27074  17.915   0.747  15.193 -0.0975 -0.1599  0.0326
11266W        W27075   0.544  11.689  13.946  0.2768  0.2550 -0.1470
11267W        W27076  16.935   3.570   3.759  0.0925  0.1375 -0.2407
11268W        W27077  15.337   3.670   1.006  0.4517  0.0982  0.0247
11269W        W27078   2.298  14.665   3.148  0.1036  0.0575 -0.2317
11270W        W27079   5.235  13.300  14.369  0.0772  0.1118  0.1562
11271W        W27080   8.429   1.020   3.159  0.0412  0.1776  0.0972
11272W        W27081  12.646   6.286  15.091 -0.0361  0.2157 -0.2101
11273W        W27082   3.740   5.321   5.755 -0.1633 -0.0200  0.2739
11274W        W27083   2.481   4.717   1.350 -0.3005 -0.1022 -0.2533
11275W        W27084   1.332   0.500  14.682  0.1510  0.2625  0.2547
11276W        W27085  15.757  10.376  14.878  0.1173  0.0072  0.2674
11277W        W27086   3.586  13.531   2.193  0.0596 -0.1233 -0.2256
11278W        W27087  12.044  12.517   4.913 -0.0734 -0.1986 -0.1944
11279W        W27088  11.369  13.848   0.503  0.0386 -0.0576 -0.0886
11280W        W27089   1.213   0.357   0.476  0.1676  0.0686  0.2842
11281W        W27090   3.938   2.846  13.072 -0.1433 -0.0920 -0.2162
11282W        W27091   0.682   8.874   3.126 -0.1950 -0.1503 -0.2227
11283W        W27092  10.289   5.362   4.604 -0.0976  0.0146 -0.2056
11284W        W27093   5.040   9.521   2.188 -0.2745  0.2119  0.4150
11285W        W27094  16.621   9.349  14.384  0.0397 -0.0284 -0.1883
11286W        W27095   5.388   6.793  14.435  0.0638  0.0184 -0.0207
11287W        W27096  16.617   8.521  14.383 -0.0313 -0.2672  0.2519
11288W        W27097  17.666   8.762   4.336  0.1320  0.2528  0.0581
11289W        W27098  14.437  15.863  15.187 -0.2325  0.2080 -0.0006
11290W        W27099   7.886   7.629  11.390  0.2062 -0.3587 -0.1591
11291W        W27100   0.586   4.554   4.699 -0.2109  0.1272 -0.1836
11292W        W27101   2.777  16.852  14.090 -0.1103  0.1694 -0.0529
11293W        W27102  11.382   1.353   1.835  0.0518 -0.0885 -0.1268
11294W        W27103  14.742   9.473   2.368 -0.3300 -0.0435 -0.0858
11295W        W27104  14.304  17.289  11.903 -0.0417  0.1179  0.0062
11296W        W27105   2.661   5.198   4.593 -0.1504  0.2966  0.1403
11297W        W27106  12.412   7.579  15.703 -0.1123  0.2236 -0.1497
11298W        W27107  16.897  12.692   4.397  0.0599  0.2323 -0.1099
11299W        W27108  14.776  11.401   1.020 -0.1752  0.1304 -0.1592
11300W        W27109  13.781   2.493  14.275  0.0662  0.1709  0.1668
11301W        W27110  10.012  11.604   5.303  0.2264 -0.0990  0.1590
11302W        W27111   4.611  15.758   1.823  0.1321 -0.3784  0.3478
11303W        W27112   5.527   2.002   5.064 -0.1771  0.3532  0.0682
11304W        W27113  17.468   8.461  10.152  0.1441 -0.0128 -0.1799
11305W        W27114   0.253  11.940   1.174 -0.4097  0.0053 -0.1125
11306W        W27115  13.348   2.624  11.142 -0.0230 -0.1423 -0.0062
11307W        W27116  17.019  13.442   1.614 -0.3386  0.0906  0.2222
11308W        W27117   8.157   4.831   1.864  0.1338 -0.0620  0.0029
11309W        W27118  11.344   7.792   0.323  0.3670 -0.1541  0.2325
11310W        W27119   6.437  15.111   0.369 -0.3117  0.1510 -0.0667
11311W        W27120   4.350  13.112  15.794 -0.1420 -0.0170 -0.1451
11312W        W27121   6.340  18.266   1.356 -0.0971 -0.1186 -0.0252
11313W        W27122   4.719   7.919  12.841 -0.1822  0.3582  0.1257
11314W        W27123   8.478   6.560  12.061 -0.0430  0.0907 -0.1295
11315W        W27124   0.071  13.097   4.119 -0.0604 -0.1518  0.1536
11316W        W27125   1.088  13.709   0.931  0.2650  0.0455 -0.2361
11317W        W27126   0.464  18.046   0.856  0.0462 -0.2907  0.0112
11318W        W27127  14.240  13.926   3.038  0.1174 -0.2418 -0.1203
11319W        W27128   3.773   9.964  13.791 -0.1086  0.0678 -0.0151
11320W        W27129   7.651   3.602  14.393  0.0912 -0.0730 -0.0890
11321W        W27130  14.762   7.618  12.874  0.0834 -0.0904  0.1555
11322W        W27131  10.106   0.895   5.101 -0.0687 -0.1177  0.0170
11323W        W27132   6.250  10.983  15.581 -0.0254 -0.2519 -0.2492
11324W        W27133  13.883   0.231  11.356  0.1550 -0.0457  0.1620
11325W        W27134   5.082  15.366   1.992  0.1099  0.1270  0.3195
11326W        W27135   5.282   1.740  12.702 -0.1680 -0.0342  0.1698
11327W        W27136  14.029  15.963   2.497 -0.2263  0.0253  0.1516
11328W        W27137  11.108  17.943   4.270 -0.0316  0.0961 -0.0672
11329W        W27138   5.085   1.767  15.380 -0.0034  0.0700  0.3134
11330W        W27139   0.948   3.406  14.747  0.3219 -0.0793 -0.0851
11331W        W27140  14.872   0.115  12.212 -0.0182 -0.0201 -0.0469
11332W        W27141  12.530  10.671  15.110 -0.0256  0.2486  0.0749
11333W        W27142  14.499   2.179   3.453  0.1005  0.0357  0.2866
11334W        W27143   3.018   4.576   3.279  0.1438 -0.0003  0.1897
11335W        W27144   6.102  14.592   4.847 -0.0260  0.1733 -0.1224
11336W        W27145  11.678   6.302  15.477 -0.2977 -0.3602  0.0455
11337W        W27146   0.735   8.714  14.603 -0.2717 -0.2842  0.3229
11338W        W27147  12.463  16.839  12.076 -0.0146  0.1527 -0.1552
11339W        W27148   0.652  14.319  13.401 -0.0682  0.1059 -0.2269
11340W        W27149  12.377  13.561  15.936 -0.0647  0.0154  0.0014
11341W        W27150   8.488  17.187   3.699 -0.1835  0.2555  0.2381
11342W        W27151  11.949   8.850   2.809 -0.0647  0.1273 -0.2234
11343W        W27152   4.494   2.324   2.402  0.1128 -0.0689 -0.0282
11344W        W27153  15.356   5.068   4.746 -0.1031  0.0700  0.0020
11345W        W27154   8.573  10.077  14.307 -0.1244  0.1860 -0.0624
11346W        W27155   3.723   9.892   3.562  0.0210 -0.0954  0.0293
11347W        W27156  11.967  14.785   5.049 -0.1868  0.0737  0.1985
11348W        W27157  11.487   6.621   3.169 -0.0378  0.1878  0.0922
11349W        W27158  10.076  16.475   3.129  0.4609  0.1289  0.3977
11350W        W27159   6.257   0.354  11.392  0.0692  0.2445 -0.1242
11351W        W27160  17.564  16.900   2.536 -0.1241 -0.1172  0.0996
11352W        W27161   2.798   9.001  12.258 -0.0415  0.2786 -0.1892
11353W        W27162  17.308   4.753  13.139 -0.2706  0.1627  0.2521
11354W        W27163   8.001  17.775  15.529  0.2428 -0.1623  0.2493
11355W        W27164  17.042  15.286   3.881  0.2006  0.0644 -0.1531
11356W        W27165  17.454   3.113   2.763 -0.1100 -0.0984 -0.3165
11357W        W27166   6.917  17.537  14.298  0.4628  0.2291 -0.2022
11358W        W27167   9.721   0.950  13.756 -0.0230 -0.1373  0.3400
11359W        W27168  16.558   2.858   1.447  0.1238  0.1514  0.0737
11360W        W27169  12.766   3.899  11.485 -0.2925 -0.1067 -0.0363
11361W        W27170   8.592   5.619  11.561 -0.1981  0.1533 -0.3214
11362W        W27171  13.457  17.121  13.703 -0.0425 -0.2537  0.2071
11363W        W27172  14.947   6.719  11.758 -0.2081  0.1706  0.3275
11364W        W27173  16.202   3.907  13.857  0.0525  0.0487 -0.0340
11365W        W27174  12.743   5.171  14.115 -0.0179  0.3299 -0.0466
11366W        W27175  17.344   5.155   2.800  0.0099  0.1114  0.1984
11367W        W27176   7.676   8.860  14.494  0.0537 -0.3459  0.1030
11368W        W27177  11.929   9.214  13.989  0.2000  0.2332 -0.2361
11369W        W27178   2.074  13.010   4.237 -0.0722  0.1218  0.0078
11370W        W27179  13.237  13.671  15.973  0.0265  0.0793 -0.0876
11371W        W27180  13.444   3.189   1.828  0.1924  0.1069 -0.0692
11372W        W27181  14.956   7.983  12.632  0.1372  0.1558  0.2582
11373W        W27182   3.089   0.111  15.815 -0.1672 -0.1677  0.1209
11374W        W27183  13.875   8.594  12.617 -0.0511 -0.2346 -0.0352
11375W        W27184   0.704   6.994   3.805  0.0371 -0.1498  0.0910
11376W        W27185   5.972  17.668  11.126 -0.2977 -0.1164  0.1106
11377W        W27186  16.677   1.442   3.220  0.0570 -0.0404 -0.0649
11378W        W27187   7.475  17.224   6.211 -0.0061 -0.1558 -0.1422
11379W        W27188  17.571   9.685   2.333 -0.2898  0.1252 -0.1304
11380W        W27189   1.089  15.074  11.557  0.0362  0.1065  0.0699
11381W        W27190  17.551   4.528  13.608 -0.1606 -0.1510  0.0677
11382W        W27191  12.318  13.916   1.325 -0.0512  0.0938 -0.0715
11383W        W27192   9.034   1.980  13.427  0.0184  0.1958 -0.0151
11384W        W27193   6.595  11.334  11.845  0.0783  0.2952 -0.1343
11385W        W27194  12.072   9.781   4.443  0.4147  0.0412 -0.0759
11386W        W27195  18.040  12.148   5.835  0.0921  0.0634 -0.1182
11387W        W27196   0.555   0.230   2.156 -0.0835  0.0751  0.0302
11388W        W27197   1.369   8.765  15.694 -0.3118  0.1230 -0.0381
11389W        W27198  13.963   5.061   2.573  0.1906  0.1153  0.2502
11390W        W27199   6.088  12.815   2.040  0.1523 -0.1149  0.0372
11391W        W27200   1.007  10.969   5.767  0.3075  0.0091  0.3673
11392W        W27201  11.985   0.080   4.394 -0.3085 -0.1139  0.2119
11393W        W27202  12.562   4.021   0.156 -0.0842 -0.0219  0.0549
11394W        W27203  14.232   3.532   1.153 -0.1486 -0.1568 -0.2061
11395W        W27204  11.584   1.764  10.381  0.1048 -0.3833  0.1209
11396W        W27205  10.430   2.853  11.550  0.1578  0.1583  0.2936
11397W        W27206  15.873  18.260  11.779  0.0807  0.2749  0.0730
11398W        W27207   5.341  13.434  13.763 -0.1184 -0.2881 -0.1390
11399W        W27208  15.027  14.987  13.266  0.3349  0.0211  0.2182
11400W        W27209   6.423  11.929   4.764  0.1953  0.0339 -0.3496
11401W        W27210  15.160   2.258   2.898  0.0233  0.1606 -0.1159
11402W        W27211  17.721  11.758   0.193 -0.1342  0.0689  0.3124
11403W        W27212   9.475  14.973   0.125  0.0959  0.2479  0.0007
11404W        W27213   1.659  18.178   3.592  0.2411 -0.1084  0.1626
11405W        W27214   6.585   8.529  13.010 -0.3024  0.1756  0.3400
11406W        W27215   2.250   4.079  11.379  0.1431 -0.0908  0.1445
11407W        W27216  11.921   8.764  11.799 -0.0085  0.2468  0.0049
11408W        W27217   8.803   2.483  15.232  0.0056  0.0682 -0.0947
11409W        W27218  12.471   6.225   2.256  0.0524  0.1447 -0.1573
11410W        W27219   7.143   3.796  10.067 -0.0413  0.1644  0.0744
11411W        W27220  12.778  12.974   3.372 -0.1415  0.0193  0.1763
11412W        W27221  13.626  16.917  11.003  0.0726 -0.2300  0.0719
11413W        W27222   7.693   4.061  15.966  0.1524  0.2273  0.0216
11414W        W27223  17.881   5.162  14.026  0.2818 -0.2801  0.0673
11415W        W27224   5.366  14.579   2.481  0.1895 -0.1603  0.0755
11416W        W27225  16.250  17.403  14.246 -0.0662  0.2564  0.1144
11417W        W27226   9.815  17.023   3.213 -0.0187  0.0681  0.1921
11418W        W27227  13.944   7.104  15.890 -0.1144 -0.1410  0.0460
11419W        W27228   5.599  14.410  15.359 -0.0107 -0.1408  0.1953
11420W        W27229  14.595  10.793   0.086  0.2297 -0.0428  0.3419
11421W        W27230   9.431   2.438   1.355  0.1119  0.0502 -0.1633
11422W        W27231   1.325   8.244   1.627  0.0789 -0.2454 -0.2789
11423W        W27232   5.604   6.457   0.871 -0.0616 -0.1169  0.3075
11424W        W27233  17.698   4.847   3.170  0.0749  0.1297  0.3846
11425W        W27234  13.413  15.758  11.959 -0.0172 -0.2303  0.1551
11426W        W27235   0.988   2.707  12.293  0.0447 -0.0511  0.1615
11427W        W27236   3.577  10.886  12.076 -0.1416  0.1577  0.1502
11428W        W27237   3.842  10.437  10.669 -0.1594  0.0040 -0.0824
11429W        W27238  13.771   4.027  11.715 -0.0038 -0.1307 -0.0084
11430W        W27239   7.647   6.463  12.872 -0.0137 -0.1282  0.0524
11431W        W27240  17.159  10.748  13.394  0.1673 -0.0220  0.1339
11432W        W27241   4.020   4.872  12.707 -0.0172  0.0139 -0.1772
11433W        W27242   2.169  16.195   4.639  0.0078 -0.1365 -0.1145
11434W        W27243  12.794  14.370   3.794 -0.0600 -0.0358  0.0868
11435W        W27244   7.104  17.819   2.799 -0.4233  0.1495  0.5320
11436W        W27245  11.698  13.502   2.779  0.0068  0.0420  0.0612
11437W        W27246  12.912   3.263   3.951 -0.1015 -0.2530 -0.1184
11438W        W27247  12.807  15.968   3.441 -0.0904 -0.2710 -0.0970
11439W        W27248   4.719  12.878   3.134  0.2249 -0.2861  0.2359
11440W        W27249   8.899   9.238   4.559  0.0962 -0.1170  0.0551
11441W        W27250  14.235  16.471  13.446 -0.0694  0.0384 -0.0165
11442W        W27251  10.415  16.304  11.407  0.1386  0.2692  0.0260
11443W        W27252   8.550   4.461  11.275  0.1097 -0.1611 -0.1939
11444W        W27253   9.274  12.196  13.960 -0.1472 -0.3780 -0.0743
11445W        W27254   8.674   7.940  10.831 -0.1300 -0.3610  0.2248
11446W        W27255   5.948  13.395   0.364  0.1566 -0.2585 -0.3489
11447W        W27256  16.321   3.997  14.382  0.1825 -0.4016  0.0869
11448W        W27257  15.580   8.929  11.949 -0.1741 -0.2466  0.0323
11449W        W27258  15.029   7.206  11.633  0.0844 -0.0489  0.1114
11450W        W27259  16.831  13.873  13.805  0.1099 -0.4030  0.0664
11451W        W27260   9.907   3.491  12.716 -0.1016 -0.0053  0.1631
11452W        W27261   3.611  14.630  11.656 -0.2324 -0.0443 -0.0755
11453W        W27262   4.503  16.244   4.753  0.0150  0.1371  0.1815
11454W        W27263  12.308   5.267  14.790  0.2344  0.1546 -0.0446
11455W        W27264  10.765  14.929   4.538 -0.1402  0.1564 -0.0099
11456W        W27265   9.160  13.766  15.060  0.0206  0.1083 -0.2759
11457W        W27266   2.834  15.869   3.927  0.0573  0.0392 -0.1571
11458W        W27267  16.381   5.807  13.343  0.2313 -0.0483 -0.1020
11459W        W27268  15.908  17.278   0.995 -0.0154 -0.0594 -0.4046
11460W        W27269  16.662  13.408  12.564 -0.2094  0.0722 -0.0561
11461W        W27270  10.048   3.238   1.964 -0.0492 -0.4535 -0.1454
11462W        W27271   9.864  15.755   0.434  0.1838  0.2016  0.1247
11463W        W27272  10.506   9.863  12.837  0.0424  0.1695 -0.2877
11464W        W27273   3.833  16.916   2.069 -0.1437 -0.0419  0.0596
11465W        W27274  10.359  15.400   3.966  0.2473  0.0113  0.0881
11466W        W27275   8.120   8.679   4.431 -0.2656 -0.2388  0.0912
11467W        W27276   8.287   7.068  13.933  0.2637 -0.1988 -0.1191
11468W        W27277  14.142   1.501   3.123  0.2841 -0.0667 -0.1114
11469W        W27278   0.443   3.484  13.359  0.2317  0.1140 -0.0353
11470W        W27279  15.706   6.667   3.758  0.1170  0.1706  0.0010
11471W        W27280   7.717  17.152   1.614  0.2690 -0.2009  0.1983
11472W        W27281  11.133  10.845   4.718 -0.0792  0.0114 -0.1140
11473W        W27282   4.189  17.815  11.897 -0.2024 -0.1594 -0.1107
11474W        W27283   3.923   1.947   2.414 -0.1040 -0.1692  0.0866
11475W        W27284  13.240   7.601  12.962 -0.0371  0.2120 -0.0233
11476W        W27285  15.668  14.444   1.574  0.0525  0.0172  0.0204
11477W        W27286  17.344  13.794   3.040 -0.0294  0.1085  0.3801
11478W        W27287  10.352   8.213   4.181 -0.2289  0.0178 -0.0380
11479W        W27288   0.743   0.597   3.083  0.1371  0.0547  0.1429
11480W        W27289  17.508   2.322   3.503  0.2559  0.0191  0.0688
11481W        W27290   8.439  14.361  12.342 -0.0201  0.1898  0.0052
11482W        W27291   2.324  12.280   1.820 -0.2486  0.0065  0.0842
11483W        W27292  14.078   5.177   3.780 -0.3433 -0.0248 -0.0912
11484W        W27293  12.601   6.751   0.008 -0.0640  0.2096 -0.2271
11485W        W27294   3.897  10.821  12.889 -0.2375  0.0615 -0.0084
11486W        W27295  16.952   8.286   2.730 -0.0374  0.1059  0.3468
11487W        W27296   9.500  15.537  11.313 -0.2878  0.2338  0.0204
11488W        W27297   3.001  13.301   5.509  0.1320 -0.0769 -0.0880
11489W        W27298  14.727   4.313   4.663 -0.1951 -0.0109 -0.2502
11490W        W27299  17.658   4.421  13.152  0.1230  0.3124 -0.4131
11491W        W27300   1.487   4.662  14.731 -0.1569 -0.0974 -0.2640
11492W        W27301   4.331   1.081   2.171  0.4035  0.3744 -0.1292
11493W        W27302   4.363  10.734   4.256 -0.3479 -0.4079  0.2097
11494W        W27303   7.357  16.998   3.326  0.1802  0.2640 -0.0180
11495W        W27304  15.637   5.613  14.271  0.2821 -0.2418  0.0754
11496W        W27305   9.458   1.384   0.349 -0.0391  0.0591  0.3758
11497W        W27306   6.882  15.357   5.060  0.0004 -0.1225 -0.0154
11498W        W27307   8.895  15.871  13.479  0.0784 -0.2267  0.0233
11499W        W27308  15.364   3.297   3.619 -0.1240  0.0542 -0.4301
11500W        W27309   1.284  10.039   1.344 -0.4238  0.0987 -0.2206
11501W        W27310  11.473   9.461   4.871 -0.0455 -0.0266 -0.2744
11502W        W27311   8.861  10.816   3.902 -0.0225  0.1952  0.2201
11503W        W27312  13.477   5.024  15.628  0.1946 -0.2006  0.1408
11504W        W27313  10.303   6.351  15.576 -0.0767 -0.1702  0.3315
11505W        W27314   5.083  17.642   4.352 -0.1193  0.0274  0.1639
11506W        W27315  10.978   5.997   3.288  0.1476 -0.1752  0.3344
11507W        W27316   3.258   8.758  15.259 -0.1206  0.0399  0.5868
11508W        W27317  14.252  10.677  12.819  0.0712  0.0250 -0.1088
11509W        W27318  16.669   2.092   0.404 -0.1090  0.1528  0.0176
11510W        W27319   7.956   0.230  15.063 -0.0445  0.0940 -0.2666
11511W        W27320   6.148   3.379  10.465 -0.2513 -0.3857 -0.4976
11512W        W27321  10.155  16.983   0.978  0.1105 -0.2374  0.2078
11513W        W27322   6.752   1.671  15.403 -0.0126  0.0474  0.0737
11514W        W27323   0.206  17.110   5.016  0.0069  0.2525 -0.0434
11515W        W27324   9.080   4.813  13.725 -0.0576  0.1922 -0.1356
11516W        W27325  12.429   0.862   6.455 -0.0182  0.3351 -0.0270
11517W        W27326  12.456   2.285  13.759  0.1620 -0.3155  0.0749
11518W        W27327   0.579  15.344   1.302  0.1624 -0.0075 -0.0574
11519W        W27328  13.189   6.090   1.147 -0.0843 -0.1534  0.1394
11520W        W27329   5.995   9.150   1.713  0.1555 -0.1124  0.1088
11521W        W27330   1.849  11.673   3.412  0.2088  0.1115 -0.1511
11522W        W27331  13.956  13.061  14.758 -0.0213 -0.1908  0.1329
11523W        W27332   4.111   4.496   4.572  0.1324 -0.0347 -0.3360
11524W        W27333  15.028   8.191   4.889  0.1040  0.0119  0.2024
11525W        W27334   9.223  15.329   4.317  0.3529  0.1107  0.1725
11526W        W27335   4.383  10.184   4.043 -0.2069  0.0465  0.1397
11527W        W27336  12.766   7.227   4.634  0.2609 -0.1417 -0.1965
11528W        W27337  14.951  12.306   2.254 -0.1046 -0.1111  0.0676
11529W        W27338   2.283   1.421  14.811 -0.2195  0.2007 -0.1595
11530W        W27339  16.043   2.399  15.569 -0.1759 -0.1382  0.0764
11531W        W27340  13.803   7.578   3.990 -0.3231  0.1778  0.0354
11532W        W27341  17.212  10.289  12.380  0.1275  0.1821  0.1531
11533W        W27342   8.494   1.561  12.293 -0.3000 -0.0844 -0.0068
11534W        W27343  18.199   1.111  15.046  0.1602  0.0676 -0.1235
11535W        W27344   9.222  17.434  15.664 -0.3763  0.2708 -0.0361
11536W        W27345   4.287   3.683  13.401  0.2964  0.2260  0.1473
11537W        W27346  15.822   8.674   3.252  0.0255  0.1085 -0.2285
11538W        W27347  14.784   1.516   4.417  0.1040  0.1577  0.1721
11539W        W27348  18.229   1.399   4.157  0.1761 -0.5010  0.2084
11540W        W27349  10.267  16.793  12.672  0.1188  0.0432  0.2023
11541W        W27350  15.207   5.114  12.818  0.1665 -0.0746  0.0282
11542W        W27351   8.071  17.461   3.770 -0.3311  0.1373 -0.0238
11543W        W27352   4.854  13.473  12.186 -0.0225 -0.1080 -0.3064
11544W        W27353   0.235  14.564  13.422  0.0751  0.2465 -0.2403
11545W        W27354   4.005   7.070  15.303 -0.2071  0.0488  0.1268
11546W        W27355  15.556   0.450  14.512 -0.0658 -0.3595 -0.0204
11547W        W27356  11.487  18.118  15.195  0.1840 -0.1146 -0.1442
11548W        W27357  15.820  14.710  13.226 -0.0435  0.0102  0.2885
11549W        W27358   8.388   2.683   2.071 -0.0908 -0.0223  0.2017
11550W        W27359  12.752  11.792   5.086 -0.0707  0.0503  0.1134
11551W        W27360   5.906  10.124   5.330  0.0319  0.0155  0.2013
11552W        W27361   9.104  10.157   2.794  0.0274 -0.0323  0.2984
11553W        W27362  12.700   9.972   3.133  0.0370  0.3169  0.1455
11554W        W27363  11.047   2.803   2.127  0.0495  0.1448  0.1144
11555W        W27364  16.781   3.704   1.409 -0.0426 -0.0978 -0.0338
11556W        W27365   5.819   7.479  11.236 -0.0693 -0.1859  0.0541
11557W        W27366  11.356   1.709  11.386  0.0177  0.0014  0.4104
11558W        W27367  10.796   8.240  14.319  0.3339  0.1658  0.1880
11559W        W27368  13.255  14.791   3.714 -0.1274 -0.1368 -0.0124
11560W        W27369   5.436  15.914   1.408  0.1254  0.0260 -0.2107
11561W        W27370  17.211  11.334   3.296 -0.0582  0.0998  0.2221
11562W        W27371   3.659  14.464  14.652 -0.0944 -0.0881 -0.0719
11563W        W27372  15.674   3.055  13.700 -0.0111 -0.1626 -0.0567
11564W        W27373   1.973   3.710   2.072  0.0323  0.1746 -0.0412
11565W        W27374   7.383   9.594   3.463  0.0071 -0.0450  0.0912
11566W        W27375   8.614   2.257  14.838 -0.1199 -0.0109  0.2583
11567W        W27376   6.968  14.195  13.982  0.3435 -0.0260  0.0082
11568W        W27377  13.035   8.988   4.090  0.1292 -0.3597 -0.1265
11569W        W27378   2.900  10.154  10.763 -0.0220 -0.1099 -0.0893
11570W        W27379  16.960  10.272  14.166  0.1915  0.0247 -0.0410
11571W        W27380   1.528   7.128   0.293  0.0029 -0.1484  0.0452
11572W        W27381   9.718  12.046   2.637  0.4422  0.0841  0.2325
11573W        W27382  11.972   4.616  12.602 -0.0117 -0.0417  0.1786
11574W        W27383  13.322  10.308   1.846  0.2752 -0.0906 -0.0398
11575W        W27384   3.882   1.814  11.093 -0.0019 -0.2209  0.0666
11576W        W27385   6.162   2.396  10.842 -0.1477 -0.2583  0.2902
11577W        W27386   6.891   6.476   2.842 -0.3244 -0.0583 -0.0978
11578W        W27387   0.110   7.002   2.028  0.0219  0.0129  0.1167
11579W        W27388   8.060  10.844   4.675 -0.1298  0.1379  0.2197
11580W        W27389  15.538  15.408  12.093 -0.2867  0.1938  0.1668
11581W        W27390  16.991   0.116   1.918  0.2843  0.1982 -0.0882
11582W        W27391  11.860  13.945  12.181 -0.1006  0.0455  0.2890
11583W        W27392   0.921  17.834   0.047 -0.0645  0.0087  0.0272
11584W        W27393   5.156   3.992  13.404 -0.0549 -0.2390  0.1093
11585W        W27394  13.844  12.191   1.019 -0.0712 -0.0033 -0.1186
11586W        W27395  14.398   7.925   2.420  0.0465  0.0605  0.1587
11587W        W27396   7.519   5.892   4.044 -0.1107 -0.1518 -0.1444
11588W        W27397   6.463  12.483  12.706 -0.0231  0.0653 -0.2160
11589W        W27398   6.541  10.060   2.022  0.2607  0.1235  0.1749
11590W        W27399  17.724  16.988  15.189  0.2436 -0.1753  0.1527
11591W        W27400   3.179  13.419  11.765  0.1259  0.1845  0.3156
11592W        W27401   1.602   5.052  13.183 -0.0259 -0.2481 -0.0170
11593W        W27402  12.162  13.748  12.969  0.0034  0.1583 -0.0563
11594W        W27403  11.800   8.119  12.474 -0.2554  0.3391  0.0427
11595W        W27404  11.959   9.961   3.919 -0.1417 -0.0123  0.0239
11596W        W27405  12.397  14.498   3.329  0.1056 -0.0558  0.0653
11597W        W27406   1.411   7.022   1.526  0.4591 -0.0787  0.1841
11598W        W27407   8.632  15.468   0.223 -0.1325  0.0546 -0.1207
11599W        W27408  13.231  13.875  11.659  0.0827 -0.0058  0.0133
11600W        W27409   3.553   4.911   1.622 -0.0930 -0.0921  0.0583
11601W        W27410  16.188   3.578  15.552 -0.3444 -0.1960 -0.1008
11602W        W27411   5.319   7.610  14.107 -0.2753  0.3158 -0.0714
11603W        W27412  11.605   9.928   0.360 -0.0885 -0.1944 -0.0781
11604W        W27413  13.763   7.390   0.619  0.3811  0.0533 -0.0242
11605W        W27414   9.318  16.616  14.607  0.2564 -0.0831  0.0670
11606W        W27415   9.265   2.537   1.857 -0.2059 -0.0664 -0.0265
11607W        W27416  11.433  11.363  12.334  0.0936  0.2204  0.0203
11608W        W27417   3.600  15.469  11.577 -0.1217 -0.1217 -0.0847
11609W        W27418   1.169   2.130   3.197  0.0701  0.2443  0.1433
11610W        W27419  14.702   5.547   0.091  0.0234 -0.0519  0.3415
11611W        W27420  12.396   7.890  14.494  0.2934  0.2012  0.0678
11612W        W27421  15.751  14.785  14.357  0.2630 -0.0320 -0.3453
11613W        W27422  17.764   2.337  12.998 -0.1159  0.3101  0.0813
11614W        W27423   6.254   1.748   5.520 -0.0523  0.2164  0.1005
11615W        W27424   9.817   5.033   2.210  0.2256 -0.2916 -0.0479
11616W        W27425  13.872   6.281   3.672  0.4692  0.0360 -0.0814
11617W        W27426  10.950  11.522   3.271 -0.0960  0.1241  0.3975
11618W        W27427  10.328   1.249   6.000  0.4451  0.1526  0.0188
11619W        W27428   8.972   4.749  11.388  0.0308 -0.0079  0.3467
11620W        W27429  16.722   2.984  14.496  0.0243  0.0317  0.2122
11621W        W27430   3.201   0.359  12.566 -0.1998  0.1832  0.2090
11622W        W27431   1.119   9.384   3.277  0.1275 -0.0932 -0.0990
11623W        W27432   4.110  15.713   3.149  0.1939 -0.2316 -0.1091
11624W        W27433  16.553  12.565   2.790  0.0293  0.1475 -0.0335
11625W        W27434  14.498   9.602  15.130  0.2255  0.0800  0.3267
11626W        W27435   5.274   9.077   2.345 -0.0162  0.0161 -0.0867
11627W        W27436   1.114  18.213   4.237  0.0941  0.1934  0.0263
11628W        W27437  11.039  14.489  15.260 -0.1047 -0.1339  0.3607
11629W        W27438  13.473  10.246  12.907 -0.0820  0.1287  0.2471
11630W        W27439  13.983  13.543   0.849  0.1532  0.3298  0.2023
11631W        W27440  11.010  17.921   3.202 -0.1764  0.1031 -0.0729
11632W        W27441   1.656   8.556  13.516  0.1563  0.0772 -0.1441
11633W        W27442  11.753  17.942  13.200  0.0122 -0.0240  0.0925
11634W        W27443   1.108   4.183   4.121 -0.1726  0.0313  0.0979
11635W        W27444   4.909   1.722   4.167  0.1833  0.1275 -0.0993
11636W        W27445   2.684  16.965  11.213  0.0749  0.1245 -0.0153
11637W        W27446   2.419  11.511  10.954 -0.3068  0.2992 -0.0892
11638W        W27447  17.168  17.311  14.366  0.4783  0.0133  0.0200
11639W        W27448   1.445  17.356  14.814  0.1061 -0.3902  0.2218
11640W        W27449   4.205  13.794   1.635 -0.1275 -0.3369  0.2373
11641W        W27450  17.228  17.797  14.012  0.0564 -0.2132 -0.0410
11642W        W27451   9.082   2.636  15.840 -0.1462  0.0158 -0.0536
11643W        W27452  13.866   0.180  15.077  0.2397 -0.2499 -0.2899
11644W        W27453   2.797  12.650  12.376 -0.1308  0.3017 -0.1752
11645W        W27454   0.419   6.953   1.121  0.0525 -0.1319  0.1682
11646W        W27455   8.081   9.387  13.721  0.0362 -0.0784 -0.0029
11647W        W27456   7.060  11.219  11.306 -0.2070 -0.1017 -0.0190
11648W        W27457  12.056  12.009  11.168 -0.1456 -0.1629  0.0308
11649W        W27458   5.127  14.648   2.034  0.1577  0.0410  0.2266
11650W        W27459   0.699  13.229   1.990  0.2056  0.0314  0.3127
11651W        W27460   2.384  10.702   4.265 -0.0800  0.3459 -0.1922
11652W        W27461  18.195   3.277  15.706  0.1058  0.1741  0.0435
11653W        W27462   3.798  13.861   1.932 -0.1612 -0.2237 -0.1164
11654W        W27463   9.904  10.965   1.958  0.1978 -0.1286  0.1932
11655W        W27464  12.803   9.581  10.460  0.1929 -0.1064 -0.0364
11656W        W27465   6.135  12.368  12.334 -0.1354 -0.1954 -0.2185
11657W        W27466   4.765   6.673   0.742 -0.2471  0.0217 -0.1008
11658W        W27467  17.607   6.807  13.410  0.3267  0.1264 -0.0483
11659W        W27468  12.011   5.294   4.540 -0.1192 -0.0196  0.0452
11660W        W27469   8.521   8.956   4.721  0.1869  0.0587 -0.1008
11661W        W27470  15.161  16.571   1.429 -0.4140  0.0059  0.1193
11662W        W27471  11.083   9.438   0.959 -0.1191  0.0177 -0.2083
11663W        W27472   9.566  13.618   5.464 -0.0153 -0.2631  0.1018
11664W        W27473  13.150   9.685   2.864 -0.2904 -0.0924 -0.0665
11665W        W27474  13.444   9.375  12.764  0.1910  0.2006  0.0641
11666W        W27475   5.571  11.673   1.274  0.0943 -0.0154  0.0128
11667W        W27476   0.942  12.700   4.999  0.0169 -0.0134 -0.1058
11668W        W27477   5.724   2.159   2.334 -0.0206  0.3087  0.3932
11669W        W27478   7.784   5.247   4.569 -0.0643 -0.1911 -0.2613
11670W        W27479   1.368   0.824  11.492 -0.2174 -0.0729 -0.1928
11671W        W27480  14.817   0.058  14.124 -0.1061  0.4092  0.1000
11672W        W27481   7.691  15.473  11.173 -0.1603 -0.2141  0.3023
11673W        W27482  13.179   4.606  11.793  0.3492  0.1887 -0.3342
11674W        W27483  10.906  11.480  15.474 -0.3176  0.1753 -0.1379
11675W        W27484  15.280  17.982   5.493 -0.0667 -0.2892  0.0693
11676W        W27485   2.664  16.114  11.861 -0.2188 -0.1150  0.2024
11677W        W27486   4.293   0.119   1.071  0.2395 -0.0165  0.2214
11678W        W27487   7.909  15.208   2.201  0.0250  0.0306  0.0047
11679W        W27488  16.371  12.040   0.202 -0.0478 -0.1255  0.2093
11680W        W27489   9.851  17.466   0.165  0.0207 -0.2094  0.4035
11681W        W27490  11.425   5.160   3.304  0.2080 -0.1690 -0.1986
11682W        W27491   7.596   6.738  15.045  0.1040  0.2371  0.0550
11683W        W27492   1.301   9.093  12.739  0.1891  0.1816 -0.0225
11684W        W27493  12.146  10.075   2.360 -0.1105 -0.1348 -0.1264
11685W        W27494   8.655  12.689   2.866  0.0709 -0.0515  0.2053
11686W        W27495   2.428   2.499   4.017 -0.1395 -0.0670  0.0415
11687W        W27496  12.755   0.306   0.580 -0.0857  0.2128 -0.3183
11688W        W27497   6.663   1.977   3.229  0.3583  0.0529  0.0021
11689W        W27498  17.223  13.454   1.031  0.2456 -0.0969  0.2759
11690W        W27499  13.568   3.543   2.211 -0.0551  0.1304 -0.1354
11691W        W27500   1.961   2.666   2.322 -0.1219 -0.1877 -0.0244
11692W        W27501  18.027  13.927  11.775  0.0580  0.0184  0.1679
11693W        W27502  11.405  10.927  14.255 -0.2686 -0.1792  0.1324
11694W        W27503  10.735  17.103  11.383  0.1084  0.0115  0.1484
11695W        W27504   4.170   0.614   5.123  0.1621 -0.2491  0.0941
11696W        W27505   8.278   4.180   0.028 -0.0774  0.0562  0.0219
11697W        W27506   2.017  15.746   1.307  0.0854  0.2184 -0.1390
11698W        W27507   3.236  10.998  15.190  0.0026 -0.1027 -0.0006
11699W        W27508  11.276  14.769   0.895  0.0014  0.0185 -0.3086
11700W        W27509  16.088   8.908  12.121  0.0396 -0.2462 -0.4735
11701W        W27510   2.133  14.093  15.507  0.2048 -0.1698  0.2517
11702W        W27511   8.904   0.051  11.825 -0.2239  0.1787 -0.1999
11703W        W27512   5.232  10.631  13.541 -0.0371  0.1861  0.0383
11704W        W27513   1.179   4.958   4.056  0.1299 -0.1320  0.0477
11705W        W27514  10.844  11.113  12.979 -0.1417 -0.0847 -0.0885
11706W        W27515   0.626  13.788  14.348 -0.2376 -0.1445 -0.0684
11707W        W27516  10.132  12.589  15.473 -0.0245  0.0495  0.0041
11708W        W27517   1.153  13.241   5.072 -0.3057 -0.4578 -0.0950
11709W        W27518   4.011  13.060  11.902 -0.1375  0.2513 -0.0898
11710W        W27519   6.912  15.473  13.404  0.0566 -0.0331  0.1728
11711W        W27520  15.265  13.645   0.182  0.0545  0.0880 -0.1159
11712W        W27521   2.238  15.965  11.181 -0.0838 -0.2668  0.2001
11713W        W27522   1.823   5.554  15.103 -0.2446 -0.0659  0.1401
11714W        W27523  14.713  10.819   3.189 -0.1980 -0.2556 -0.0042
11715W        W27524   3.639   4.753   5.522 -0.0852  0.2102  0.2716
11716W        W27525   9.860  13.111  11.746  0.2540 -0.0915 -0.1273
11717W        W27526   6.971   2.957   3.782  0.2182  0.0986  0.1428
11718W        W27527  14.744   5.236  12.598 -0.3932 -0.0665  0.3506
11719W        W27528  11.785  16.985  15.343  0.2125  0.1308  0.0387
11720W        W27529   8.014  15.300  10.761 -0.1978  0.2404 -0.0463
11721W        W27530   2.053  10.265  11.775  0.3477  0.0701  0.1240
11722W        W27531   8.625  13.718  11.652 -0.1645 -0.1069 -0.2035
11723W        W27532   6.068   0.550  14.989  0.0707 -0.1547 -0.0458
11724W        W27533   9.226  18.057   5.712  0.1000  0.0130 -0.0297
11725W        W27534  11.451  12.512   5.398 -0.1562 -0.0560 -0.0837
11726W        W27535   5.878  12.303  15.016  0.4364  0.0768  0.2698
11727W        W27536   6.369  11.305  13.444  0.1853 -0.0778  0.0986
11728W        W27537  15.201  16.682  11.322 -0.0686  0.0453 -0.2198
11729W        W27538  16.247   9.398   1.007  0.0144  0.1764 -0.0777
11730W        W27539   7.814  13.772  15.669 -0.0639 -0.0236  0.0897
11731W        W27540  14.607   9.415  14.188 -0.1281  0.0606  0.1864
11732W        W27541   0.551  10.993  13.171 -0.1308 -0.1980  0.1365
11733W        W27542   1.846   3.064  13.933 -0.0427 -0.0629  0.1137
11734W        W27543  11.299  10.547   1.531 -0.0551  0.0437  0.1448
11735W        W27544  11.228  15.308   5.334  0.2000 -0.2131 -0.0266
11736W        W27545  18.188   3.901  13.582  0.0962  0.2129  0.1889
11737W        W27546  13.219  11.225  12.817  0.0910  0.1055  0.2317
11738W        W27547  13.364   8.043   2.699  0.1186 -0.3012 -0.0488
11739W        W27548   3.787   4.070  15.411 -0.0388  0.3090 -0.0398
11740W        W27549  11.117   1.210   2.633  0.2999 -0.3054 -0.0005
11741W        W27550  14.223  16.390   2.238  0.0575 -0.2200 -0.1403
11742W        W27551   7.285  12.364   2.672 -0.2407  0.3047  0.2022
11743W        W27552  16.942   5.965  13.988 -0.1957  0.2328  0.0392
11744W        W27553  10.006  12.858  11.173  0.1331  0.0102  0.0211
11745W        W27554   8.907  13.996   0.488  0.3162 -0.3101 -0.3085
11746W        W27555  17.982  12.018  15.371 -0.0282 -0.0406 -0.3330
11747W        W27556  15.671   4.742   4.564 -0.1501  0.1714 -0.2107
11748W        W27557   2.148   7.276  12.356  0.0906  0.0056  0.1561
11749W        W27558  15.953   1.263  14.694  0.0140  0.1122  0.1429
11750W        W27559  18.192  10.571  15.457 -0.2024  0.1985 -0.6740
11751W        W27560  14.839   1.441  11.839 -0.1316 -0.1932 -0.0891
11752W        W27561   9.664   4.875  14.496  0.0608  0.3603  0.0383
11753W        W27562   1.488  12.352   5.093 -0.0234 -0.0049 -0.0033
11754W        W27563   5.255   3.503   3.309 -0.1273 -0.0340  0.0607
11755W        W27564  15.542   8.343  15.854 -0.0795 -0.1224 -0.1717
11756W        W27565   0.397   7.085  11.599  0.0966 -0.0389 -0.2411
11757W        W27566  10.148   0.758   2.938  0.3539  0.3131  0.0518
11758W        W27567  12.283  13.957  12.512  0.1967 -0.1921  0.0673
11759W        W27568   7.941   6.939   4.761 -0.1830  0.1754 -0.1581
11760W        W27569   5.657   7.381  13.813 -0.3487 -0.0669 -0.1011
11761W        W27570   4.524   4.666   3.668  0.1674  0.3659  0.1954
11762W        W27571  12.010  13.395   0.498  0.0263  0.0849 -0.0342
11763W        W27572   6.429  15.096  14.908 -0.0634  0.0070  0.2007
11764W        W27573  11.544  17.874  11.697 -0.1213 -0.0451  0.0504
11765W        W27574   8.780   2.910   2.635 -0.1062  0.1331  0.0821
11766W        W27575   9.141   7.896  15.926  0.0022  0.2737 -0.1442
11767W        W27576  11.737   9.853  12.815  0.0829  0.2676  0.3124
11768W        W27577   7.318   1.824  14.675  0.0318  0.0831  0.1483
11769W        W27578  14.099  17.351   1.733  0.0379 -0.3005  0.1501
11770W        W27579  15.789   5.280  15.526 -0.3841 -0.1416  0.0925
11771W        W27580   3.426   1.101  15.401 -0.2637  0.1516  0.1682
11772W        W27581  14.610   7.520  12.321 -0.0384  0.1219 -0.0059
11773W        W27582  17.984   6.073   1.562 -0.1922 -0.4257 -0.2010
11774W        W27583   1.019  14.493  14.606  0.0962 -0.3732  0.4461
11775W        W27584  14.456   1.978   1.856  0.4534 -0.1641 -0.0554
11776W        W27585   8.108   9.961  12.454 -0.3282  0.2705  0.1057
11777W        W27586   7.046  10.483   4.379 -0.2153  0.2535  0.0416
11778W        W27587  15.847   8.322  13.142  0.0265 -0.1105 -0.2262
11779W        W27588  12.521   2.940  12.255 -0.0186 -0.0142  0.0157
11780W        W27589  10.709  11.956   3.333 -0.2557 -0.2456 -0.2620
11781W        W27590  17.270  17.605  11.465 -0.0627  0.0169 -0.0472
11782W        W27591   4.255   6.407   2.509 -0.4567 -0.2002  0.1564
11783W        W27592   5.609   0.636   0.513  0.0969  0.1157  0.4453
11784W        W27593  18.237  12.482   0.663 -0.0630 -0.0650  0.0896
11785W        W27594  16.864   3.055   2.971 -0.0093  0.0594 -0.1469
11786W        W27595   2.583  11.457  14.379 -0.1288  0.3519  0.1049
11787W        W27596  11.995  15.345  14.155 -0.0392 -0.2320  0.3443
11788W        W27597   4.184  17.026  12.653 -0.1950 -0.1102  0.0889
11789W        W27598   9.864  10.524  15.780 -0.0210 -0.0299  0.0643
11790W        W27599  17.780   6.647  10.360  0.1766 -0.0078  0.0976
11791W        W27600   5.604   2.687   1.277 -0.0445 -0.2224  0.1873
11792W        W27601   3.007  13.738   2.427  0.0280  0.0348  0.1845
11793W        W27602  18.143  15.105   2.757  0.1985  0.3718 -0.0030
11794W        W27603  10.187  13.717   2.035 -0.2781 -0.0627  0.0500
11795W        W27604   2.902  18.171   4.802 -0.3576  0.3308  0.0730
11796W        W27605  12.278  16.047   6.047  0.3754 -0.1113 -0.3509
11797W        W27606  13.881   8.930  14.950 -0.1684  0.0239 -0.2003
11798W        W27607   4.565   2.079   4.184 -0.1006  0.4202 -0.0263
11799W        W27608  11.980   4.855   3.812  0.1814  0.0569  0.2760
11800W        W27609  13.137  13.796   3.725 -0.1231 -0.1103  0.0241
11801W        W27610   8.418  17.745  15.172  0.0000  0.2258  0.1467
11802W        W27611  15.735   7.089   4.526  0.1388 -0.0620  0.6755
11803W        W27612   6.390   9.400  11.135 -0.0375  0.0510 -0.0422
11804W        W27613   7.233  15.212   4.273 -0.2451 -0.0229 -0.0168
11805W        W27614   1.901   2.038  14.900  0.1440  0.3928  0.0463
11806W        W27615   8.421  18.230   0.947 -0.1615  0.1193  0.2194
11807W        W27616   1.040  14.343  11.943 -0.1154 -0.0314  0.1657
11808W        W27617  16.905  12.960  14.783  0.3267  0.2987  0.1465
11809W        W27618   5.514   1.008   2.819  0.2974 -0.0972 -0.0614
11810W        W27619   8.065   8.761  10.157  0.3295  0.1967 -0.0324
11811W        W27620  13.504  14.392  11.523 -0.0186  0.2014 -0.0428
11812W        W27621   7.355   9.903  11.775 -0.1026 -0.0719 -0.0973
11813W        W27622  15.011  15.626  15.873 -0.4365  0.2049  0.0148
11814W        W27623   2.355   0.783  14.585  0.0585  0.0911 -0.1768
11815W        W27624  17.537  13.435   3.552 -0.2483  0.0976 -0.3690
11816W        W27625   0.886   4.910  13.497 -0.1341 -0.1419  0.0998
11817W        W27626   0.580   7.649  13.110  0.0014 -0.1958 -0.2047
11818W        W27627  12.359   9.181   2.828  0.0796 -0.2236 -0.4227
11819W        W27628  12.270   1.730   5.116  0.1564 -0.0824  0.1277
11820W        W27629   0.097   5.356   3.057 -0.0666  0.1817 -0.0460
11821W        W27630  16.799  11.562  12.718  0.1564 -0.0006  0.1145
11822W        W27631  11.222   9.265  15.032 -0.1796  0.1514  0.2142
11823W        W27632   7.047  10.707  12.105  0.0224  0.1424  0.0978
11824W        W27633  16.659   0.719   1.443 -0.0923 -0.2813  0.1664
11825W        W27634  15.684   1.222  14.082 -0.0376 -0.0425  0.2438
11826W        W27635  11.959   1.791   1.399  0.1671  0.1675 -0.0886
11827W        W27636  11.933   3.761   5.574  0.0249 -0.0903 -0.1275
11828W        W27637   8.203   0.569   1.584  0.0299 -0.0604 -0.0488
11829W        W27638   7.907  15.339  12.492  0.0725 -0.1453 -0.2474
11830W        W27639  13.327   9.698   2.041  0.1762  0.0706  0.0459
11831W        W27640   3.729   2.475   5.470 -0.0544  0.3204  0.1328
11832W        W27641   2.195  14.713   2.678  0.2550  0.1672  0.1819
11833W        W27642   0.143  17.751   3.774 -0.2072  0.0740  0.0087
11834W        W27643   4.554   9.490   4.957  0.2249  0.3603 -0.2318
11835W        W27644  17.160   9.048  16.006 -0.1300 -0.1418 -0.0724
11836W        W27645   7.361  14.516   2.255 -0.0909 -0.0792  0.0599
11837W        W27646  13.041  15.012  12.560 -0.0591 -0.0345 -0.1614
11838W        W27647   5.274   4.656   0.426 -0.1978 -0.0149  0.3484
11839W        W27648  10.195   6.958  14.877 -0.0386 -0.3138 -0.1717
11840W        W27649  10.299   6.596  15.990 -0.2455 -0.0027  0.0073
11841W        W27650   2.694  16.085   2.194 -0.2059  0.0908  0.0334
11842W        W27651   4.814   9.181   2.485 -0.1913 -0.5209  0.2745
11843W        W27652  17.846   1.644   0.838  0.0395  0.0458  0.1056
11844W        W27653  10.453   5.257  12.987  0.1266 -0.2550  0.3230
11845W        W27654  12.134  10.744  11.001  0.1789  0.1614  0.0268
11846W        W27655  12.390   3.176   3.110 -0.0371  0.0249 -0.0654
11847W        W27656   2.214   4.379  11.024  0.3097  0.1556 -0.1299
11848W        W27657   0.990  11.147  12.998 -0.0310  0.0929  0.2995
11849W        W27658  17.860   2.220  12.197  0.0673 -0.1757 -0.3220
11850W        W27659   6.413  12.585  14.873 -0.1831  0.0106 -0.0962
11851W        W27660   8.008   5.546   5.253 -0.0330 -0.0334 -0.0929
11852W        W27661   8.855   8.393   4.875 -0.0339 -0.0850  0.0514
11853W        W27662   3.543   7.030   4.508 -0.0228  0.0046  0.0461
11854W        W27663  14.879   8.197   0.263 -0.1051  0.0952  0.1379
11855W        W27664  12.202  10.491   2.609  0.2633  0.1386  0.0891
11856W        W27665  13.797   1.814  11.751 -0.0222 -0.0275  0.3297
11857W        W27666   5.398  17.031  15.426 -0.3432 -0.1063 -0.0049
11858W        W27667   3.707   9.103  12.541 -0.2655  0.0777 -0.3038
11859W        W27668  17.355  13.157   2.476 -0.2923 -0.2933  0.1731
11860W        W27669   0.548  10.455   0.960 -0.0477  0.2986  0.1038
11861W        W27670   6.681   5.580  10.746 -0.0071 -0.0415  0.3466
11862W        W27671   5.336   8.812  10.836  0.2905  0.1882 -0.1828
11863W        W27672  10.714   4.587   4.797  0.1304 -0.1121 -0.1189
11864W        W27673  12.586   2.304   0.334 -0.2991  0.0228  0.1102
11865W        W27674  14.143  18.146  12.519 -0.0592  0.0969  0.0825
11866W        W27675  13.618   4.551   2.232  0.2778 -0.0152 -0.1182
11867W        W27676  11.727   1.722   2.013 -0.1311  0.0069 -0.2720
11868W        W27677   0.227   5.702   0.246 -0.1141  0.4391 -0.3276
11869W        W27678   2.658   1.606  11.851  0.2507 -0.0516  0.1644
11870W        W27679   8.706  10.483  15.578 -0.1758 -0.0921  0.3749
11871W        W27680  10.863   0.106  13.288 -0.2138  0.3054 -0.2830
11872W        W27681   7.494   1.310   0.113  0.0778 -0.0640  0.2472
11873W        W27682   4.254  12.193   3.247  0.0778 -0.0645 -0.3361
11874W        W27683   1.424  15.285   4.982 -0.0363 -0.0687  0.0297
11875W        W27684   9.463   4.858  15.814 -0.0458 -0.0672 -0.3252
11876W        W27685   2.624  11.945   4.449  0.1517  0.1592 -0.3886
11877W        W27686  17.464   2.827   1.776  0.0411  0.2343  0.0165
11878W        W27687   6.479   0.188   2.348  0.0879  0.1587 -0.0796
11879W        W27688  18.268  12.436   3.350 -0.1613 -0.1503  0.3207
11880W        W27689   7.552   2.139  15.722 -0.0280 -0.1235  0.0948
11881W        W27690   1.062  15.766   2.391 -0.1183 -0.3277  0.0695
11882W        W27691   9.050   4.616  15.073  0.2395  0.2527  0.2793
11883W        W27692   2.366   9.013   2.043  0.1267  0.2043 -0.2052
11884W        W27693  15.517   6.672   2.245 -0.1687 -0.0545 -0.0991
11885W        W27694  12.232   6.120  12.674  0.0350  0.2351 -0.2027
11886W        W27695   8.049  13.753  15.251  0.2029  0.2225 -0.0573
11887W        W27696   2.694   6.887  14.007  0.1641  0.1045  0.1467
11888W        W27697   7.682  15.090   4.535  0.0259 -0.0503 -0.0566
11889W        W27698   7.612   1.043   5.082  0.1169  0.0154 -0.0830
11890W        W27699   3.698   7.671   1.859 -0.3475  0.0694 -0.0021
11891W        W27700   9.228  14.246  13.215 -0.1293  0.1868  0.1190
11892W        W27701  12.490  13.238   2.041  0.3191 -0.1752  0.1480
11893W        W27702   3.848   9.007  13.525  0.3144 -0.1938  0.0939
11894W        W27703  17.455   6.420  15.867  0.1314 -0.1266 -0.0625
11895W        W27704  12.373   4.197  15.823 -0.0949 -0.2679  0.1895
11896W        W27705  10.905   1.436  15.169 -0.0677  0.0262 -0.0791
11897W        W27706   9.317   6.079  13.575 -0.0693  0.2186  0.1716
11898W        W27707   6.661   9.943  14.153 -0.2414 -0.0528 -0.2431
11899W        W27708  12.276  11.251  13.015 -0.2688  0.0118 -0.2774
11900W        W27709  14.960  17.310   3.239 -0.2437 -0.0537 -0.0235
11901W        W27710  10.353   6.987   4.601  0.1680  0.1620 -0.0241
11902W        W27711   2.321  16.319  11.536 -0.0861  0.1323  0.0580
11903W        W27712   3.515   6.284   9.745 -0.0239 -0.0149  0.2853
11904W        W27713  10.128  17.705  15.421 -0.0653 -0.2465 -0.2789
11905W        W27714   8.768   4.342   3.974  0.1364  0.0705 -0.4993
11906W        W27715   2.134   9.672  14.268 -0.2485  0.1717  0.0431
11907W        W27716   5.976  10.697   0.478  0.2431  0.2114  0.1588
11908W        W27717  11.328   7.336   1.680 -0.5352 -0.0702 -0.0498
11909W        W27718  14.291   5.311   5.877 -0.1538 -0.1060  0.0438
11910W        W27719   3.039  17.654  13.739  0.0418 -0.2870  0.0824
11911W        W27720   5.113  16.982   1.463  0.0219 -0.0133  0.5154
11912W        W27721   6.944  15.162   0.444  0.1029  0.1002  0.3113
11913W        W27722   5.734   9.044   1.257 -0.0999  0.0748 -0.0527
11914W        W27723  13.060   5.142   1.432  0.1764 -0.1000 -0.0756
11915W        W27724   4.174  13.617   2.190  0.0271  0.0813 -0.1399
11916W        W27725   7.842  15.161   2.730 -0.0558  0.0865 -0.0870
11917W        W27726  16.893  14.286  12.529 -0.0468  0.0527  0.0150
11918W        W27727   9.140   7.624  14.280  0.0193 -0.1361 -0.0119
11919W        W27728   9.008   1.506  13.304 -0.0372 -0.0800  0.1164
11920W        W27729   8.153   0.126  12.909  0.0851  0.1580  0.2675
11921W        W27730  12.817  17.277  13.785 -0.0580 -0.0521  0.1858
11922W        W27731   1.303  15.422  13.091 -0.0941  0.1865 -0.1946
11923W        W27732  13.858   2.096   4.682  0.0260  0.2060 -0.0745
11924W        W27733   3.708   9.781   0.999  0.2345  0.0311 -0.0588
11925W        W27734   9.720   4.420  13.203 -0.0188  0.0902 -0.1598
11926W        W27735  12.252   7.840   1.483  0.1696 -0.1076 -0.0405
11927W        W27736   7.619  17.521   2.510  0.1647 -0.0923  0.0343
11928W        W27737  14.129   7.304   5.245 -0.1442  0.1657  0.0983
11929W        W27738  12.752  14.782  15.974 -0.2382  0.0899 -0.2460
11930W        W27739   8.510   3.519   2.902  0.2231 -0.2175  0.1350
11931W        W27740  14.727   5.136   2.063  0.1576  0.0944 -0.1133
11932W        W27741  14.941   5.033  13.338 -0.1160  0.0031 -0.3393
11933W        W27742   2.217   7.288  14.995 -0.0420  0.3215 -0.3335
11934W        W27743   3.647  12.533  12.754 -0.0415  0.0184  0.1591
11935W        W27744  10.682   5.816   4.085 -0.0925 -0.3204  0.0633
11936W        W27745  11.626   3.805   1.187 -0.1951 -0.1415 -0.1166
11937W        W27746  11.430   5.653   1.223 -0.0630 -0.1586 -0.2341
11938W        W27747  13.849  17.810  12.829 -0.0060 -0.0375  0.0196
11939W        W27748   0.175   9.755   3.759 -0.1548  0.3913  0.1658
11940W        W27749   0.352   5.008   0.944 -0.0892 -0.3087 -0.0535
11941W        W27750  15.854   7.205   5.037 -0.1065  0.0571 -0.0510
11942W        W27751   9.486   8.248   0.211  0.1058 -0.0536  0.0003
11943W        W27752   6.451  16.777   4.532 -0.1389  0.1981  0.1432
11944W        W27753   3.032   3.874  11.082 -0.1651  0.1051 -0.2186
11945W        W27754   7.862   5.050   0.192  0.1950  0.3928 -0.2791
11946W        W27755   8.495  13.908   2.446  0.0091  0.0337 -0.0759
11947W        W27756  10.532  10.935   0.371 -0.0033  0.1607 -0.0443
11948W        W27757  14.193  11.894   0.715 -0.0769  0.0214 -0.2713
11949W        W27758   5.645  12.763  15.939  0.0239 -0.1667 -0.1214
11950W        W27759  10.891   1.979  11.546  0.2183  0.1567 -0.0594
11951W        W27760   7.281   1.730  15.597 -0.2613  0.1823  0.0528
11952W        W27761   2.666  14.516  14.259 -0.4011  0.1093  0.1253
11953W        W27762  10.243  15.997  13.246 -0.1752  0.0470  0.3019
11954W        W27763  12.722  11.632   4.611  0.0125  0.2880 -0.0905
11955W        W27764   4.702   6.103   2.124 -0.2450  0.1230  0.0314
11956W        W27765   0.902   1.271  13.150  0.4626  0.2252  0.0956
11957W        W27766  13.870  11.786   2.021  0.1604 -0.0695  0.3506
11958W        W27767   8.588  11.500   0.555  0.3800 -0.0152  0.1073
11959W        W27768   8.577  14.819  12.172 -0.2348 -0.0616  0.0683
11960W        W27769   7.649  16.541   3.438 -0.0666  0.2359 -0.2349
11961W        W27770   1.640   0.524  15.843  0.0804  0.0820 -0.1340
11962W        W27771  16.559  15.225  15.583  0.0510 -0.0030  0.0512
11963W        W27772  11.696   9.526  11.291  0.2390 -0.0896  0.0140
11964W        W27773  15.159   3.566   2.358  0.0896 -0.0116 -0.3122
11965W        W27774   8.292  17.889   2.058  0.0952 -0.0463 -0.1695
11966W        W27775   8.731  10.336   3.697 -0.1431  0.1397  0.1377
11967W        W27776   7.088   6.562  15.507  0.0586  0.2147 -0.1212
11968W        W27777   3.883   9.287  11.236 -0.4162  0.2993  0.0270
11969W        W27778   2.887   3.629  15.019  0.0162  0.0289 -0.1918
11970W        W27779  15.468   6.936  16.027  0.2512 -0.2462  0.0686
11971W        W27780   8.904  15.698   0.722  0.2473 -0.1278  0.1356
11972W        W27781  17.073  12.033   1.082 -0.1790 -0.1544 -0.0263
11973W        W27782  12.160  16.771  14.516  0.1479  0.1424  0.1936
11974W        W27783  18.011   5.154  14.906 -0.1001 -0.2071  0.2200
11975W        W27784  16.602   4.126  12.881 -0.1555 -0.0997  0.0793
11976W        W27785  13.882   7.175   3.739 -0.1913  0.2506 -0.1098
11977W        W27786   3.778  16.993   4.533  0.1853  0.3563 -0.1614
11978W        W27787  18.019   1.725   1.662 -0.2292 -0.1417  0.0128
11979W        W27788  14.830   2.476   0.711 -0.0740 -0.1337  0.1421
11980W        W27789  10.437  11.431   3.073 -0.2287 -0.0013 -0.0235
11981W        W27790  15.678   7.785   0.500  0.0378 -0.1140  0.0269
11982W        W27791  14.436  10.676   4.819 -0.0370 -0.0785 -0.0494
11983W        W27792  14.301   9.989  15.333  0.4234  0.0766 -0.1054
11984W        W27793  13.390   1.302  14.183 -0.2994 -0.0272 -0.0724
11985W        W27794  17.512   6.816   5.086 -0.0823  0.0682 -0.1053
11986W        W27795  11.381   7.004  11.708  0.0622 -0.1417  0.1681
11987W        W27796   5.300   6.023   0.993 -0.3186 -0.0927  0.3075
11988W        W27797  11.302  12.831   4.461  0.0438 -0.1850 -0.2761
11989W        W27798   0.326  13.380  14.374 -0.3685  0.0722  0.0568
11990W        W27799   0.203   9.142   1.216 -0.1679 -0.1592  0.0257
11991W        W27800  15.568  10.270  14.390 -0.0274 -0.0081 -0.3847
11992W        W27801   6.867  13.691   0.873  0.2087  0.0540  0.0187
11993W        W27802  12.369  17.341  13.518 -0.0887  0.0810 -0.4848
11994W        W27803   4.046   2.645  12.596 -0.1328 -0.3845 -0.1984
11995W        W27804   9.099  11.294   0.814 -0.3710 -0.2986 -0.0096
11996W        W27805   9.598  14.764   0.696 -0.0889  0.2200  0.2180
11997W        W27806  15.514   0.000   2.863 -0.0185  0.0115  0.1911
11998W        W27807  10.179  10.632   5.415 -0.0085 -0.0459  0.1248
11999W        W27808   9.310   0.197   0.316 -0.1597 -0.0723  0.0743
12000W        W27809  13.536   9.974  14.840 -0.0593  0.1181 -0.0285
12001W        W27810  16.010   1.198  12.722  0.1675 -0.0997  0.0676
12002W        W27811   9.389   0.707  11.522 -0.2033 -0.1811 -0.0533
12003W        W27812  13.844  15.548   1.168  0.3153 -0.0736 -0.2965
12004W        W27813   5.385   1.488  15.912 -0.2358 -0.0819 -0.1454
12005W        W27814   5.925   0.782   2.720 -0.0946  0.1030  0.2032
12006W        W27815   4.518  17.857   3.573  0.2280 -0.0306 -0.1223
12007W        W27816  15.475  16.357  15.350  0.0322  0.1324 -0.1504
12008W        W27817   9.851   6.622  14.639 -0.2102  0.0503 -0.0048
12009W        W27818  15.013   1.820  13.715 -0.1605 -0.0274 -0.0460
12010W        W27819   9.481  13.855   3.390 -0.0710  0.1116 -0.0389
12011W        W27820  12.957   9.486   4.640  0.0168  0.3226  0.0607
12012W        W27821  11.267  10.545  11.284  0.0659  0.1506  0.0945
12013W        W27822  17.112   2.743   4.654  0.0329 -0.0993  0.1166
12014W        W27823   1.638  10.172   2.962 -0.4017 -0.3319 -0.2243
12015W        W27824  14.593  10.888   0.941 -0.1586 -0.0029  0.0134
12016W        W27825   5.099  15.319  13.327  0.1005 -0.0748 -0.2110
12017W        W27826   9.141   3.620  12.244 -0.0662  0.2132 -0.1599
12018W        W27827  14.505  16.113  14.730  0.3256  0.3340 -0.1128
12019W        W27828  17.376   6.682   2.615 -0.0729  0.2891 -0.1281
12020W        W27829   3.943   1.344   0.744 -0.0236 -0.0830  0.2020
12021W        W27830   6.963   8.691   2.561 -0.2937 -0.0905  0.3260
12022W        W27831  13.789  14.533  11.956 -0.3675 -0.1151  0.0845
12023W        W27832  16.105   0.160  11.326 -0.1448  0.0919  0.3317
12024W        W27833  11.002   5.209   1.486  0.0425  0.0266  0.0267
12025W        W27834  16.510  17.437   5.034  0.1450  0.1710  0.2392
12026W        W27835   7.969  15.922   0.117  0.0669  0.1704  0.1130
12027W        W27836   5.832   3.045  11.821 -0.1469 -0.3698  0.0922
12028W        W27837  11.118   2.432   4.817  0.1045  0.0114  0.2262
12029W        W27838   8.097   5.933  10.803 -0.0238 -0.0960 -0.0060
12030W        W27839   5.843   4.841  14.208 -0.4685  0.1114  0.1429
12031W        W27840   2.625   5.087  14.803  0.0952  0.0044  0.0401
12032W        W27841   7.564  14.886   1.976  0.1602 -0.1248  0.1942
12033W        W27842  15.245  13.185   1.140  0.1716  0.0428 -0.2907
12034W        W27843  14.524   9.691   0.557 -0.1660  0.3139  0.0956
12035W        W27844  14.012   5.948  12.681 -0.1080 -0.2775  0.1633
12036W        W27845  13.710  14.195   1.090  0.2034 -0.0260  0.2594
12037W        W27846   0.079  14.153   2.692 -0.2960  0.1375 -0.1057
12038W        W27847   0.484   0.940  12.866  0.0438 -0.0883  0.1391
12039W        W27848   5.205   0.082   3.178  0.1803 -0.0722  0.0815
12040W        W27849   3.903   5.609   4.824  0.0058  0.1797  0.0230
12041W        W27850  14.038   1.319   1.741  0.1867 -0.0313 -0.0125
12042W        W27851   0.515  15.316   0.282 -0.0240  0.2111 -0.1127
12043W        W27852   4.081  17.438   1.890 -0.2544 -0.1732 -0.0013
12044W        W27853   5.272   6.355  13.544  0.0726 -0.1255 -0.0127
12045W        W27854   1.936   5.876   2.667  0.0149  0.0223 -0.0695
12046W        W27855  15.673   5.180  13.529  0.2377 -0.0470 -0.0425
12047W        W27856   6.721   2.924  13.317  0.1432  0.1929  0.1716
12048W        W27857  13.751   8.904   5.146 -0.0292  0.0013  0.1308
12049W        W27858   9.190  12.630  13.110 -0.4119  0.3182  0.1218
12050W        W27859   2.101   9.801   4.975 -0.0580 -0.1001  0.2637
12051W        W27860  14.981  11.223   5.064  0.1119 -0.3774 -0.2115
12052W        W27861   2.544  16.893   2.625 -0.1726 -0.4612  0.0052
12053W        W27862   9.696  15.797  14.747  0.0220 -0.2058 -0.0203
12054W        W27863   6.689   2.617  12.925 -0.1902  0.1360 -0.0439
12055W        W27864  11.128  17.123   3.741  0.4276  0.1470 -0.3492
12056W        W27865   2.187  18.174  14.823  0.2376  0.0519  0.1841
12057W        W27866   9.557  18.202   2.352 -0.0443  0.1385 -0.1208
12058W        W27867  10.891   2.005   1.639 -0.0305 -0.0920  0.3223
12059W        W27868   0.912   2.232   0.543  0.1160  0.0901  0.0177
12060W        W27869   4.043   2.359   4.926  0.0216  0.0774  0.0395
12061W        W27870   6.405  14.515   1.472  0.5654 -0.0978 -0.1051
12062W        W27871   8.052   8.896  13.720  0.1946 -0.0440 -0.1289
12063W        W27872  11.647   2.186  11.232 -0.0029  0.0517  0.1652
12064W        W27873   8.040  11.853   2.576 -0.1125  0.1417  0.0795
12065W        W27874   2.066  17.447  15.518  0.0505  0.0550  0.2127
12066W        W27875  12.412   0.621  11.779  0.0809  0.0800 -0.0180
12067W        W27876  17.642   1.526  15.808 -0.2052  0.4150  0.0622
12068W        W27877   6.294   2.830  14.369 -0.1212 -0.1478  0.3707
12069W        W27878   8.332   8.794  10.659  0.2041 -0.0698 -0.2120
12070W        W27879  18.254  16.674  14.079  0.4839  0.0895 -0.2431
12071W        W27880   6.710  14.868  14.229 -0.3327 -0.1815  0.0308
12072W        W27881  16.254  12.818  10.368  0.3648  0.0703 -0.0321
12073W        W27882   0.605   6.766  13.487 -0.0554  0.1531 -0.1766
12074W        W27883  13.368  16.817  14.282 -0.0343 -0.2652  0.1991
12075W        W27884   2.880   0.479  10.808 -0.2912 -0.0965 -0.2223
12076W        W27885   9.991   2.399  14.324  0.3411 -0.0441  0.5233
12077W        W27886  14.994  12.368   0.582 -0.0137 -0.0678  0.0886
12078W        W27887  10.437   7.891  15.535 -0.1637 -0.0065  0.0065
12079W        W27888   6.244   0.945  15.836 -0.2221  0.0276  0.5255
12080W        W27889   3.515   2.212   2.287  0.4808  0.4245  0.2097
12081W        W27890   2.575  14.086  12.108  0.0691 -0.0184  0.0047
12082W        W27891  18.220  18.049  11.287 -0.0458  0.0908  0.0909
12083W        W27892   2.481  17.383   0.687  0.0030  0.2258  0.3463
12084W        W27893  15.650  10.690  13.332 -0.1046 -0.1011 -0.1479
12085W        W27894   0.676   6.243   5.198  0.2664 -0.1994  0.1570
12086W        W27895  13.186  10.934  14.707 -0.2751  0.0303  0.0415
12087W        W27896  16.570   9.401   3.177 -0.0113  0.1432 -0.3358
12088W        W27897  15.561   5.184  12.465 -0.1934  0.0084 -0.1835
12089W        W27898   3.168  17.417   5.115  0.1248  0.0063  0.0292
12090W        W27899   2.341   7.468  15.413  0.1318 -0.1594 -0.0109
12091W        W27900  12.453  12.530   0.544 -0.1498 -0.0422  0.1340
12092W        W27901   1.095  15.508   1.981 -0.2094  0.5034  0.2901
12093W        W27902  14.044   8.767   0.301  0.0731 -0.0119  0.1266
12094W        W27903   9.489  15.599  12.742  0.1289 -0.2502  0.1810
12095W        W27904  11.823  17.658  15.873 -0.1486  0.0438  0.2097
12096W        W27905   9.401  10.076   5.411  0.1882 -0.2157  0.0543
12097W        W27906  11.955   6.671   0.556 -0.1170 -0.1136 -0.0387
12098W        W27907   8.199  11.949   3.050  0.0965  0.0148 -0.0835
12099W        W27908   7.900  14.383   0.538  0.0626  0.0122  0.1370
12100W        W27909  14.681   6.581   2.026  0.0687  0.2212 -0.4338
12101W        W27910  12.508  11.442   3.133  0.1882  0.0917 -0.0863
12102W        W27911   0.228  14.111  14.950 -0.1942 -0.1835  0.2225
12103W        W27912   6.504  17.282  14.379 -0.1752 -0.0861  0.0215
12104W        W27913   3.366  14.307  10.238  0.1839 -0.0383  0.1305
12105W        W27914   7.939   6.094   4.314  0.1079 -0.0355 -0.0795
12106W        W27915   8.787  18.235  12.379  0.2110 -0.1547  0.0394
12107W        W27916  11.854  13.281  14.743  0.2717 -0.0111  0.1653
12108W        W27917   6.768  10.546   4.903  0.1022  0.3350 -0.2410
12109W        W27918   4.496   4.176  11.107 -0.2017 -0.0596  0.1489
12110W        W27919   0.585  16.801  15.875  0.1071 -0.0168  0.3982
12111W        W27920   7.317  10.372  11.509  0.2344  0.0716  0.3841
12112W        W27921  11.056   7.112   5.290 -0.2833  0.4324  0.3241
12113W        W27922  10.593  15.051  10.251 -0.2673 -0.0440 -0.1434
12114W        W27923   2.944   6.477  12.060 -0.0810  0.2145 -0.1886
12115W        W27924  13.980  12.792   4.681  0.1343  0.3781  0.1236
12116W        W27925  10.705   7.684  13.612  0.2084 -0.2236 -0.2661
12117W        W27926   9.169  15.593  12.284  0.0713  0.1808 -0.2480
12118W        W27927   7.899  11.155  10.835  0.0674  0.0478 -0.1246
12119W        W27928   9.365  12.017  13.524 -0.1176  0.3575  0.0279
12120W        W27929  15.159   9.982   0.292 -0.0339 -0.0421 -0.0306
12121W        W27930   4.100  12.189   2.340 -0.2126 -0.1111  0.2745
12122W        W27931  17.573   3.045   1.354 -0.0623  0.1656 -0.0771
12123W        W27932  14.235  11.930   1.676  0.1545 -0.2105  0.2353
12124W        W27933  11.398   3.193  11.662  0.0359  0.1242  0.1492
12125W        W27934   4.409   3.502   4.450  0.3385  0.4362  0.1714
12126W        W27935   9.056   4.784  13.227 -0.1579  0.0484  0.0501
12127W        W27936   0.674   9.816  15.241 -0.0770 -0.0999 -0.1417
12128W        W27937   9.958   2.170  11.703  0.1271  0.0720 -0.1331
12129W        W27938  15.667   1.125   5.177  0.1051 -0.0121  0.1635
12130W        W27939  13.041  17.202   4.200 -0.1125 -0.1167 -0.0305
12131W        W27940   0.016  14.837   3.357 -0.0230 -0.0584  0.0395
12132W        W27941  10.322  10.728   4.696 -0.2039 -0.3532  0.2192
12133W        W27942   3.080  10.791  12.371 -0.3170 -0.1449 -0.0395
12134W        W27943   1.511   2.146  13.897 -0.1683  0.0254  0.0807
12135W        W27944   8.420  11.446  15.166  0.0271 -0.1674 -0.0350
12136W        W27945   4.225  16.737   2.306  0.1016 -0.1392 -0.3976
12137W        W27946   2.789   6.745   0.451  0.0101  0.3277 -0.0984
12138W        W27947  16.959  18.106   0.520  0.0890  0.1400 -0.2703
12139W        W27948  12.900   4.043  13.090  0.0972 -0.1261  0.0262
12140W        W27949   6.722   7.597  12.015  0.1053 -0.2147  0.2613
12141W        W27950   1.210  14.146  12.673 -0.1176 -0.0294 -0.0548
12142W        W27951   5.393   3.567  14.901 -0.3195 -0.0916 -0.2449
12143W        W27952   1.643  14.715   1.114  0.1777 -0.1274 -0.0908
12144W        W27953  13.765  15.243  13.622 -0.2362 -0.1904 -0.0334
12145W        W27954   9.068  13.397   2.552  0.1830 -0.0571  0.4501
12146W        W27955   2.093  17.635   0.891 -0.0519  0.0066 -0.0032
12147W        W27956  14.208   3.114   3.677  0.0875  0.1001  0.0211
12148W        W27957   1.521   5.777   3.705 -0.0584 -0.1668 -0.0111
12149W        W27958   1.422   1.054   5.625  0.1219  0.0969 -0.1413
12150W        W27959  13.395  17.895   4.866  0.1051 -0.3437 -0.0758
12151W        W27960   1.531  16.675  10.952  0.2464  0.2310  0.0819
12152W        W27961   6.326  13.384  11.961 -0.1093 -0.2465  0.0430
12153W        W27962   9.142  15.537   1.126  0.0706  0.1386  0.0052
12154W        W27963   8.382   0.087   4.200 -0.0746 -0.2575  0.3328
12155W        W27964   4.189   0.434   3.833  0.0115  0.1549 -0.1774
12156W        W27965  17.136  10.293   2.114 -0.0975  0.2424  0.0529
12157W        W27966  15.204  13.334  13.842  0.0261 -0.0242 -0.1513
12158W        W27967  11.896   3.973  11.574  0.0884  0.0805  0.2090
12159W        W27968   7.413  18.117  10.272 -0.1849  0.0574  0.0519
12160W        W27969   7.175   9.236   1.511  0.3895  0.1917  0.4283
12161W        W27970  13.215   0.278   0.286 -0.0559  0.3392  0.1323
12162W        W27971   0.134   3.248  11.433 -0.4026 -0.1694  0.1593
12163W        W27972   9.714   2.852   1.795  0.1873 -0.2277 -0.1114
12164W        W27973   1.492  14.918  14.316  0.4071 -0.1503 -0.0475
12165W        W27974  13.905   9.641  13.702  0.1647  0.1520  0.1075
12166W        W27975  18.010  17.111   2.775 -0.0257  0.3299  0.0588
12167W        W27976  10.483  17.341   4.614 -0.0070 -0.4011  0.0321
12168W        W27977   7.436  12.196  13.143 -0.0071  0.1436 -0.0873
12169W        W27978  14.958  17.170   1.050  0.0078  0.0667 -0.1308
12170W        W27979  15.756   0.406  14.013 -0.2432  0.0959 -0.0590
12171W        W27980  17.648   2.877   4.235  0.4905  0.3635 -0.0572
12172W        W27981  13.879   2.262   2.687  0.0108 -0.2171 -0.0567
12173W        W27982  17.865  17.948  13.647 -0.0606  0.0414  0.1880
12174W        W27983  17.706  12.333   1.516 -0.3078 -0.1430 -0.0825
12175W        W27984   9.936  14.717  11.678  0.3077  0.0512  0.3382
12176W        W27985   5.533   6.698   2.595 -0.0250  0.1786  0.0484
12177W        W27986   4.521  15.272   0.916  0.2054  0.1974  0.0132
12178W        W27987  11.636   8.687   3.556 -0.2142  0.0274  0.3796
12179W        W27988  13.291  13.934  12.271 -0.2709  0.0837 -0.0865
12180W        W27989  16.318  11.104  13.770 -0.0186  0.0093 -0.3985
12181W        W27990   6.083  11.434   3.655  0.0176 -0.1376  0.0729
12182W        W27991  10.538  11.285  13.429  0.1765 -0.0507 -0.1913
12183W        W27992  12.854   2.462   4.870  0.0554 -0.0511  0.2105
12184W        W27993   1.300  12.975  11.919  0.2123  0.1666  0.2937
12185W        W27994   2.047   6.812  12.648 -0.0379  0.0174 -0.1278
12186W        W27995   2.063   7.636  15.798 -0.0985 -0.2025  0.0108
12187W        W27996   2.218   6.356   3.553 -0.2593  0.1275  0.3285
12188W        W27997   6.083  16.321   3.742 -0.1366 -0.2167  0.1090
12189W        W27998  17.002   4.873   3.687  0.2578  0.2102  0.0677
12190W        W27999  15.715  10.923   4.505  0.0994 -0.3096  0.0542
12191W        W28000  13.507   6.452  11.265  0.0317  0.0718  0.2662
12192W        W28001   7.977   3.258  15.698 -0.0039 -0.1529 -0.0036
12193W        W28002   0.960   1.137   1.615  0.1860 -0.0484  0.0323
12194W        W28003   3.901   5.929  15.673  0.0260 -0.2487  0.0169
12195W        W28004   5.769  16.636  15.041  0.1521 -0.0919 -0.0867
12196W        W28005   7.259  11.165   4.215  0.1056  0.0288 -0.1864
12197W        W28006   1.273   8.507  10.963 -0.0150  0.0654  0.3834
12198W        W28007  15.710   2.655   0.342 -0.1589  0.2958  0.1664
12199W        W28008   8.446   6.023  11.889  0.0636 -0.0961 -0.1746
12200W        W28009   1.014  12.969   1.600 -0.1170 -0.0613 -0.2121
12201W        W28010  11.827   4.021   3.979 -0.1118  0.1519 -0.1401
12202W        W28011   4.238   6.138  14.958 -0.0881 -0.2015  0.3241
12203W        W28012  10.255   3.077   4.396  0.0922  0.2623 -0.0626
12204W        W28013   7.792  10.521  15.969 -0.0083  0.0468  0.1410
12205W        W28014   1.941  14.914  16.008  0.1731  0.0234 -0.4791
12206W        W28015   7.739  14.164  12.880  0.1426 -0.0113  0.1589
12207W        W28016   6.721  11.274   1.357  0.1652  0.1104 -0.4441
12208W        W28017  12.835   8.205   4.809  0.2289  0.2160 -0.3375
12209W        W28018   4.148  14.435  10.707 -0.1099  0.1239 -0.1666
12210W        W28019   3.619  14.825   4.738  0.0600  0.0717 -0.1757
12211W        W28020   9.817   6.628  12.049  0.0754 -0.1162  0.1334
12212W        W28021   9.111  12.175   3.915 -0.1399 -0.2562  0.3913
12213W        W28022   0.148  16.385   1.488 -0.3341 -0.2480 -0.2440
12214W        W28023   1.777  12.043   5.279  0.1918 -0.0430  0.1713
12215W        W28024  14.969   5.791  15.394  0.3170  0.1594  0.0022
12216W        W28025  11.159   6.618  13.998 -0.3248 -0.0414  0.0002
12217W        W28026   5.495  13.627   4.585  0.1568  0.0120  0.0171
12218W        W28027  14.969  12.423  10.306 -0.1196  0.1057  0.3344
12219W        W28028  10.844   0.856  12.456 -0.1847 -0.0071  0.0673
12220W        W28029   4.155  12.216  12.010 -0.2110  0.1877 -0.1878
12221W        W28030   4.883   6.281   4.611  0.1268  0.1868  0.5029
12222W        W28031   4.585   4.108  12.254 -0.0149  0.1095 -0.0693
12223W        W28032   3.321  13.204  10.771 -0.1419  0.1760  0.1102
12224W        W28033   3.525   7.297  11.705  0.1392 -0.1104 -0.0048
12225W        W28034   3.525   2.365   2.976 -0.3026  0.0992 -0.0305
12226W        W28035   5.068   4.351  11.833  0.0149 -0.1135  0.0734
12227W        W28036  17.629   9.567  11.951  0.0333 -0.0321  0.0496
12228W        W28037  14.522  11.328   4.840  0.0775 -0.0210 -0.1670
12229W        W28038   3.551  16.326  13.478 -0.0056 -0.0867 -0.1031
12230W        W28039  16.792  17.548  14.176 -0.1464  0.0922  0.0955
12231W        W28040  11.630   7.496   2.784  0.0222  0.2507 -0.0256
12232W        W28041  16.588   2.882  13.552  0.2047  0.1063  0.0859
12233W        W28042  13.983   9.408  15.029 -0.2900  0.0847  0.3259
12234W        W28043   4.241   1.548   0.436  0.1745 -0.1497 -0.1738
12235W        W28044   0.009  13.203  11.014  0.1640 -0.2278 -0.0525
12236W        W28045  15.279   6.846   4.442  0.1878 -0.1850 -0.1598
12237W        W28046   2.242  13.363   4.988 -0.0223 -0.1932  0.1084
12238W        W28047  12.593  11.061   1.521 -0.1571  0.0162 -0.0099
12239W        W28048  11.547   2.074  13.776  0.2155  0.0898 -0.0451
12240W        W28049  13.705   9.504   0.355 -0.0575 -0.0340 -0.1959
12241W        W28050  18.252  15.966  14.730 -0.1331 -0.1126  0.1211
12242W        W28051  11.293   9.891  16.049 -0.0919 -0.1599 -0.2322
12243W        W28052   9.419   8.206  11.376  0.3081  0.1806 -0.1590
12244W        W28053   2.854   0.607  15.872 -0.0480  0.3139  0.1752
12245W        W28054  11.661   6.421   2.687  0.0689  0.0648  0.1657
12246W        W28055  10.332   1.891  11.388  0.1845 -0.2286  0.3046
12247W        W28056  13.983  13.250   3.248  0.2016  0.0445 -0.2295
12248W        W28057  13.884   7.269  13.229 -0.1597 -0.0063 -0.0203
12249W        W28058  15.337  13.842  11.052  0.2598 -0.1023 -0.0275
12250W        W28059   2.147   2.892  14.751  0.1270  0.0807 -0.2035
12251W        W28060   5.639  14.899  14.467  0.0768 -0.0393 -0.2990
12252W        W28061  10.837   5.461  15.552  0.1506  0.0509 -0.0354
12253W        W28062  14.509  12.047  10.848 -0.0505 -0.0329 -0.2645
12254W        W28063  14.597  17.821  12.234 -0.1154 -0.1518 -0.2203
12255W        W28064   9.807  15.864  13.028 -0.1086 -0.0527 -0.1866
12256W        W28065   0.847  16.702  13.010 -0.0106  0.1002 -0.0398
12257W        W28066  10.592  10.245   2.616  0.1857 -0.0198 -0.3495
12258W        W28067  13.197  11.682   4.112 -0.0543  0.1396  0.1447
12259W        W28068   1.564  11.310   3.608  0.0771 -0.0187 -0.1298
12260W        W28069  16.687  15.161   4.334  0.1790 -0.2332 -0.0476
12261W        W28070  11.737  16.000   5.401  0.1589  0.2566  0.0282
12262W        W28071  14.824  14.711  12.882 -0.0548  0.3570 -0.1542
12263W        W28072   8.130  14.549   5.897 -0.1336  0.1822 -0.1576
12264W        W28073  17.690  17.862   2.375 -0.1559  0.1473  0.0279
12265W        W28074   7.478  16.860  11.512 -0.1694 -0.0822  0.0543
12266W        W28075   6.411   9.204  12.918 -0.1034 -0.0024 -0.1903
12267W        W28076   3.484   2.805   0.500 -0.0347 -0.2141  0.2674
12268W        W28077  15.655  13.856   0.410  0.0690 -0.2999  0.1189
12269W        W28078   5.084  10.183  11.259  0.1035  0.1769  0.4178
12270W        W28079   1.943  15.510   4.137 -0.1688 -0.1716  0.0903
12271W        W28080  14.556  11.442   4.290 -0.1314 -0.0639 -0.2759
12272W        W28081  11.234  16.703   4.964  0.0246 -0.0947  0.2211
12273W        W28082  16.733  17.789   5.599  0.1892  0.6801 -0.0568
12274W        W28083   7.271  15.484   5.464 -0.1211 -0.2286  0.0460
12275W        W28084   8.681  13.455   2.148 -0.2877 -0.0522 -0.1201
12276W        W28085   2.562  15.652  14.653  0.2881  0.3905 -0.0310
12277W        W28086  10.135   8.316   0.798  0.2284  0.0702 -0.1400
12278W        W28087  14.745   8.206  14.209  0.0639  0.0442  0.0391
12279W        W28088  11.448  15.904  12.524  0.1731 -0.0759  0.1073
12280W        W28089  17.819   5.285  12.685  0.0483  0.1713 -0.0784
12281W        W28090   8.229   1.744   3.732  0.0446  0.0658  0.0742
12282W        W28091   0.261   3.804   4.041 -0.0393  0.1603 -0.1661
12283W        W28092  13.949   2.776   4.516 -0.1964  0.0004 -0.0610
12284W        W28093  15.344  14.534  11.573 -0.0514  0.2324  0.2594
12285W        W28094  11.318   9.009  14.576 -0.0426 -0.0427 -0.1312
12286W        W28095   1.925  10.495   4.194  0.1529  0.1712  0.1125
12287W        W28096   9.665   0.478   0.741 -0.0390 -0.3268  0.0113
12288W        W28097   6.599   2.139  15.295  0.3465  0.1774  0.0819
12289W        W28098  14.125  10.431   2.650  0.4436 -0.0093 -0.0325
12290W        W28099   3.352   7.511  14.927  0.0764  0.2576  0.0006
12291W        W28100  14.766   3.579   3.934  0.0162 -0.2010 -0.2637
12292W        W28101  11.563   0.508  10.914  0.2443  0.0284  0.0500
12293W        W28102  16.252   7.410   3.839  0.4211  0.5000 -0.1508
12294W        W28103   7.484   8.316   0.235 -0.0509  0.1345  0.1469
12295W        W28104   2.643  13.659  11.793 -0.0380 -0.0540 -0.1502
12296W        W28105  16.040   7.992  13.509  0.0489  0.1314 -0.3330
12297W        W28106  17.736  10.769   4.903 -0.1052 -0.1440 -0.1912
12298W        W28107   8.358  13.881  15.654  0.0797 -0.1165  0.0766
12299W        W28108   9.552   6.785   3.214 -0.2027  0.0412  0.0879
12300W        W28109  10.536   3.824  11.316 -0.1477  0.0474 -0.1468
12301W        W28110   5.627  12.344  14.572  0.0379  0.1681 -0.0565
12302W        W28111   3.902   5.398  12.915  0.2155 -0.0309  0.1147
12303W        W28112  15.310   1.918   0.206 -0.1502  0.1751 -0.2236
12304W        W28113  13.916  14.736   5.340  0.1193 -0.0721  0.2829
12305W        W28114   4.853   0.453  13.356  0.0124  0.0058  0.3323
12306W        W28115  10.462   2.474   3.257  0.4172  0.0567 -0.4987
12307W        W28116  11.060   2.483   1.736  0.1660  0.0855 -0.1559
12308W        W28117  14.123  17.889   2.955  0.0572 -0.1043 -0.1374
12309W        W28118   7.866  14.810  10.717  0.1953 -0.2147  0.0948
12310W        W28119  10.860  12.746   3.612  0.3219  0.1208  0.0307
12311W        W28120   4.229  17.302  11.601  0.1325 -0.1503 -0.0371
12312W        W28121   1.725  14.015   2.011  0.0177  0.0891  0.0572
12313W        W28122   7.065   3.424   2.946 -0.0068 -0.0492 -0.2163
12314W        W28123   7.166  10.504  13.486 -0.2423  0.0788  0.2853
12315W        W28124   7.059   4.979   1.243  0.2520  0.3896  0.0495
12316W        W28125   4.088   3.103   3.833  0.2302  0.1385 -0.0184
12317W        W28126   4.431   2.203  11.400  0.0868  0.3049  0.1303
12318W        W28127  18.074   5.109   4.897  0.2596  0.3223  0.0794
12319W        W28128  10.945   0.488  14.202 -0.0997  0.0698 -0.2609
12320W        W28129  16.476   2.270  12.790  0.1219 -0.1211  0.2055
12321W        W28130   5.686  12.507   1.900 -0.0398 -0.0165 -0.0276
12322W        W28131   4.469  12.112   2.709 -0.1957  0.1369 -0.1630
12323W        W28132   5.031  15.612  14.487  0.1977  0.1097 -0.0270
12324W        W28133  13.779  14.111  13.046 -0.1209 -0.0219  0.0195
12325W        W28134  14.965   1.843  10.949  0.2477  0.0654  0.3590
12326W        W28135  15.459   8.624  12.712  0.1514  0.1224 -0.0065
12327W        W28136  14.314  12.164  14.770 -0.3107  0.0152  0.1673
12328W        W28137   0.087   0.681  15.436  0.0859  0.0742  0.4079
12329W        W28138   3.494  12.917   4.462  0.2440 -0.3789  0.2093
12330W        W28139  15.856   0.629   3.802  0.4101 -0.1691 -0.0903
12331W        W28140   5.701  15.044  11.877 -0.0281  0.2675 -0.3826
12332W        W28141   1.053   6.102   1.367  0.2004 -0.0571 -0.0990
12333W        W28142   3.316  11.514  12.008 -0.0270  0.1192  0.1608
12334W        W28143   2.755   7.884  12.245  0.0075 -0.0927  0.2353
12335W        W28144  16.672   6.862   4.607 -0.2199  0.1104 -0.1306
12336W        W28145  17.261  17.275  13.147  0.2473 -0.0371 -0.2819
12337W        W28146   2.302   8.495   2.061  0.0008 -0.0084  0.1299
12338W        W28147  18.267   0.899   0.689  0.0802  0.1308  0.0888
12339W        W28148  15.803  13.496  10.974  0.3139  0.2104 -0.3150
12340W        W28149   8.111   1.935   0.675  0.1239  0.2967 -0.2230
12341W        W28150   6.498   9.494   0.975  0.0452 -0.1673 -0.0168
12342W        W28151  16.486   9.034   4.532  0.0878 -0.1413  0.1270
12343W        W28152   5.187  13.294   2.494 -0.2160  0.3102  0.0481
12344W        W28153   6.924  18.193   3.052 -0.0156  0.1387 -0.2304
12345W        W28154  14.841  16.155  13.466  0.0234 -0.0075  0.1842
12346W        W28155   8.800  17.184   5.432 -0.2302 -0.3189 -0.0562
12347W        W28156  12.946   0.095   3.572  0.0691  0.0163  0.1267
12348W        W28157   4.057   7.529   3.292 -0.0740 -0.1168 -0.3118
12349W        W28158   9.119   3.984   2.620 -0.2957 -0.1310 -0.3971
12350W        W28159  12.015   0.859   1.322  0.0803 -0.0839 -0.1102
12351W        W28160  17.542   5.558   0.494 -0.0823  0.0017  0.3661
12352W        W28161   3.601  14.630   2.595  0.1853  0.1066  0.0723
12353W        W28162   3.777   9.514  14.986 -0.0660 -0.2231  0.0373
12354W        W28163  13.380  13.342   2.385  0.0826 -0.2092 -0.3498
12355W        W28164  10.375  11.011   5.158  0.1876  0.2715 -0.0352
12356W        W28165   5.871  15.930   2.208 -0.2261  0.1361 -0.0749
12357W        W28166   4.452   3.049   5.308  0.3496  0.2801  0.3698
12358W        W28167  15.405  13.699  12.039 -0.1185 -0.0785  0.0248
12359W        W28168   5.895   3.755  14.875  0.1322  0.0784 -0.3043
12360W        W28169   6.637  13.882  15.915  0.2166  0.2781  0.1780
12361W        W28170   3.758  17.152  15.596 -0.2181 -0.1442 -0.2339
12362W        W28171  13.208   1.667  11.312 -0.0449 -0.2278 -0.0363
12363W        W28172  12.713   3.698   6.119 -0.1458  0.0184 -0.1736
12364W        W28173  12.494  17.568   5.635 -0.1036  0.1795 -0.1901
12365W        W28174   7.593   9.016   4.251 -0.1016  0.2554 -0.1203
12366W        W28175   7.601  14.865   2.477 -0.0620 -0.0210  0.1646
12367W        W28176   8.055  12.153   5.275 -0.0013  0.0322 -0.0521
12368W        W28177   7.775   7.346  14.422 -0.0605 -0.1947  0.1668
12369W        W28178   4.543   2.225   4.978 -0.0040  0.0969 -0.4524
12370W        W28179   4.299  18.011   3.107  0.4858  0.0963 -0.2177
12371W        W28180   5.049   2.899   5.535 -0.0305 -0.0339 -0.0754
12372W        W28181   2.772   9.601  13.566  0.2586 -0.4256  0.2369
12373W        W28182   3.140  17.900  15.921 -0.1519  0.0349 -0.1200
12374W        W28183  15.136  16.061   1.138 -0.2045  0.0858 -0.1645
12375W        W28184   1.431   9.562  13.996  0.1058  0.1566  0.3114
12376W        W28185   8.951   7.903  12.150  0.4715  0.2121 -0.0241
12377W        W28186   9.158   1.782   4.820  0.0771  0.0617 -0.3033
12378W        W28187  16.106   2.909  14.673 -0.1297 -0.2511  0.0071
12379W        W28188   4.840  15.174  12.858 -0.0553  0.0821 -0.0327
12380W        W28189  12.392  12.875   4.650  0.4701 -0.1856 -0.0811
12381W        W28190  12.522  15.919   3.034  0.0378  0.2968  0.2307
12382W        W28191   9.651  12.472   1.483 -0.0602 -0.2535  0.0202
12383W        W28192  13.864  15.111  13.139 -0.1876  0.5197  0.0543
12384W        W28193  11.783   5.058   1.864  0.1422 -0.0776  0.1773
12385W        W28194  15.020   4.282   4.138  0.2066 -0.0780 -0.1079
12386W        W28195  15.270   3.537  11.777 -0.1647  0.2544  0.0771
12387W        W28196  14.780   2.507   6.019 -0.1613 -0.1277 -0.3809
12388W        W28197  15.805   5.234   3.809  0.0860 -0.0659  0.1381
12389W        W28198   3.355  11.954   3.256  0.1368  0.0597  0.2307
12390W        W28199  11.963  15.534   3.472 -0.0202 -0.0572 -0.1301
12391W        W28200  13.402  15.450   4.727 -0.1322  0.1764 -0.0505
12392W        W28201  14.407  17.908  13.044 -0.2245 -0.0718 -0.0711
12393W        W28202   3.134  12.840  11.661  0.0446  0.1358  0.4686
12394W        W28203   8.203  16.038   1.046 -0.3026 -0.0820 -0.1937
12395W        W28204  13.387  11.850  15.648 -0.0670 -0.3886  0.3034
12396W        W28205   9.622   9.361  12.941 -0.0468 -0.1480 -0.2963
12397W        W28206  13.151   6.574  15.276 -0.0520 -0.0556  0.0275
12398W        W28207  11.337  17.110   5.308 -0.0087 -0.0327 -0.0103
12399W        W28208   3.908  12.116   3.573 -0.1362  0.1776 -0.1335
12400W        W28209  11.543   1.228   2.301  0.2153  0.2618  0.0105
12401W        W28210   5.851  14.513   1.403 -0.0983  0.0315  0.2469
12402W        W28211  10.493   8.940   4.278 -0.0331 -0.1029  0.4220
12403W        W28212  17.940  11.927   1.395 -0.0874  0.0502 -0.0160
12404W        W28213  13.305  10.740  13.647  0.4807 -0.1204  0.1383
12405W        W28214   1.034  15.433  15.969 -0.2009 -0.2284 -0.0705
12406W        W28215  13.775   0.847  12.102  0.0722  0.2623  0.2218
12407W        W28216   8.806  14.188  15.244  0.0255  0.0687  0.0228
12408W        W28217   0.848   2.540   2.949 -0.0249  0.2592 -0.0873
12409W        W28218   3.499  14.029  15.598  0.2287  0.0264  0.0674
12410W        W28219   4.978  13.687   2.775 -0.0382  0.1729  0.2842
12411W        W28220  17.888   9.572   3.114 -0.2085 -0.3805  0.0801
12412W        W28221  16.546   5.177  10.259  0.2688 -0.1330 -0.0712
12413W        W28222  12.705   1.390  13.560 -0.3775 -0.0340 -0.0262
12414W        W28223  16.872  13.479   5.249 -0.3334 -0.0844  0.2553
12415W        W28224  17.004  13.494   4.353 -0.0655  0.3528 -0.0614
12416W        W28225   3.034   1.352  12.739 -0.1049 -0.2854  0.3427
12417W        W28226  12.169   6.377  15.903 -0.2528 -0.1888  0.0707
12418W        W28227  16.473  10.347  14.035 -0.1722  0.1268 -0.3685
12419W        W28228  11.326  14.492   2.218 -0.0195 -0.0977 -0.2234
12420W        W28229  11.695   9.409   0.262 -0.0151 -0.1128  0.0320
12421W        W28230  11.735   8.186  15.645  0.0314  0.1049 -0.1344
12422W        W28231   9.871   1.727   2.933 -0.0784 -0.2380 -0.1039
12423W        W28232   2.172   7.857  14.282  0.3094  0.1653  0.0913
12424W        W28233  12.613  15.223   1.340  0.2115  0.2116 -0.1460
12425W        W28234   2.990  11.546  15.520  0.1399  0.0116  0.2507
12426W        W28235  13.165   4.604   0.157 -0.2355 -0.3278 -0.0327
12427W        W28236  12.865  13.694  14.233 -0.3933  0.0588 -0.2578
12428W        W28237   0.218   3.007  11.911  0.6484  0.0510 -0.0583
12429W        W28238   6.915   1.527   1.508 -0.0915 -0.3332  0.4198
12430W        W28239   6.368  11.837   3.390  0.1615 -0.0469 -0.1434
12431W        W28240  12.289  14.437   2.797 -0.2634  0.0399  0.1054
12432W        W28241  15.983   9.506   4.401 -0.2281 -0.2571  0.1349
12433W        W28242   9.490   7.146  16.020  0.0083 -0.0230 -0.0084
12434W        W28243  16.615   5.160  12.758 -0.1437 -0.1456  0.0179
12435W        W28244  15.660   9.207  11.018  0.1350 -0.0355  0.0032
12436W        W28245  13.318   6.779   3.283  0.2348  0.2681  0.0484
12437W        W28246   5.442   0.538  15.640 -0.0831 -0.0402  0.1312
12438W        W28247  12.732   4.512   2.035 -0.1084  0.1514 -0.1041
12439W        W28248  13.216  16.045  15.553  0.1562 -0.2872 -0.2017
12440W        W28249   9.391   2.026   3.941  0.2832 -0.2103  0.0547
12441W        W28250  14.217  13.849  11.405  0.1245  0.0029 -0.0594
12442W        W28251  16.853  17.988   4.541  0.3782  0.0666 -0.0721
12443W        W28252   1.007   1.045  11.713 -0.0153  0.1058  0.1211
12444W        W28253   5.412   5.248   3.587 -0.1549  0.3802 -0.3962
12445W        W28254   9.835   7.991   1.609  0.4207 -0.1813 -0.0309
12446W        W28255  15.198  11.789  13.973 -0.1138  0.0292 -0.2113
12447W        W28256  10.120   0.190  12.103  0.0745 -0.0804  0.0496
12448W        W28257   1.792   5.049   3.291  0.1110  0.5054 -0.1831
12449W        W28258   1.756  14.867  13.311 -0.2822 -0.1830 -0.0422
12450W        W28259   7.304   1.294   1.630  0.0045 -0.1458 -0.3433
12451W        W28260   6.789  16.601  15.135  0.1365  0.1321 -0.0363
12452W        W28261   5.869   3.419  13.616  0.0725 -0.4110 -0.1738
12453W        W28262   4.532  11.207   4.426  0.1950  0.0094  0.1372
12454W        W28263  15.414  12.036   1.415 -0.0300  0.1758  0.1517
12455W        W28264   9.671  16.515  14.164 -0.1152 -0.0063 -0.1034
12456W        W28265   8.015   4.661  14.784 -0.1419  0.0126 -0.1881
12457W        W28266  14.184  13.945   1.331 -0.2180 -0.0272  0.2468
12458W        W28267  12.969  16.987   6.225  0.0872 -0.2226 -0.0270
12459W        W28268   4.286  10.226  11.263  0.1470 -0.1314 -0.3206
12460W        W28269   1.975  15.996   1.770  0.0892 -0.1033  0.0112
12461W        W28270  17.381   6.249   2.419  0.1833  0.2043  0.0436
12462W        W28271  12.275  16.063  13.932 -0.0597 -0.1368 -0.0553
12463W        W28272   1.854   7.254   4.484 -0.0823 -0.0807 -0.0994
12464W        W28273  13.096   8.270   0.923  0.0091  0.1140 -0.2609
12465W        W28274  17.833   7.095   1.790 -0.1678  0.2299  0.0407
12466W        W28275  16.526   0.799  15.319 -0.0512 -0.0251 -0.1399
12467W        W28276   1.428  10.002   5.718 -0.4576 -0.0111 -0.0787
12468W        W28277   8.463   8.175  13.823  0.1613 -0.0369 -0.0324
12469W        W28278   2.723  12.467  15.173  0.2289 -0.0201 -0.1323
12470W        W28279   2.021  10.814  13.468 -0.0960 -0.0484 -0.1837
12471W        W28280   6.243   2.657  13.194  0.0398 -0.4665  0.2945
12472W        W28281  16.028  10.767   3.629 -0.0050 -0.1277  0.0484
12473W        W28282   3.674  17.371  11.270 -0.0670 -0.0004 -0.0122
12474W        W28283  16.337   6.881   1.962  0.1634  0.4820 -0.0875
12475W        W28284   1.830   9.542  12.155  0.2431  0.1285  0.0011
12476W        W28285  11.883   1.069  13.382  0.0586  0.3019  0.2840
12477W        W28286  14.127   7.994   5.196 -0.1375  0.1689 -0.0586
12478W        W28287   3.828   5.055   5.207 -0.0303 -0.1820 -0.0783
12479W        W28288   8.130   9.084  15.890  0.0566 -0.3328 -0.0923
12480W        W28289  17.871   1.973   2.119 -0.1607 -0.0898  0.0791
12481W        W28290   8.627  13.984   1.967 -0.0053 -0.1152  0.0837
12482W        W28291  17.824   0.307   3.660 -0.0107 -0.0534 -0.3170
12483W        W28292  15.948   4.849   2.879 -0.1760 -0.1781 -0.0922
12484W        W28293  11.070   7.850  14.518  0.2433  0.1882  0.1351
12485W        W28294   8.792   8.079  11.682  0.1938  0.0697  0.0463
12486W        W28295  15.787   1.540  13.103  0.1212 -0.4081  0.0737
12487W        W28296   0.234  17.686  15.634  0.0700 -0.2208 -0.1243
12488W        W28297   9.298  11.666  14.006 -0.0294  0.1234  0.1315
12489W        W28298   4.208   2.300  12.278  0.0917  0.1837 -0.0639
12490W        W28299  14.148   7.754   1.382 -0.0439  0.1495 -0.0227
12491W        W28300  13.269   0.979   3.265  0.1074 -0.3358  0.0242
12492W        W28301   0.845   0.110   3.841  0.0861  0.0257 -0.2569
12493W        W28302   5.798   6.117   4.726 -0.1696 -0.1681 -0.1949
12494W        W28303   4.941  14.214   1.790  0.0828  0.0220  0.0428
12495W        W28304  11.949   8.537   5.025 -0.1211 -0.0479 -0.0030
12496W        W28305   2.801  10.908   3.106 -0.3511  0.2058 -0.0859
12497W        W28306   4.149  15.261   5.510  0.0397 -0.1642 -0.0238
12498W        W28307  17.671   9.510  15.265 -0.4939  0.6270 -0.2993
12499W        W28308   6.087   6.877   0.365  0.2098  0.3968 -0.0345
12500W        W28309   0.788   8.037   2.517 -0.1848  0.4937  0.0463
12501W        W28310  17.662  16.155   0.686 -0.0257 -0.2147 -0.0148
12502W        W28311   3.637   4.604  14.585  0.0435 -0.2337 -0.0603
12503W        W28312   4.990  13.173  13.118 -0.0569 -0.0506 -0.3897
12504W        W28313   5.703  16.323  14.548 -0.1643 -0.2612  0.2646
12505W        W28314   0.082   6.988  10.551 -0.0131 -0.1051  0.4539
12506W        W28315   4.999   8.304   4.155 -0.3543 -0.0020 -0.0747
12507W        W28316  10.875   0.280   1.928 -0.5470 -0.1111 -0.0246
12508W        W28317   0.715  10.092  12.987 -0.0191 -0.1503 -0.1073
12509W        W28318   5.906   0.587   5.204  0.0617 -0.0378 -0.0158
12510W        W28319  12.981  14.938   2.289  0.2851  0.1279 -0.1414
12511W        W28320  17.079   9.882  13.906  0.1274  0.2221 -0.1879
12512W        W28321   4.364  13.338   1.773  0.2110 -0.1115  0.0917
12513W        W28322  16.184  15.249  16.069  0.1441  0.0085  0.0970
12514W        W28323   7.158  10.516  15.763 -0.0786 -0.2055  0.2549
12515W        W28324  13.355   0.564   5.963 -0.2468  0.0289  0.2184
12516W        W28325   3.186   2.485  15.913  0.0662  0.0306  0.0684
12517W        W28326   9.780   5.278  13.593 -0.0063 -0.2310  0.0923
12518W        W28327   2.108   3.819   1.619  0.1387  0.1190 -0.2801
12519W        W28328  16.760   9.111  12.357 -0.0409 -0.1227 -0.0351
12520W        W28329  17.087  11.183  13.726  0.0026 -0.0173  0.0134
12521W        W28330  13.074   5.329  15.085  0.6109 -0.0289  0.0099
12522W        W28331  15.807  13.953  15.943 -0.3266  0.0209  0.2237
12523W        W28332   9.463  17.455   1.684 -0.1539  0.2907 -0.1853
12524W        W28333   8.204  17.685  11.765  0.1733 -0.2571 -0.0692
12525W        W28334  15.615  11.337  14.796 -0.0658  0.0257 -0.1393
12526W        W28335  16.937   9.276  15.625  0.1492  0.1481  0.0090
12527W        W28336  16.896   3.722   0.462 -0.0115  0.1030 -0.0514
12528W        W28337  14.000   4.315   1.934  0.1452 -0.0345 -0.2063
12529W        W28338   0.416  17.910  14.761 -0.1056  0.0693 -0.2578
12530W        W28339   6.412   4.139   2.762 -0.2528 -0.0564  0.0344
12531W        W28340   6.348   1.960  14.520 -0.1720 -0.0191  0.0001
12532W        W28341  14.861  15.136   2.872  0.1827  0.0993  0.0558
12533W        W28342  14.137  10.751   3.369  0.2770 -0.2209  0.0787
12534W        W28343  16.556   4.137   1.270  0.1219  0.1131 -0.1364
12535W        W28344   0.850  11.409  11.162 -0.0464  0.2726 -0.3882
12536W        W28345   0.617   8.538   2.324  0.1784  0.2076  0.1111
12537W        W28346  14.275   2.125  12.450 -0.0829  0.0048  0.0614
12538W        W28347  13.234   9.147   5.083 -0.1147 -0.1319 -0.1293
12539W        W28348   1.137  13.703   4.698  0.1549 -0.0637 -0.0131
12540W        W28349  17.438  18.010   0.372 -0.0229 -0.3353  0.1698
12541W        W28350  17.083   4.429  11.221  0.1665  0.1134  0.0935
12542W        W28351  15.168   1.903  14.221 -0.0953 -0.2945 -0.2852
12543W        W28352  11.749  16.918  14.084  0.2584 -0.2367 -0.1515
12544W        W28353   8.419  16.504  14.000 -0.4314  0.3176  0.0124
12545W        W28354  14.283   7.512   0.599  0.0661  0.4308 -0.0767
12546W        W28355  16.608  13.544   3.694  0.3014  0.0009  0.2608
12547W        W28356  16.009   0.518  13.055 -0.1029 -0.2576  0.1329
12548W        W28357   4.554   2.903   0.292 -0.1237  0.1553  0.0721
12549W        W28358   1.213  10.985   2.776 -0.1889  0.0993 -0.1457
12550W        W28359   1.752   6.860  13.548  0.1153 -0.1527  0.0373
12551W        W28360   9.787  11.852  13.250  0.1632  0.1148  0.4294
12552W        W28361  17.468  14.431   4.614  0.0746  0.1447  0.2658
12553W        W28362  10.235   9.566   0.456  0.1479 -0.2635 -0.3527
12554W        W28363  13.084  13.463  12.386  0.1498 -0.0693 -0.2034
12555W        W28364  14.815  15.842  14.395 -0.0690  0.3192 -0.2201
12556W        W28365  14.367  11.836  11.859 -0.1266  0.0144  0.3302
12557W        W28366   3.053   6.506   5.807 -0.0154  0.1970 -0.2080
12558W        W28367  15.057  13.962   4.507  0.1658  0.0117  0.0318
12559W        W28368   4.372   1.798  12.294  0.1889  0.0254  0.0571
12560W        W28369  12.314  13.003  11.934  0.2981 -0.0618 -0.0587
12561W        W28370   2.894  15.730   0.821 -0.1977 -0.2291 -0.2616
12562W        W28371   1.043   9.401   2.774 -0.1865 -0.1418  0.0213
12563W        W28372   8.802  14.192   4.922  0.1375  0.0480 -0.1820
12564W        W28373  10.555   3.005   0.780  0.2847 -0.2400  0.2090
12565W        W28374   5.458   8.665   2.817 -0.0251 -0.0908 -0.0789
12566W        W28375   5.621   4.383  10.587  0.0783  0.0506 -0.1369
12567W        W28376  13.427  10.021   0.481  0.0427 -0.1967 -0.0280
12568W        W28377  17.825  11.689  11.031  0.2019  0.2324 -0.2072
12569W        W28378  14.204  14.547   0.615 -0.0352 -0.0405  0.1581
12570W        W28379   6.407   5.451  11.671  0.0814  0.3728 -0.1105
12571W        W28380   2.914   2.055  16.054  0.1242  0.3041 -0.0675
12572W        W28381   5.459   6.615   5.179  0.1423  0.1128  0.1239
12573W        W28382   0.287  14.326  15.674  0.1126  0.0852  0.1859
12574W        W28383  12.320  16.573  11.476 -0.0141 -0.0640  0.0884
12575W        W28384   3.481   9.918   4.416 -0.0374 -0.0967  0.1550
12576W        W28385  12.757   3.083  13.057 -0.1655 -0.2715 -0.0729
12577W        W28386  11.195   2.623  15.731  0.0111 -0.1602 -0.1641
12578W        W28387  10.970  16.874   0.331  0.1942 -0.1829 -0.0807
12579W        W28388   0.011   4.932  15.624 -0.1330 -0.2671 -0.0868
12580W        W28389  17.220  12.966  12.011 -0.1096  0.0731  0.0470
12581W        W28390   7.929  11.652  15.840 -0.0638  0.0057 -0.0317
12582W        W28391   6.998   9.864  14.763 -0.1716 -0.3801 -0.1795
12583W        W28392  15.557   0.663  12.871 -0.1911 -0.0905  0.2285
12584W        W28393  15.132   2.247   2.313  0.1543 -0.0667  0.1026
12585W        W28394   8.730   4.881   0.300 -0.1023  0.0609 -0.3905
12586W        W28395   8.313  17.765   3.449 -0.2711 -0.2810 -0.0263
12587W        W28396  15.569  13.771   0.920 -0.2669 -0.0472  0.0568
12588W        W28397   4.258  17.518  14.805 -0.0908 -0.1048  0.1271
12589W        W28398   7.780   7.509  10.901 -0.0273 -0.0373 -0.2225
12590W        W28399  16.177   2.509   0.420  0.0712  0.1776  0.1337
12591W        W28400   6.548  11.338  10.962  0.1196 -0.0308  0.0748
12592W        W28401  16.205  12.193   2.904 -0.2101  0.0743 -0.1130
12593W        W28402  16.827  17.872   3.697  0.1982  0.0420  0.0522
12594W        W28403  17.552  13.414   4.529 -0.1395 -0.0318 -0.0320
12595W        W28404   2.177  12.588   1.481 -0.2714 -0.2352  0.0378
12596W        W28405   8.812  16.417  13.709 -0.0755  0.0891 -0.0812
12597W        W28406  15.023  17.736  12.689  0.0810  0.0495 -0.1228
12598W        W28407  17.609  15.887  13.058 -0.0469 -0.2130  0.1891
12599W        W28408  14.350  15.930  14.129  0.3200  0.0543 -0.1632
12600W        W28409  13.522   6.301   0.406 -0.2300  0.0521  0.0075
12601W        W28410  14.586   4.811  12.992  0.0402 -0.3796  0.0417
12602W        W28411   2.803  10.570   3.524 -0.0284  0.1936  0.1516
12603W        W28412   7.789   7.657   0.688 -0.0590  0.1340 -0.1807
12604W        W28413  10.894   9.228   4.433  0.0923  0.2138 -0.2135
12605W        W28414  17.917   0.814   0.302  0.3819 -0.0305  0.1441
12606W        W28415  11.359  15.362   4.022  0.2585  0.0372  0.1858
12607W        W28416  14.537   5.971  15.300  0.2809 -0.2298 -0.1204
12608W        W28417   4.348  14.748   3.009  0.1710  0.0812  0.0605
12609W        W28418  17.314  17.989   1.810  0.2147 -0.2353 -0.0757
12610W        W28419   2.800  14.869  12.499  0.0176  0.1325  0.2456
12611W        W28420   7.330  17.766  11.154  0.1866 -0.0647  0.0104
12612W        W28421  12.252   1.430  14.410 -0.0197  0.1559  0.0602
12613W        W28422  14.515  16.006   4.903  0.0221  0.0144  0.1141
12614W        W28423   8.914   3.431   2.584 -0.2372 -0.2106 -0.2008
12615W        W28424   5.623   9.953  10.715 -0.0439  0.2491 -0.0929
12616W        W28425  15.758   9.708   4.784 -0.1400  0.0457 -0.0577
12617W        W28426  16.844   5.837  15.355 -0.2459  0.0066 -0.1527
12618W        W28427  16.136   4.013  12.865  0.0668  0.1162 -0.0623
12619W        W28428  16.701   3.854  15.594 -0.0973  0.3227 -0.1771
12620W        W28429  14.651   0.484  13.258 -0.0631 -0.0846  0.0503
12621W        W28430   4.978  15.320  15.735 -0.0120  0.0169 -0.0571
12622W        W28431   6.677  18.110   4.919  0.0925  0.1777  0.0016
12623W        W28432   8.669   0.689   1.529  0.0262  0.1598  0.3409
12624W        W28433   2.093   9.294   3.399  0.2709  0.0365 -0.2947
12625W        W28434  15.382  14.714  12.919  0.2535  0.0119 -0.0335
12626W        W28435  12.051   5.713   4.796  0.1509  0.1362  0.1239
12627W        W28436   2.735  13.362   2.520 -0.2280  0.2294 -0.2107
12628W        W28437  17.861   6.961   2.789  0.0589 -0.0862  0.0227
12629W        W28438  12.867   1.543  14.438 -0.1468 -0.4668  0.0832
12630W        W28439   2.412   0.341   4.156  0.1698  0.1300 -0.0339
12631W        W28440  16.067  16.626   3.171  0.2120  0.4201 -0.1667
12632W        W28441   2.119   8.880  11.026 -0.0119  0.1919 -0.3499
12633W        W28442  12.547  16.229   2.604  0.3036 -0.1329 -0.0624
12634W        W28443   5.260   9.711   9.948  0.2304  0.0491  0.0212
12635W        W28444  15.837  16.951   2.287  0.1562 -0.2145  0.1281
12636W        W28445  18.113   3.710  14.335  0.1548  0.2040 -0.1711
12637W        W28446  11.399  16.089   1.884  0.2367 -0.1233  0.2268
12638W        W28447  17.882   1.830  13.726 -0.1040  0.1254  0.0392
12639W        W28448   5.017  17.680  13.216  0.0833  0.1994 -0.0058
12640W        W28449  15.950  14.150   0.757 -0.0843  0.2147 -0.3336
12641W        W28450   1.018   2.120  11.543  0.0181 -0.3525 -0.3063
12642W        W28451   2.204   8.557  15.718 -0.0180  0.0392  0.1571
12643W        W28452  11.846  11.338   5.239  0.0066  0.0470 -0.0565
12644W        W28453  11.589   0.295  15.806  0.0976  0.3525  0.2955
12645W        W28454   5.221  11.244   4.258  0.1004  0.0026 -0.0476
12646W        W28455  13.883   3.175  15.454  0.3005  0.1036 -0.2812
12647W        W28456  14.936   3.740   1.308 -0.1288  0.0281  0.2217
12648W        W28457   5.842   7.314   2.819  0.0630  0.2403  0.2784
12649W        W28458   6.753   1.785   0.245  0.2877  0.3217 -0.1970
12650W        W28459   2.247  17.385   2.737  0.1242 -0.4378 -0.1504
12651W        W28460  14.814  12.212  14.085 -0.2029  0.3462 -0.1531
12652W        W28461   6.452  10.814   0.399 -0.2056  0.1400  0.1062
12653W        W28462   0.414   5.630   3.667 -0.1940 -0.1900 -0.0190
12654W        W28463   9.517   3.655   1.281 -0.1604 -0.4739 -0.0879
12655W        W28464   7.320  13.347   0.149 -0.1684  0.2552 -0.3030
12656W        W28465   9.268   6.127   1.909 -0.1598  0.1200 -0.0276
12657W        W28466   5.147   0.931   4.929  0.2540  0.1291 -0.2418
12658W        W28467  17.983   0.625   1.045  0.1088  0.1158 -0.3229
12659W        W28468  15.546   5.607  13.754  0.0543 -0.0681  0.0871
12660W        W28469  13.990   2.135  15.246 -0.2098  0.0173  0.1048
12661W        W28470  12.325   8.111  11.445  0.1371 -0.1168 -0.1608
12662W        W28471   3.737   7.238   1.415 -0.0680 -0.0051 -0.1771
12663W        W28472  13.030  16.057   3.885  0.0261 -0.1856 -0.1090
12664W        W28473  12.127   5.252   0.759 -0.1347  0.0888 -0.0628
12665W        W28474   9.809   7.711   4.878  0.1184  0.1081 -0.2650
12666W        W28475   7.811  16.917  15.804 -0.0790  0.2852 -0.2547
12667W        W28476  12.046   3.661   1.516 -0.0800 -0.0482 -0.0511
12668W        W28477   3.912  12.637   3.606  0.2296 -0.1533 -0.1932
12669W        W28478   5.846  12.550  14.108  0.2564 -0.0470 -0.1159
12670W        W28479   0.253  12.275  12.355 -0.0017 -0.1369  0.0068
12671W        W28480   3.433  10.432  15.093 -0.2215 -0.1716  0.0521
12672W        W28481   3.374   0.712   3.657 -0.0688  0.0877 -0.1469
12673W        W28482   6.965   7.233  13.596  0.1851 -0.1730 -0.1940
12674W        W28483  13.280   4.169   5.736 -0.2032  0.1718 -0.0349
12675W        W28484  15.402   0.282  14.987 -0.0891  0.2571 -0.0645
12676W        W28485  14.579  15.468  14.126  0.0063 -0.1072  0.1255
12677W        W28486  18.128  12.547   0.057 -0.0679  0.2807  0.3486
12678W        W28487   5.824   8.446  14.817 -0.0900 -0.0549 -0.1537
12679W        W28488  10.727   4.156  13.874 -0.4214  0.0319 -0.0398
12680W        W28489   9.929  12.885   1.301  0.4783 -0.4301 -0.0719
12681W        W28490   0.048   3.959   2.734  0.0862 -0.2588 -0.0565
12682W        W28491   6.053  10.333  11.100 -0.0631 -0.2803 -0.0250
12683W        W28492   7.618  16.073   4.851 -0.1063  0.2360 -0.0906
12684W        W28493  12.822  16.411   4.100 -0.1212 -0.2690  0.0320
12685W        W28494  10.738  15.880   2.491 -0.1868  0.0062  0.3254
12686W        W28495   3.235   8.755   3.534 -0.2030  0.3583 -0.0404
12687W        W28496  12.213  13.556  13.706 -0.0081  0.0250 -0.0673
12688W        W28497   0.369   1.968  14.889  0.0363  0.2942  0.2606
12689W        W28498  17.703  11.558   4.759  0.0300  0.1583 -0.1886
12690W        W28499  14.989   7.893   1.181 -0.3694 -0.0667 -0.1492
12691W        W28500   2.398  18.213  15.265  0.0479  0.3020  0.1627
12692W        W28501   2.469   3.355  14.660 -0.0666  0.0721 -0.1414
12693W        W28502  15.819   9.514  14.846  0.2394 -0.4084  0.0170
12694W        W28503   1.352   1.652  13.996  0.1186 -0.1841 -0.1265
12695W        W28504   4.180   3.231  12.656  0.4149 -0.0019  0.1429
12696W        W28505   7.988   8.006  14.063  0.1760  0.1168 -0.0787
12697W        W28506   0.611   4.352  15.509  0.0881 -0.0090  0.2310
12698W        W28507  18.169   0.358  14.390  0.0326  0.1662 -0.1532
12699W        W28508  11.179  18.119   2.382 -0.0418  0.1285  0.1647
12700W        W28509   0.600  15.437   4.950  0.1383 -0.0275 -0.1018
12701W        W28510   1.568   3.032   2.396 -0.1375  0.4597  0.0495
12702W        W28511  15.703   1.892  13.516  0.1041  0.2255  0.2426
12703W        W28512   3.350   0.498   1.135  0.0501 -0.3372 -0.0020
12704W        W28513   9.354   4.437   2.466 -0.0922  0.3234 -0.2324
12705W        W28514   3.789   5.354  14.267  0.0007  0.1938  0.1624
12706W        W28515   0.799   0.787   4.758  0.0297 -0.1956 -0.2036
12707W        W28516   0.990   6.278  14.726  0.0883  0.1792  0.4590
12708W        W28517   3.817   0.215   0.868  0.0625 -0.2136 -0.2130
12709W        W28518  11.223  10.952   2.213 -0.1561  0.1637 -0.3560
12710W        W28519  10.381   6.309  12.535 -0.1587  0.0340 -0.1768
12711W        W28520   9.013  15.691  13.975 -0.2207  0.1425 -0.1089
12712W        W28521   6.803   0.773   5.351 -0.1109  0.1378 -0.1525
12713W        W28522   0.296   7.906  10.980 -0.2840 -0.2990  0.0268
12714W        W28523   3.306   5.074   9.849 -0.0229 -0.0701 -0.0820
12715W        W28524   9.906   7.221  13.398 -0.1888  0.2854  0.2323
12716W        W28525   7.629  17.215  13.651 -0.0312  0.0964 -0.1487
12717W        W28526  10.423   3.785   3.619 -0.0546  0.0122 -0.2542
12718W        W28527  18.044   8.228   1.284 -0.0172  0.1137  0.0433
12719W        W28528   7.020  16.639   0.823 -0.0431 -0.3414 -0.0502
12720W        W28529  13.852  12.512  14.064 -0.0244 -0.1365 -0.0528
12721W        W28530  11.435  11.989   0.991 -0.0166  0.0906 -0.0303
12722W        W28531   6.696   5.714   0.510 -0.1371  0.0563  0.1208
12723W        W28532  16.783  15.509  16.008 -0.2328 -0.0945 -0.1166
12724W        W28533  13.025   8.269   3.649 -0.0295  0.0125 -0.0866
12725W        W28534   6.323   7.525   4.276 -0.0010 -0.1415  0.1410
12726W        W28535   4.166  10.220  15.337 -0.0585  0.1864 -0.1920
12727W        W28536  14.984  12.982  11.550 -0.0031  0.2382 -0.0631
12728W        W28537   3.313   7.277  14.020  0.4204  0.2595  0.2189
12729W        W28538  10.845  12.331   0.052 -0.1932  0.3300  0.1021
12730W        W28539  16.542   9.462   2.658  0.0845 -0.2003  0.0301
12731W        W28540  14.358   9.244   1.809  0.1062  0.3437  0.0164
12732W        W28541   9.927   8.805  15.724  0.1125  0.0502  0.1232
12733W        W28542  10.161   9.833   4.899 -0.1588 -0.0686  0.0701
12734W        W28543   4.274   1.659  15.195 -0.0005  0.0087  0.0562
12735W        W28544  17.014   0.227  13.623 -0.2051  0.2655  0.2311
12736W        W28545  10.741   6.235   1.131 -0.1415 -0.0384  0.0487
12737W        W28546  16.955   4.193   1.567  0.0003  0.0449 -0.1329
12738W        W28547  12.867   7.987  14.722  0.0284  0.4387 -0.2294
12739W        W28548  12.731  16.602  14.994  0.0262 -0.0801 -0.1280
12740W        W28549  10.637   1.863  14.485  0.0921  0.2878 -0.1317
12741W        W28550  18.064   0.422   0.579  0.0518  0.0737 -0.0082
12742W        W28551  11.106   4.904   3.549 -0.1128  0.1414  0.2513
12743W        W28552   7.522  13.685  14.941  0.1085 -0.2290  0.1464
12744W        W28553   1.088   8.502  13.746  0.0451 -0.2636  0.3132
12745W        W28554   2.343   7.303   2.150  0.1155 -0.1149  0.3246
12746W        W28555  14.635   4.201   0.652 -0.1000 -0.2432 -0.2077
12747W        W28556  17.444   0.885  12.219  0.3129  0.0979 -0.2507
12748W        W28557   9.115   8.560  11.153  0.0856  0.1622 -0.1251
12749W        W28558   4.754   7.328   2.062  0.0736 -0.0972  0.1979
12750W        W28559  11.919  16.240  11.642  0.0755  0.2327 -0.0263
12751W        W28560   0.407   2.159  15.334  0.0060  0.0834 -0.1008
12752W        W28561  12.662   1.909   0.738 -0.0608  0.1074  0.1949
12753W        W28562   5.374  10.784   4.524  0.0777 -0.1947  0.2992
12754W        W28563   6.838  14.083  14.617  0.0805 -0.2194 -0.0520
12755W        W28564   6.974  16.872  14.747  0.1327 -0.0770 -0.0098
12756W        W28565   2.391  14.067   0.362 -0.2904  0.1089 -0.0645
12757W        W28566   7.718   8.845   4.747  0.1681 -0.1367  0.0919
12758W        W28567   2.496  18.183  11.662 -0.0077  0.1707 -0.3216
12759W        W28568   9.734  14.099  13.482 -0.0328  0.1369 -0.3163
12760W        W28569   3.285  12.637  13.426 -0.0261  0.1944  0.3645
12761W        W28570  12.032   1.099  11.684 -0.2986  0.1263  0.0987
12762W        W28571   1.731   7.327  14.900 -0.0381 -0.2374 -0.2833
12763W        W28572  10.297   6.385   1.029  0.4583 -0.0258 -0.1126
12764W        W28573  11.450  10.395  12.215 -0.4071 -0.1365  0.0655
12765W        W28574   7.209   8.390   4.012 -0.0996  0.3717 -0.3486
12766W        W28575   9.468   2.865   6.110 -0.1074 -0.3891 -0.2278
12767W        W28576   2.898   5.928   3.767  0.3213  0.0760 -0.0187
12768W        W28577  10.049  12.481   5.608 -0.0391  0.0465 -0.2562
12769W        W28578   1.464   8.908  13.799 -0.3122 -0.1202  0.2685
12770W        W28579   3.290  15.478   5.367  0.0745 -0.1713  0.0719
12771W        W28580   9.589  13.922   4.573  0.1206  0.0045 -0.1889
12772W        W28581  16.476   8.082  12.537  0.0956 -0.1255  0.0655
12773W        W28582  16.697   3.743  11.816  0.1080  0.1143 -0.1248
12774W        W28583  15.366  12.759  12.145  0.1370 -0.1349  0.0577
12775W        W28584  16.693   0.033   1.039 -0.1683  0.0839  0.0827
12776W        W28585   2.928  13.034   3.157  0.0777 -0.1215  0.2000
12777W        W28586   2.570   5.646  10.929 -0.1412 -0.2644  0.0036
12778W        W28587  11.390  11.763  11.882  0.3661  0.5652  0.1238
12779W        W28588   9.295   0.180   4.400 -0.0350  0.2027 -0.2629
12780W        W28589  10.761   2.761  11.977 -0.1074 -0.0093 -0.0759
12781W        W28590  15.960   0.123  12.644 -0.1224 -0.0496  0.1478
12782W        W28591  17.959  16.463  13.770 -0.0440 -0.2329  0.0749
12783W        W28592  13.347   7.361   1.345 -0.0135 -0.1662 -0.2017
12784W        W28593  10.651   0.251   5.103 -0.2417 -0.1100 -0.0529
12785W        W28594   2.521  15.769   3.526  0.1939 -0.0936 -0.0551
12786W        W28595   8.473   8.420  14.761  0.0370  0.0311 -0.0332
12787W        W28596  11.059   5.875   3.765 -0.1771  0.0262  0.1178
12788W        W28597   4.789   3.032  11.947 -0.2275  0.1314 -0.2399
12789W        W28598   6.916   2.125  11.253  0.3128  0.2987  0.0952
12790W        W28599  10.121  16.473  16.047 -0.2301 -0.1381  0.1380
12791W        W28600  13.916   0.357   1.216 -0.0721  0.2299 -0.2921
12792W        W28601   4.208   6.383  12.461  0.0067 -0.1564 -0.2614
12793W        W28602   5.775  10.665  14.534 -0.0592  0.3135  0.0336
12794W        W28603  14.436   5.714   4.087  0.1680 -0.0134 -0.1153
12795W        W28604   3.436  17.670  15.533  0.2236  0.1396  0.0417
12796W        W28605   8.379  16.443   4.124  0.3403 -0.0573  0.0529
12797W        W28606   0.780   5.135   0.540  0.2677  0.0181  0.2351
12798W        W28607   2.319  11.412  14.909  0.1268 -0.1319  0.3000
12799W        W28608  10.743  16.795  13.491  0.1286 -0.0768 -0.1463
12800W        W28609   3.023   2.415  15.370  0.2284  0.3506  0.1020
12801W        W28610   5.792  13.924  13.819  0.3130 -0.1123  0.1230
12802W        W28611   4.302  12.954  15.019  0.1133 -0.1670 -0.6046
12803W        W28612   8.826   7.744   4.778 -0.0478 -0.2738 -0.1240
12804W        W28613   5.041  14.320  14.119 -0.0324  0.1149  0.0147
12805W        W28614   7.445  16.082  14.050  0.2479 -0.3590  0.0081
12806W        W28615  12.953  15.761   2.928  0.0627  0.1555 -0.0688
12807W        W28616   7.284  16.366   5.889  0.0207  0.2028 -0.0147
12808W        W28617   9.046  10.412   1.789  0.1646 -0.0641 -0.1921
12809W        W28618  13.326  10.912  11.868  0.0108  0.0173  0.0472
12810W        W28619  14.668  15.844  11.101 -0.1781 -0.0369  0.2130
12811W        W28620  14.274  10.438  15.077 -0.3029 -0.0305  0.2119
12812W        W28621   0.979   2.344   4.495  0.0490  0.2169 -0.1895
12813W        W28622  15.804  15.118   3.460  0.1107 -0.0397  0.0132
12814W        W28623   3.818  13.247  14.627  0.0044  0.0670  0.2513
12815W        W28624  12.758  17.074   5.222  0.0010  0.1581  0.1433
12816W        W28625   3.607  17.839  11.159 -0.2587 -0.0945 -0.0377
12817W        W28626  13.749  11.538  11.275 -0.2311  0.4648  0.3037
12818W        W28627  17.897   8.748   5.670  0.0985  0.0406  0.0364
12819W        W28628  10.077   4.572   3.911 -0.0814  0.2825 -0.1297
12820W        W28629   9.515   4.864   3.172  0.1556 -0.2352  0.1669
12821W        W28630   6.904   8.058   5.828 -0.0048 -0.1148 -0.0838
12822W        W28631  15.295  16.006   5.392 -0.0852 -0.2512  0.1814
12823W        W28632   5.549   8.203   0.608  0.0363  0.0640 -0.3806
12824W        W28633  14.916   1.033   4.430 -0.2168 -0.0229 -0.2182
12825W        W28634   0.402   1.780   2.682  0.0462  0.1689 -0.2893
12826W        W28635   6.373  16.089   3.250 -0.2161  0.0877 -0.2007
12827W        W28636   7.551  10.113  14.983  0.1495 -0.2932  0.1476
12828W        W28637   9.940  15.173   1.199 -0.0985 -0.2837 -0.2130
12829W        W28638   7.052  14.774  14.841 -0.0517  0.2130 -0.2107
12830W        W28639   7.945   8.137  11.488 -0.2770 -0.1220 -0.0115
12831W        W28640  15.133  11.766  15.544 -0.0184  0.3672  0.1750
12832W        W28641  14.895   3.197   1.802 -0.1094  0.3047  0.1591
12833W        W28642  14.339  15.416  10.463 -0.0057 -0.3557  0.0320
12834W        W28643  10.837  10.561  11.457  0.0746  0.1415 -0.0184
12835W        W28644   7.613  18.088   4.777  0.1054 -0.0890 -0.0331
12836W        W28645  18.112   8.382   2.137 -0.0828 -0.0436 -0.1074
12837W        W28646  15.326   6.594  15.587  0.0914  0.3373 -0.0493
12838W        W28647   9.952  17.839   4.032  0.1941 -0.0321  0.1802
12839W        W28648  13.543   1.266  14.673 -0.0520  0.0666  0.3631
12840W        W28649   1.631  12.391   2.318 -0.1537  0.1624  0.1097
12841W        W28650   3.565  10.484  16.025 -0.0986 -0.3521 -0.0921
12842W        W28651  12.949   9.073   1.631 -0.0839 -0.1028 -0.1092
12843W        W28652  14.487  11.806  15.045 -0.2109  0.0872 -0.0028
12844W        W28653   8.880  12.312   0.566  0.1085  0.0378  0.1955
12845W        W28654   6.003   2.647  13.982  0.1239 -0.1279  0.0798
12846W        W28655   6.860   8.771  10.711  0.0341  0.2434  0.1942
12847W        W28656   3.077   0.593   4.978 -0.0698 -0.2061 -0.0163
12848W        W28657  13.126   1.380   1.864  0.1846  0.1701 -0.1944
12849W        W28658  11.191  17.321   3.294 -0.1816 -0.2957  0.4009
12850W        W28659  16.046   0.506  11.783  0.1036  0.0405  0.2408
12851W        W28660   1.987  10.872   3.777 -0.1193 -0.0975  0.0086
12852W        W28661   0.065   2.907   1.814 -0.1390  0.2636 -0.0862
12853W        W28662  12.183  15.905   2.625  0.0783 -0.0964  0.3293
12854W        W28663  17.412   8.791  11.525  0.0217 -0.0699  0.0059
12855W        W28664   8.537  13.822   0.836 -0.0252 -0.0698 -0.1025
12856W        W28665   9.352   9.005  13.945 -0.0728  0.0069  0.1453
12857W        W28666  11.446   5.886  12.153 -0.0797 -0.0274 -0.0636
12858W        W28667  10.646   1.908  15.531 -0.1874 -0.2045  0.0177
12859W        W28668   0.734   7.267  14.611 -0.0394  0.1192  0.0377
12860W        W28669   2.471   9.385   4.991  0.2324  0.1661 -0.1706
12861W        W28670   5.726   8.453  13.642 -0.1041  0.0847  0.2786
12862W        W28671  16.496  16.435  14.093 -0.1456 -0.1784  0.1353
12863W        W28672  16.980  14.693  15.233 -0.0421 -0.0531  0.2500
12864W        W28673  18.001  14.743  14.833 -0.1298 -0.0565 -0.2330
12865W        W28674  12.492   7.769   1.026  0.1229  0.0586  0.0654
12866W        W28675  12.080  14.396  12.036 -0.0376  0.0673 -0.2611
12867W        W28676  11.085   8.281   1.848 -0.0291  0.0184 -0.1563
12868W        W28677   3.944   5.798  14.601 -0.0280  0.3793  0.1482
12869W        W28678   5.607   5.628  14.131 -0.0356  0.0221 -0.1610
12870W        W28679   7.777   8.607  12.408  0.2272 -0.0727 -0.3425
12871W        W28680  13.452   4.204   0.056 -0.1220  0.0622 -0.0182
12872W        W28681  13.983   6.189   2.390 -0.1066 -0.0502 -0.0050
12873W        W28682  16.790  17.493   0.002 -0.0313 -0.3303  0.0988
12874W        W28683  14.264  17.787  11.659 -0.1777  0.2149  0.2835
12875W        W28684   0.340  17.229  12.461  0.2666  0.1197  0.0873
12876W        W28685  18.142   6.714   3.146 -0.0371  0.1483  0.1627
12877W        W28686   1.262  16.241   2.289 -0.1933 -0.1820  0.1787
12878W        W28687  12.955  10.103  11.507  0.2084 -0.1370  0.0046
12879W        W28688  12.402   6.552   3.221  0.1747  0.1648 -0.0661
12880W        W28689  11.623   6.161   1.162 -0.1205 -0.0346  0.1822
12881W        W28690  15.433  15.540  11.476 -0.3905  0.0912  0.0538
12882W        W28691   4.969   7.634   5.062 -0.0594 -0.2945 -0.2595
12883W        W28692  17.130   2.922  13.667 -0.1210  0.2506  0.2442
12884W        W28693  15.414  11.354   1.029  0.1383 -0.2160  0.0451
12885W        W28694   0.891   3.537   2.962 -0.1633 -0.0662  0.1890
12886W        W28695   2.170   7.125  11.783  0.0536 -0.2075 -0.1715
12887W        W28696   1.557   0.723   3.119 -0.2413 -0.2197  0.1488
12888W        W28697   4.616  10.032  13.179 -0.3140 -0.0733  0.0434
12889W        W28698   5.813  16.316   1.405 -0.4115  0.1211  0.0965
12890W        W28699  16.558   4.818  15.680  0.0717  0.1884 -0.1845
12891W        W28700  14.094  13.528  14.889 -0.2785  0.0460 -0.3789
12892W        W28701  17.759  16.390  11.413  0.1781  0.0618 -0.1513
12893W        W28702  17.375  17.687  12.759 -0.2499 -0.0361 -0.0671
12894W        W28703  15.784   6.901   2.785 -0.2961 -0.1128 -0.2289
12895W        W28704   3.235  11.008  11.152 -0.0670  0.0369 -0.6009
12896W        W28705  16.135  17.975  15.582 -0.0174 -0.0216  0.2521
12897W        W28706   1.528   9.295   2.672  0.2023  0.3475  0.0390
12898W        W28707   1.791  15.628  11.729  0.1439  0.1228 -0.2308
12899W        W28708   8.295  10.799  14.283 -0.3096 -0.0387  0.1064
12900W        W28709  16.895   8.903   0.831 -0.0036 -0.2421 -0.1916
12901W        W28710   8.524   1.692   0.378 -0.0168  0.2380  0.1038
12902W        W28711  12.896   3.567  13.344  0.0982  0.1613 -0.0035
12903W        W28712   9.972   8.725  14.963  0.0703  0.0584  0.4526
12904W        W28713   4.641   8.925  11.272  0.0034  0.1357 -0.1433
12905W        W28714   1.939  16.937  15.363  0.1801 -0.0272  0.0055
12906W        W28715   3.799   1.080  12.585  0.2557 -0.1779 -0.1996
12907W        W28716   0.190  15.160  14.957 -0.1168 -0.3091  0.0575
12908W        W28717  13.905  12.058  12.959 -0.1486 -0.0978 -0.1035
12909W        W28718   2.277  17.860  13.769  0.1116 -0.2629  0.0258
12910W        W28719   3.534   0.666   4.626 -0.2967 -0.0335 -0.0049
12911W        W28720  17.243  15.471   5.745  0.1429 -0.0642  0.0893
12912W        W28721   1.367   7.940   4.368 -0.2449 -0.1779  0.2112
12913W        W28722  11.531   2.555   5.054 -0.0220  0.1232  0.1036
12914W        W28723   2.092  12.701  12.539 -0.2854 -0.1470  0.0206
12915W        W28724  14.895  16.087   0.611 -0.3989  0.2308 -0.1631
12916W        W28725   2.219   2.878  12.903 -0.0285  0.0563 -0.3859
12917W        W28726   8.020   8.622  15.098  0.0465  0.5149 -0.0764
12918W        W28727  17.581  17.514  15.389  0.0453  0.1315 -0.0873
12919W        W28728   3.453   9.240   2.276 -0.1080  0.0862  0.1413
12920W        W28729   6.701  15.206   1.864 -0.0432 -0.3154 -0.0167
12921W        W28730  17.469  10.268   4.708  0.1322  0.1176  0.0363
12922W        W28731   4.453   9.985   2.148 -0.2045 -0.1113 -0.0165
12923W        W28732  16.376  14.238  12.561 -0.0658 -0.2458 -0.0678
12924W        W28733  17.491   5.839   5.230  0.2943 -0.1223  0.0502
12925W        W28734   9.667  15.735   4.515  0.1409  0.1771 -0.0747
12926W        W28735  14.009   5.672  14.624 -0.4228 -0.1841 -0.4204
12927W        W28736   8.292  15.386   3.391  0.0835  0.0606 -0.1542
12928W        W28737   9.525  15.231   2.045 -0.1234  0.4032  0.1747
12929W        W28738  14.379   6.909  15.765 -0.0142 -0.1896  0.0153
12930W        W28739   8.270   2.080   5.217  0.0326 -0.2077 -0.1414
12931W        W28740   7.604   4.768   2.689 -0.2428  0.0964  0.2040
12932W        W28741   6.905   2.515   0.975  0.0366  0.2026  0.0042
12933W        W28742   0.626  16.546   0.236 -0.2143 -0.1112  0.3575
12934W        W28743   8.487  11.508  13.494 -0.0431 -0.0354  0.0206
12935W        W28744  14.667   8.805   3.476 -0.0404 -0.1250  0.2683
12936W        W28745   0.443  12.840   4.862  0.2359 -0.1405 -0.1519
12937W        W28746  13.373  11.192  11.308 -0.0305  0.3554  0.1631
12938W        W28747  16.440   7.695   2.584 -0.0583  0.0640 -0.1040
12939W        W28748  11.997   7.049  13.753  0.0044  0.0693 -0.0612
12940W        W28749   9.318   3.015  12.157 -0.0482 -0.0745 -0.3555
12941W        W28750  11.856  18.021  12.182  0.0092 -0.1606 -0.2321
12942W        W28751  11.001   9.506  10.751 -0.0237 -0.1076 -0.4293
12943W        W28752   4.228   7.617   0.973  0.0507 -0.0824 -0.0512
12944W        W28753   7.280   0.209   3.380 -0.1548  0.4670  0.2215
12945W        W28754   0.555   0.064  13.554  0.0188 -0.0279 -0.0383
12946W        W28755   9.374  15.881   2.865 -0.1725  0.1145  0.0044
12947W        W28756  10.320   2.774  12.898 -0.1403 -0.0084  0.0341
12948W        W28757   6.735  17.714   2.053 -0.1634 -0.1688 -0.2653
12949W        W28758   9.569   6.926  13.693  0.1342 -0.0215 -0.3023
12950W        W28759   7.797   4.720  15.494  0.0149  0.0046  0.2717
12951W        W28760  12.681   4.150   4.887 -0.2111  0.0660 -0.0251
12952W        W28761   5.424   7.467   4.805 -0.0025 -0.1705 -0.0009
12953W        W28762   4.888  12.434  11.303 -0.1588 -0.0248  0.1181
12954W        W28763   2.392  18.037   4.876  0.3281 -0.2398 -0.1799
12955W        W28764   8.497  10.498   4.591  0.2149  0.0428 -0.0639
12956W        W28765   3.293   2.171   5.044 -0.0880 -0.0851  0.2737
12957W        W28766   1.630   0.355   3.428  0.1345  0.0232  0.2155
12958W        W28767   1.923  11.342   0.145  0.1633 -0.1072  0.2668
12959W        W28768   8.743  15.254  14.742 -0.1016 -0.3415  0.1096
12960W        W28769   8.362  16.759  14.872 -0.3129  0.0878  0.0592
12961W        W28770  17.804   3.707  12.920  0.1008 -0.1441  0.0700
12962W        W28771   8.077  15.730  10.946  0.1907 -0.1996  0.5978
12963W        W28772   5.074  17.479  11.761 -0.0327 -0.1991  0.2955
12964W        W28773  15.661  17.908   3.707  0.0066 -0.0676  0.3660
12965W        W28774  16.451   5.149  11.278  0.2675  0.1066 -0.0334
12966W        W28775   1.219   2.406  13.003 -0.1100 -0.0300 -0.0405
12967W        W28776   6.632  11.774   1.596  0.0510 -0.1741  0.0439
12968W        W28777   8.392  12.306  11.596 -0.0107 -0.1005 -0.2521
12969W        W28778   4.181   9.819  14.983 -0.1319 -0.0423 -0.1890
12970W        W28779   7.382  12.299   2.109 -0.1428 -0.4045 -0.2738
12971W        W28780  10.947   1.905   4.010 -0.2571 -0.2165  0.3882
12972W        W28781  11.576   8.108   2.836  0.2363  0.0178  0.1497
12973W        W28782  15.783  10.995   1.162 -0.1235  0.1427  0.0271
12974W        W28783  17.132   3.798   1.792 -0.0820 -0.0631  0.1421
12975W        W28784   7.668  13.454  15.344  0.1266  0.2017  0.2156
12976W        W28785   5.136  12.666  13.277 -0.0163  0.1818  0.1340
12977W        W28786   4.409   8.199  13.207 -0.1362  0.1178  0.1748
12978W        W28787  14.008  15.247  15.448 -0.1142  0.1112 -0.1649
12979W        W28788   6.734  17.242   1.070  0.3589  0.1919  0.0684
12980W        W28789  16.328   3.971  13.381 -0.3616 -0.3527  0.0791
12981W        W28790   6.048   0.429   1.283 -0.0719 -0.0413  0.1093
12982W        W28791   0.124  10.742  13.046  0.1126  0.0189 -0.0619
12983W        W28792  14.145   4.006  11.027  0.1700 -0.1091 -0.0727
12984W        W28793   8.581  10.151   2.741 -0.1553 -0.0678 -0.2727
12985W        W28794   7.886  15.395   0.761 -0.2323 -0.1200  0.0814
12986W        W28795   0.698   1.907   3.184  0.1376 -0.1538 -0.0603
12987W        W28796  13.131   9.023   0.162 -0.0444  0.1832 -0.2640
12988W        W28797  14.009   1.874   4.137  0.2703  0.0044 -0.1044
12989W        W28798  15.658  10.943  11.721  0.2150  0.2669 -0.0868
12990W        W28799  14.703  11.871  12.258 -0.1206 -0.1265  0.1106
12991W        W28800   7.469  15.276   9.945  0.3470 -0.0594 -0.0842
12992W        W28801   4.888  16.229  11.711  0.2425  0.2003  0.2542
12993W        W28802   6.032  16.441   2.058  0.0236 -0.2077  0.0449
12994W        W28803   7.173  15.347  11.177  0.0085  0.1426 -0.0841
12995W        W28804   9.292   9.893  15.173 -0.2867 -0.0840 -0.0283
12996W        W28805  16.123   6.522   3.995  0.3674 -0.0760 -0.0225
12997W        W28806  16.945   5.550  12.166 -0.1557  0.3147 -0.2173
12998W        W28807  12.198   7.305  13.378  0.2916  0.0568  0.2705
12999W        W28808   7.365   5.890   2.727 -0.0335  0.0012  0.3217
13000W        W28809  13.857  15.872  14.307  0.2226 -0.0130 -0.1301
13001W        W28810  15.561   7.246   0.888 -0.3277  0.0732 -0.1660
13002W        W28811  14.452   7.936  12.578 -0.1814 -0.1599  0.0253
13003W        W28812   1.891   5.859  12.146  0.0529  0.0067  0.1480
13004W        W28813  12.083   1.046   3.409  0.2938 -0.1995 -0.1619
13005W        W28814  10.351   2.770   2.619 -0.0245  0.1559  0.1481
13006W        W28815   6.392  16.918  13.504 -0.1356 -0.0540 -0.1500
13007W        W28816  17.659  14.610   2.071 -0.0151  0.6151 -0.1813
13008W        W28817   0.516  16.778   1.611 -0.2855 -0.1689 -0.0745
13009W        W28818   6.054  16.035  13.577 -0.0075  0.3524 -0.0334
13010W        W28819   6.138   7.136  15.545  0.0653 -0.0216 -0.2256
13011W        W28820   0.192   1.057   3.262  0.0216 -0.0440 -0.0626
13012W        W28821  14.764  10.816  12.919  0.0249 -0.0545 -0.0094
13013W        W28822   3.242  17.308  12.566  0.1836  0.1791 -0.2099
13014W        W28823  10.298  15.983   3.973  0.1429  0.0671 -0.0730
13015W        W28824   0.957   3.473   4.520  0.0588 -0.0612  0.1770
13016W        W28825  16.942  17.143   4.345 -0.3124 -0.0132  0.2744
13017W        W28826  16.878   6.215   4.783 -0.0399  0.2048 -0.0793
13018W        W28827   3.492   5.614  14.814 -0.1280 -0.0184  0.0756
13019W        W28828  13.118  13.119  14.695 -0.0540  0.3155 -0.1907
13020W        W28829   5.652   0.457  11.608  0.4422 -0.0465  0.1395
13021W        W28830   2.484   5.325  13.220  0.1381 -0.1907  0.4258
13022W        W28831   5.661   1.798  11.372  0.5123  0.1159  0.1660
13023W        W28832   4.116   2.273   0.230  0.1810  0.0353 -0.0623
13024W        W28833   9.975   0.864  12.293  0.0669 -0.4027 -0.0525
13025W        W28834   3.664  16.561  13.056  0.2442  0.0698  0.0090
13026W        W28835   1.896   7.653  11.187  0.1806  0.1651 -0.1587
13027W        W28836  13.283   9.084   0.690 -0.0051 -0.1180  0.0845
13028W        W28837   4.005   5.396  11.950  0.2719  0.0785 -0.1732
13029W        W28838   1.981   5.588   0.467  0.0265 -0.0929 -0.1376
13030W        W28839  11.054   2.518   3.288 -0.0053  0.1969 -0.2751
13031W        W28840   3.949   4.300   4.119 -0.1765  0.3269 -0.0160
13032W        W28841  18.106   4.174  12.148  0.2385  0.2387  0.0236
13033W        W28842   2.537  14.811   0.923 -0.2644 -0.0705 -0.0122
13034W        W28843  13.524  11.577   3.207  0.0264 -0.1549 -0.0611
13035W        W28844  12.942  15.650  11.731  0.2506  0.0264 -0.2240
13036W        W28845   2.432  16.327   3.677 -0.2914  0.0968 -0.0633
13037W        W28846  14.163  15.958   4.458  0.2838  0.1157 -0.3657
13038W        W28847  13.581  18.036  13.575 -0.0579 -0.2254  0.2286
13039W        W28848   3.956   4.237  11.046  0.1279 -0.3037 -0.0383
13040W        W28849   0.984  11.271   0.286  0.1636  0.0583  0.1615
13041W        W28850  12.831   3.230  12.537  0.0675 -0.1101  0.1075
13042W        W28851  17.243  13.305   5.673 -0.0819 -0.5047 -0.1039
13043W        W28852   7.376   9.778  13.892 -0.2023 -0.1027  0.0402
13044W        W28853   2.472   1.577   2.814 -0.2555  0.2779 -0.2668
13045W        W28854  10.607  17.133  12.971 -0.0838 -0.0961  0.0601
13046W        W28855  14.604   6.751  14.010  0.5755 -0.2918 -0.0670
13047W        W28856   8.741   0.979  14.938  0.0595  0.1350 -0.0052
13048W        W28857  15.901   6.800   5.328  0.2678  0.1626 -0.3833
13049W        W28858   8.588   3.135   5.340 -0.0075 -0.1560 -0.1779
13050W        W28859  17.612   8.066   2.055 -0.2202 -0.3351  0.0488
13051W        W28860  11.824   6.358  11.315  0.2522 -0.0662  0.1133
13052W        W28861  10.403   4.850  12.000  0.1159  0.1494  0.0776
13053W        W28862   7.817  14.566   0.040 -0.1427 -0.1622  0.2248
13054W        W28863  10.500  15.363  10.638  0.2945  0.2767 -0.1568
13055W        W28864   0.528   8.430  12.135 -0.2956  0.2518  0.1934
13056W        W28865   5.229  15.274  11.100  0.0428 -0.1001  0.1180
13057W        W28866  12.035  14.118  14.369 -0.1270 -0.1238  0.1401
13058W        W28867   0.107   7.402  12.959 -0.1406 -0.1867  0.3207
13059W        W28868  15.234   6.066   3.598  0.0521  0.4764 -0.0363
13060W        W28869   8.771   9.512  12.842  0.2927  0.0452  0.1873
13061W        W28870   3.734  17.740  11.639  0.2497  0.2200  0.0962
13062W        W28871   8.525   4.723  13.001 -0.2646  0.0240 -0.1626
13063W        W28872   7.325  13.437   5.095 -0.0546 -0.1865 -0.2535
13064W        W28873   9.439  14.657   4.825 -0.0148  0.0376 -0.0333
13065W        W28874   1.403  12.293  15.234  0.2430  0.0435 -0.1815
13066W        W28875  11.585   0.884   3.391 -0.2427 -0.2946 -0.0652
13067W        W28876  11.726   6.816  14.181  0.0948 -0.1308 -0.0375
13068W        W28877  16.514   1.834   0.844  0.0046  0.0725 -0.1055
13069W        W28878   1.952  13.407  14.082 -0.0819  0.1059  0.0380
13070W        W28879   5.734   7.683   1.378 -0.1413 -0.0713 -0.1345
13071W        W28880   5.519   6.575   2.038  0.1046  0.5007  0.1652
13072W        W28881   1.951   5.946   0.779 -0.4275 -0.0515 -0.0640
13073W        W28882   1.603   1.240   1.721  0.4259 -0.1042  0.1517
13074W        W28883  13.789   6.458  13.492 -0.0755 -0.2945  0.1779
13075W        W28884  10.705  17.645  12.868 -0.1037 -0.0165 -0.0129
13076W        W28885  16.746   2.730  11.829 -0.2755 -0.0334 -0.3458
13077W        W28886  14.026  17.542   2.636  0.1907  0.0156  0.0059
13078W        W28887   9.811  11.486   1.304  0.1373  0.1192  0.3481
13079W        W28888   9.459  11.196  14.537 -0.0442  0.1426 -0.2687
13080W        W28889  13.484   7.971  13.653 -0.0585 -0.1465  0.1149
13081W        W28890  15.554  10.002   1.519  0.0562 -0.2285  0.1227
13082W        W28891   6.522   8.987   0.864 -0.1052  0.1454 -0.0140
13083W        W28892   7.209   9.522   4.568 -0.3241 -0.0237 -0.1652
13084W        W28893  11.367   4.192   6.157 -0.2389  0.3107  0.2748
13085W        W28894  14.686  16.019   1.899 -0.1526 -0.2019 -0.0943
13086W        W28895   0.529   8.524  15.667  0.0739 -0.1567  0.1349
13087W        W28896  15.076  15.538   2.621  0.1579 -0.2031  0.0784
13088W        W28897   0.544   5.817   4.668 -0.1644 -0.0031  0.0059
13089W        W28898   2.294   3.854  13.209  0.1697 -0.0553 -0.1442
13090W        W28899   5.980   0.132   4.061 -0.1658 -0.3404 -0.0759
13091W        W28900   4.801  11.807  13.428 -0.1189 -0.0402 -0.1847
13092W        W28901  10.539  13.704   2.761  0.0494  0.1888  0.0171
13093W        W28902   9.555   2.427   5.002  0.0239 -0.1910 -0.0548
13094W        W28903   1.068  11.588  13.211 -0.1735  0.3291 -0.1935
13095W        W28904   5.172   7.016   2.254  0.0614  0.0481  0.1330
13096W        W28905  10.876  12.291  14.536 -0.1729 -0.0809 -0.0414
13097W        W28906  13.612  16.282   4.826  0.2126  0.1296  0.0944
13098W        W28907  12.416  12.952  12.559  0.1843 -0.1352 -0.3014
13099W        W28908  16.243  15.869   3.145  0.0783 -0.0429  0.4162
13100W        W28909  15.198  15.508  13.057  0.0191  0.1376  0.2081
13101W        W28910   2.396  14.939  15.105 -0.1675  0.2125  0.2080
13102W        W28911   5.042  17.002  13.162 -0.0908 -0.1248  0.1660
13103W        W28912   1.585  11.657  13.927  0.2410 -0.0550  0.0607
13104W        W28913   6.230  13.877   0.754 -0.3039 -0.0940 -0.1829
13105W        W28914  12.477  13.893  14.385  0.2501 -0.0426 -0.0269
13106W        W28915   4.657   1.376   1.302 -0.1371  0.0954 -0.0089
13107W        W28916   3.354  13.142  15.971  0.1768  0.3649 -0.1664
13108W        W28917   4.215  11.316   3.549  0.1510 -0.2639 -0.3256
13109W        W28918  13.516  14.909  14.880 -0.1380 -0.2804 -0.2484
13110W        W28919  13.505   2.796  11.636 -0.2425  0.2190 -0.2115
13111W        W28920   1.228  13.160   3.311 -0.0664  0.0521 -0.1173
13112W        W28921  17.317  15.044   5.494 -0.0569 -0.1718  0.2422
13113W        W28922   4.038   9.987   2.622 -0.0573 -0.1590  0.2125
13114W        W28923  12.756   5.388  11.664  0.0440  0.0045 -0.0395
13115W        W28924   2.601   2.848  14.976  0.1026  0.2194 -0.1206
13116W        W28925  16.358   6.326  15.896 -0.2645 -0.0629 -0.1116
13117W        W28926  16.647   1.060  11.443  0.2774  0.0208 -0.2598
13118W        W28927   0.837  12.106  10.725  0.1226 -0.3031 -0.0947
13119W        W28928   7.594   6.672   5.140 -0.2461  0.2239 -0.3287
13120W        W28929  10.491  10.514  14.091 -0.3281  0.1990  0.4539
13121W        W28930   4.085   2.681   0.531  0.0111 -0.3723 -0.2153
13122W        W28931   1.495  14.505  13.649  0.2218 -0.0793  0.1441
13123W        W28932  13.084   9.287  11.855 -0.0110  0.0387  0.0004
13124W        W28933   4.164   7.949   4.530 -0.0947 -0.0840  0.1837
13125W        W28934   9.540   6.744  11.176 -0.1524  0.1409 -0.3076
13126W        W28935  16.523   1.019  12.444 -0.1832 -0.2143  0.5511
13127W        W28936   0.397  10.970  12.152  0.3984  0.0514  0.0107
13128W        W28937   2.703   0.277   3.555 -0.2564 -0.1134 -0.1128
13129W        W28938   4.160  10.899   3.225  0.2173  0.0978  0.1059
13130W        W28939  13.492   6.918  15.302  0.1146 -0.1489  0.1198
13131W        W28940   4.159   1.689   4.282 -0.1074  0.1599  0.0741
13132W        W28941  14.138   6.736   3.890 -0.2537  0.2814  0.0468
13133W        W28942  11.733   5.552   1.792 -0.0493  0.3817 -0.2644
13134W        W28943   4.439   8.901   4.709 -0.0259 -0.0542 -0.5686
13135W        W28944   5.378  10.934   2.700  0.5262 -0.1383  0.0431
13136W        W28945  12.800   6.506   1.529  0.1179  0.0424  0.2244
13137W        W28946  13.713  12.732   5.077  0.2676  0.1577  0.1271
13138W        W28947   7.358   3.269   3.909  0.0230  0.0495 -0.0656
13139W        W28948   2.545  13.674   2.100 -0.2525 -0.0538 -0.0841
13140W        W28949   0.144   9.626  12.801  0.2901 -0.1626  0.1102
13141W        W28950  10.442   7.321   1.948  0.4073 -0.0045  0.0211
13142W        W28951   4.111   6.798   1.603 -0.1838 -0.2007  0.2610
13143W        W28952  15.592   3.962   2.000  0.1121  0.1176 -0.0860
13144W        W28953   7.834  10.882  14.629 -0.0906  0.0299  0.0064
13145W        W28954  12.722  11.265   2.712  0.0860 -0.0864  0.0444
13146W        W28955   8.878  10.069   4.466 -0.1794 -0.1292  0.0068
13147W        W28956  17.572  17.951  11.744 -0.4549 -0.0378 -0.4018
13148W        W28957   2.814  16.570  12.154  0.0666  0.1894  0.1966
13149W        W28958  17.970   6.739  10.807  0.1357 -0.0712 -0.0969
13150W        W28959  12.374   8.627  11.652  0.0374  0.0870  0.0659
13151W        W28960   5.352   0.125   3.791 -0.1000  0.1160  0.0267
13152W        W28961   5.307  15.232   6.049  0.1372 -0.0936 -0.0179
13153W        W28962   6.512   8.620  13.722 -0.2226 -0.0638  0.1524
13154W        W28963   9.378   2.994  14.430 -0.2980 -0.1129  0.2339
13155W        W28964  15.900   6.388  14.377 -0.0983  0.3066 -0.2007
13156W        W28965  15.614  17.318   0.055 -0.0329  0.1802  0.0081
13157W        W28966   0.985   7.607   2.321  0.1697 -0.2506  0.0347
13158W        W28967   7.370   8.470  11.554 -0.2338  0.2002 -0.1613
13159W        W28968   7.891   3.952   2.242 -0.2413 -0.2876  0.0353
13160W        W28969   1.392  18.050   0.413 -0.1957 -0.0535 -0.0635
13161W        W28970  14.484   2.899   2.730  0.2847 -0.1322  0.0036
13162W        W28971   9.330  18.125  15.243  0.2545 -0.1328  0.0143
13163W        W28972   2.285   6.771  15.067  0.1539 -0.1298  0.0082
13164W        W28973   5.102  15.448   1.357 -0.3998 -0.0496  0.2142
13165W        W28974   0.639   0.832   3.494 -0.2009 -0.1561 -0.2393
13166W        W28975  15.781   6.301  12.400  0.0300  0.0499  0.2399
13167W        W28976   5.966   4.456  15.573  0.1206  0.0377  0.1314
13168W        W28977   1.274   0.285   2.872 -0.3327 -0.2349  0.3953
13169W        W28978  16.514  15.051  11.457  0.0005  0.1671 -0.0649
13170W        W28979   7.442   5.987   2.244 -0.2177 -0.1384  0.1057
13171W        W28980   9.003  14.902   2.805 -0.2650 -0.1647 -0.2789
13172W        W28981   0.153  15.933  15.832 -0.0369  0.1249 -0.1359
13173W        W28982  11.860  12.219  14.319 -0.2685 -0.3176  0.3753
13174W        W28983   5.818   5.005  15.019 -0.0741 -0.0478  0.0438
13175W        W28984  15.940  17.231  15.693  0.3412 -0.0539 -0.2456
13176W        W28985   9.884  10.642   2.947 -0.0861 -0.0086  0.0918
13177W        W28986  10.695  14.159   5.293 -0.3447 -0.1378 -0.0619
13178W        W28987  11.638  17.838  10.608  0.3613 -0.1799  0.1139
13179W        W28988   3.694  14.904   1.280 -0.1257  0.0216  0.0312
13180W        W28989   4.288  13.372  14.728 -0.2046 -0.0121  0.2077
13181W        W28990   6.551   2.981   0.383  0.1627 -0.1509 -0.2292
13182W        W28991   1.546   4.885   0.984 -0.0655 -0.0529  0.0254
13183W        W28992  15.969  10.229  14.026  0.0317  0.1983  0.0365
13184W        W28993  18.034   7.989   1.793 -0.0463 -0.1220  0.0909
13185W        W28994   5.898  14.606  11.499 -0.0590 -0.0077 -0.0625
13186W        W28995   6.804  12.371  14.719 -0.2414  0.2177  0.1172
13187W        W28996   6.644   7.973   0.433  0.2076  0.1939 -0.0364
13188W        W28997   5.088  12.843   4.751  0.1643 -0.0612 -0.2029
13189W        W28998   5.415   1.894   4.137 -0.0361 -0.1493 -0.0459
13190W        W28999  16.592   7.289   1.816 -0.2925  0.1726 -0.2114
13191W        W29000   9.813  12.956  15.669 -0.0922 -0.0709 -0.1265
13192W        W29001   0.133   3.246  14.041 -0.5500 -0.0327  0.3894
13193W        W29002  11.905  13.367   3.257 -0.4038  0.0417 -0.1088
13194W        W29003   6.619  10.201   4.612  0.1905 -0.0528 -0.1245
13195W        W29004  18.128  18.173  13.993  0.1584 -0.0837  0.5410
13196W        W29005  13.159  18.077   1.827 -0.0121  0.0415 -0.0080
13197W        W29006   0.821   2.815  12.943  0.2339  0.0647  0.1233
13198W        W29007   3.622   1.796   3.912  0.1690  0.2383 -0.0498
13199W        W29008  17.358  18.201  14.898 -0.1969 -0.2087  0.3032
13200W        W29009  17.809   9.129  11.385 -0.0563  0.3790  0.0047
13201W        W29010  10.303  10.935   3.251  0.0501 -0.1743 -0.1575
13202W        W29011  15.510  16.381   5.137 -0.2987  0.0310 -0.0025
13203W        W29012   2.834   1.397   4.787  0.0926  0.0599  0.1501
13204W        W29013  16.603  12.555   3.685  0.1884  0.2501 -0.0140
13205W        W29014  17.130  15.025  13.675  0.0074  0.0308  0.0329
13206W        W29015   5.441  17.622  14.009  0.0384  0.0531  0.0246
13207W        W29016   5.347  11.484  10.811 -0.1292  0.0355  0.3443
13208W        W29017   4.424  17.857   0.327  0.1985 -0.1004  0.0630
13209W        W29018   4.669  10.212  14.284  0.3458  0.2105  0.0553
13210W        W29019  16.534  11.650  12.248  0.2250  0.0760 -0.1295
13211W        W29020   0.820   9.884   1.550 -0.1064  0.4134 -0.1189
13212W        W29021  11.601   2.058   5.312  0.0449  0.0542 -0.0369
13213W        W29022  16.988   4.346  13.184  0.0188  0.0768  0.0754
13214W        W29023   6.855  14.328  11.425  0.0587 -0.1328  0.0941
13215W        W29024  15.451   7.948  14.316 -0.0287 -0.1635 -0.1580
13216W        W29025  14.796  12.184   3.456 -0.0959  0.1567  0.0374
13217W        W29026   9.237  18.024   1.903 -0.4535 -0.0740  0.0083
13218W        W29027  16.015  10.036  10.988 -0.0493  0.1538 -0.0207
13219W        W29028   2.963  12.633   0.785 -0.0684  0.1458  0.2369
13220W        W29029   9.551   2.618   4.454 -0.0216 -0.2613 -0.0689
13221W        W29030  10.230  16.304  10.408 -0.0784  0.0844  0.1177
13222W        W29031   0.612  17.660  12.467 -0.4159  0.1580  0.2608
13223W        W29032   3.001   9.841   1.812 -0.1499 -0.0587 -0.1262
13224W        W29033   1.598   8.761   3.880 -0.2576 -0.0047 -0.2160
13225W        W29034   2.485  16.882  13.676  0.1930 -0.2938 -0.1252
13226W        W29035  10.150   8.096  10.445 -0.6598  0.0305  0.2584
13227W        W29036   5.508   3.395   4.852 -0.1372  0.1783 -0.1369
13228W        W29037   6.521  12.128   2.476  0.0433  0.0564 -0.2759
13229W        W29038  15.251  10.343  13.490  0.2118 -0.0933 -0.0584
13230W        W29039   6.896   0.200   0.327 -0.2966 -0.0620 -0.0113
13231W        W29040   8.954  13.129   2.923  0.0788  0.0418  0.1213
13232W        W29041   2.915   4.384   1.770  0.3055 -0.1514 -0.1110
13233W        W29042  17.064   5.589   2.951  0.3134 -0.2214  0.0081
13234W        W29043   3.123  12.084  15.905  0.0443  0.0917 -0.0971
13235W        W29044   6.167   5.690  11.146 -0.1191 -0.0399  0.1477
13236W        W29045  15.506   6.712   4.879  0.1216  0.3441  0.0146
13237W        W29046   1.038   5.544   4.263  0.1121 -0.1407 -0.4303
13238W        W29047  16.736   2.691  12.644 -0.0667  0.0253  0.0653
13239W        W29048   4.620   7.978   0.084  0.2130  0.1160 -0.1461
13240W        W29049  17.646   6.547   3.013 -0.0050  0.1637 -0.0281
13241W        W29050  16.137  11.923  13.342 -0.3964  0.2014 -0.0928
13242W        W29051   5.274   6.479  14.048 -0.2054 -0.2166 -0.3736
13243W        W29052   4.626  15.884   6.026 -0.0557 -0.0960  0.2002
13244W        W29053  11.060   7.431  15.363 -0.2654 -0.0563 -0.3823
13245W        W29054   4.924   4.734  12.773  0.0397 -0.1097  0.1685
13246W        W29055   2.271  13.200  12.588 -0.0319  0.2294 -0.2767
13247W        W29056  13.809   8.653  11.327 -0.0304 -0.1280  0.3388
13248W        W29057   3.990  14.868  15.629 -0.1319  0.3232  0.1998
13249W        W29058   4.197   0.527   0.690 -0.2181  0.0226 -0.2094
13250W        W29059  12.741   3.786  12.465  0.0530  0.3620 -0.1092
13251W        W29060  15.392   3.639   5.214 -0.0924  0.1126  0.0460
13252W        W29061  16.774  12.631  15.834  0.1422 -0.2194 -0.0417
13253W        W29062   9.769   8.280  13.037 -0.0817 -0.1118  0.0362
13254W        W29063  13.404   6.606   4.166 -0.1500 -0.3753 -0.2260
13255W        W29064   1.094  15.939  12.344 -0.2742 -0.1605 -0.1766
13256W        W29065   1.925   5.128  13.832 -0.1508 -0.2787 -0.0928
13257W        W29066  11.172  15.573  10.600  0.0509 -0.1313  0.3250
13258W        W29067  16.913   6.724  15.190 -0.1620  0.0028 -0.1833
13259W        W29068   6.285   8.421   4.676 -0.3693  0.1895  0.2745
13260W        W29069   0.420   7.157   5.561  0.1592 -0.0228  0.2441
13261W        W29070  16.744  12.667  11.249  0.1386  0.0580  0.1946
13262W        W29071   4.829   9.777  14.199  0.4645  0.1586  0.1712
13263W        W29072  17.308  14.942   0.870 -0.0073 -0.2105 -0.0951
13264W        W29073  13.297  17.175  13.086  0.1022 -0.0382 -0.3371
13265W        W29074   7.592   3.589  13.326 -0.2077 -0.1108  0.0874
13266W        W29075   0.340   9.827   4.216  0.1343  0.0847 -0.2148
13267W        W29076   0.819   6.682  11.545 -0.0665  0.3843 -0.0390
13268W        W29077   5.828   1.798  14.279  0.0071 -0.1750  0.0931
13269W        W29078   0.442   5.031   4.783 -0.1514  0.0179  0.0478
13270W        W29079   4.757   1.775  12.685  0.1192 -0.3016  0.0286
13271W        W29080  10.468   9.424  11.833 -0.2607 -0.0844 -0.2586
13272W        W29081  12.842  17.977   3.190  0.0552  0.2405  0.0059
13273W        W29082  11.323   4.373   5.339  0.0579  0.1414 -0.0211
13274W        W29083   8.121  10.874   3.244 -0.0304  0.1216  0.1454
13275W        W29084  10.786   6.017   1.728 -0.0336 -0.0124 -0.0128
13276W        W29085   6.820  17.045  15.957  0.0137  0.3217 -0.4171
13277W        W29086  16.676   6.818  13.260 -0.1512  0.2750  0.2568
13278W        W29087  11.307   8.224   5.504  0.0024 -0.1672 -0.0380
13279W        W29088  10.810   8.587   3.910 -0.1205  0.2278 -0.1406
13280W        W29089  16.976   4.122   2.969  0.3242  0.1495 -0.1563
13281W        W29090  14.875   9.401  11.023 -0.0628  0.2296 -0.1356
13282W        W29091  11.001  13.178   1.478  0.3314 -0.2213 -0.1453
13283W        W29092  16.920  14.839  11.256  0.1266 -0.2188  0.1573
13284W        W29093  13.548   5.446  14.899 -0.1602  0.1912  0.0783
13285W        W29094  14.290   4.451   0.958 -0.1297 -0.0913  0.0470
13286W        W29095  17.766   3.603  15.647 -0.0189  0.1491  0.2822
13287W        W29096  11.876  12.665  13.967  0.3865  0.2085 -0.1185
13288W        W29097  16.863   7.182  15.363 -0.0461 -0.2338  0.0864
13289W        W29098   3.334  14.076  11.039 -0.0636 -0.0648  0.0103
13290W        W29099   3.660  15.224  15.904 -0.1016  0.0645 -0.0089
13291W        W29100   4.191  10.089  10.773  0.1663 -0.2462  0.0039
13292W        W29101   1.612  15.842   3.422 -0.0545  0.1654 -0.2486
13293W        W29102  15.565   5.399  12.028 -0.3133  0.2673  0.1461
13294W        W29103  17.559   4.762  15.690 -0.0757  0.1961 -0.2241
13295W        W29104  11.809  12.386   2.071 -0.0043  0.0676  0.1496
13296W        W29105  15.307   9.257  12.194 -0.0042 -0.0658 -0.1433
13297W        W29106   3.214  16.374  11.809  0.1100 -0.2096  0.3675
13298W        W29107   0.118   1.314  11.394 -0.0786 -0.1304 -0.0682
13299W        W29108   4.881   9.125  11.687  0.1400 -0.0533 -0.0391
13300W        W29109  11.038   1.474  11.687  0.0354 -0.1615 -0.0353
13301W        W29110  14.564   2.863   1.674  0.1705 -0.1223 -0.0740
13302W        W29111  13.682   7.231   5.440  0.2197 -0.0251  0.0726
13303W        W29112   3.052   8.059  15.837  0.4275  0.0647 -0.1518
13304W        W29113  13.545  17.095   4.638  0.0567 -0.1476 -0.2529
13305W        W29114   3.829   3.326  12.201  0.2787 -0.3454  0.2435
13306W        W29115  10.113   5.383  15.110 -0.1507 -0.2025 -0.0815
13307W        W29116  12.558   8.397  15.043 -0.0062  0.1224 -0.1563
13308W        W29117  12.379   7.649   0.092  0.1349  0.0866 -0.1658
13309W        W29118   9.699   4.153   4.821  0.2846 -0.2022 -0.0651
13310W        W29119   2.343  15.691  12.482  0.2824  0.1193  0.0215
13311W        W29120  12.749   7.427  11.726  0.0986 -0.2183  0.1323
13312W        W29121   6.366   3.033  12.852 -0.0987  0.1437 -0.1078
13313W        W29122   8.711  14.842   1.752 -0.0946  0.0880  0.2448
13314W        W29123  13.981  13.534  15.397 -0.0928 -0.0142 -0.0229
13315W        W29124   4.988  11.555  12.452  0.1758 -0.1605 -0.1919
13316W        W29125  12.651   5.904   0.368  0.1611  0.4910  0.2048
13317W        W29126   2.530   0.666  15.344 -0.1831  0.0765  0.4576
13318W        W29127   8.871   3.025  15.489 -0.2859  0.2837 -0.1262
13319W        W29128   3.126   3.584   3.535  0.4153  0.1981 -0.0867
13320W        W29129  15.392  15.595   1.217  0.4679 -0.0202  0.0970
13321W        W29130  14.419   6.847   5.004 -0.0200 -0.1034  0.0306
13322W        W29131   0.195   8.816   1.644 -0.2660 -0.1722 -0.1086
13323W        W29132  13.498   1.613   0.871 -0.0151  0.1931  0.1901
13324W        W29133  11.633  10.853  11.356  0.2574 -0.0061  0.0872
13325W        W29134   1.434   9.186  12.207 -0.1916 -0.0922 -0.2044
13326W        W29135   3.908   3.214  11.073  0.1403  0.0664 -0.0280
13327W        W29136   4.630  15.268   1.681 -0.0954  0.0336  0.0195
13328W        W29137  14.687   2.837  13.273  0.0780  0.0446  0.2619
13329W        W29138   2.942  17.205  14.936  0.0483 -0.0068  0.0885
13330W        W29139  11.739   1.167  15.201 -0.1990 -0.0531 -0.0432
13331W        W29140   6.564   2.079  13.645  0.0724  0.0275  0.1639
13332W        W29141   4.757  17.338   3.293  0.1136  0.0038 -0.0037
13333W        W29142  12.773   8.876  11.799 -0.1117  0.3855 -0.1048
13334W        W29143  16.356   6.301  14.610  0.0919 -0.0081  0.0550
13335W        W29144  17.039   9.861   0.460 -0.2666  0.0677  0.1709
13336W        W29145   6.535  17.494  13.436 -0.0876  0.0941 -0.1447
13337W        W29146   9.614   9.969  14.060 -0.1798  0.1257  0.1268
13338W        W29147   1.778  12.909   4.667  0.0595 -0.0006  0.0213
13339W        W29148   8.728  13.575   2.892 -0.0278 -0.1582 -0.1180
13340W        W29149  18.138  13.420  11.734 -0.1977  0.2888  0.1878
13341W        W29150   5.246  11.414  12.028 -0.1021 -0.0809  0.2153
13342W        W29151  15.137  11.638  12.332 -0.2480 -0.1211  0.0793
13343W        W29152   4.101   8.718   0.317  0.2314  0.1044  0.1153
13344W        W29153   5.305   4.781  15.968  0.2632  0.0035 -0.0723
13345W        W29154   0.449   4.010   5.961 -0.0928  0.1127 -0.1192
13346W        W29155   8.307  10.985   4.107 -0.0811 -0.0484  0.1120
13347W        W29156   9.572   9.707   0.104  0.0936 -0.1708 -0.1083
13348W        W29157   4.608   8.274   2.617  0.0962 -0.1228 -0.1003
13349W        W29158   2.085  10.652  14.588 -0.1558 -0.0411  0.1693
13350W        W29159   8.428  15.599   4.525  0.1304  0.0271 -0.5011
13351W        W29160  12.933   3.674   3.134 -0.2969  0.2854 -0.0006
13352W        W29161  17.042  12.489   2.641 -0.0513  0.3065  0.0289
13353W        W29162   9.262  14.054   5.025  0.3657  0.0104 -0.2239
13354W        W29163  11.318   8.648  10.185  0.1381  0.2069  0.2091
13355W        W29164   4.515  14.126   0.066  0.1804  0.0936  0.0528
13356W        W29165   0.270  10.422   2.152  0.0805 -0.2054  0.0478
13357W        W29166   5.972  14.617   2.887  0.0834  0.1634 -0.1061
13358W        W29167  11.742  15.178   4.821  0.2530 -0.4468  0.0888
13359W        W29168  18.228   2.362   1.059 -0.0069 -0.1016  0.0445
13360W        W29169   1.529  12.888   2.153  0.0530 -0.0810 -0.1283
13361W        W29170  10.128   6.438  15.082  0.2168  0.0872 -0.0654
13362W        W29171  17.138   9.547  13.314 -0.2013 -0.0851 -0.1666
13363W        W29172  12.955   3.226   0.874 -0.0023 -0.1472  0.2155
13364W        W29173  12.142  13.192   5.502  0.0561 -0.1168  0.2031
13365W        W29174  17.513  16.071   5.032 -0.0883 -0.2760 -0.0123
13366W        W29175  15.255  11.030   4.262  0.3566  0.0987 -0.0283
13367W        W29176   2.292  10.120   2.919 -0.0306  0.1965  0.1659
13368W        W29177   6.546  12.844  14.391 -0.1421  0.1924 -0.0198
13369W        W29178   0.123  14.570  10.691  0.0736  0.0221  0.1019
13370W        W29179  14.021   6.149  15.605  0.3123 -0.2033 -0.0685
13371W        W29180   5.581   9.075   4.494  0.0144  0.1179 -0.0550
13372W        W29181   8.356  12.590   4.432  0.0800  0.1114  0.0429
13373W        W29182  11.328   4.039   2.600  0.0525  0.0203 -0.0830
13374W        W29183  16.664  17.191   0.839  0.1108 -0.0245  0.2437
13375W        W29184  14.087   9.405  14.251 -0.1271 -0.2511 -0.2512
13376W        W29185   1.304   8.513   0.190  0.2687 -0.0337  0.0234
13377W        W29186  11.221   8.403   3.668 -0.0407  0.1867 -0.1885
13378W        W29187   8.800   5.363   2.923  0.0548 -0.0012 -0.0098
13379W        W29188   7.169   6.705  10.798 -0.0080  0.4064  0.0500
13380W        W29189   8.593   1.220  13.488 -0.1290  0.0866 -0.1889
13381W        W29190  15.985  14.725  10.944  0.3405  0.1746 -0.2136
13382W        W29191   5.973  17.803   1.397  0.0147 -0.1720  0.0993
13383W        W29192  11.501   4.337  11.725  0.1350  0.0419  0.2014
13384W        W29193  10.334  10.939  15.080 -0.4449 -0.2036 -0.0060
13385W        W29194   0.313  10.689   1.319  0.0072 -0.1190 -0.2057
13386W        W29195  16.135   5.504   5.048 -0.1130  0.2989  0.1201
13387W        W29196   4.440   4.076   2.343  0.0052 -0.1468  0.0825
13388W        W29197  11.985   6.311   2.335  0.4526  0.0322 -0.1906
13389W        W29198   5.486   1.589   0.704  0.2929 -0.4118  0.0758
13390W        W29199  16.979   4.219  12.493 -0.0144  0.0905 -0.2283
13391W        W29200   8.829   5.907   1.294  0.2613 -0.1635 -0.0258
13392W        W29201   9.952  17.224   1.370  0.1000  0.3345  0.3534
13393W        W29202   7.327  13.773   1.800  0.0267  0.1273  0.2488
13394W        W29203  17.776   3.688  14.850 -0.2689 -0.3174  0.3040
13395W        W29204   1.265  12.580   0.503  0.0007 -0.0679  0.0101
13396W        W29205   9.556   8.532  11.817 -0.1475 -0.0426  0.0796
13397W        W29206   0.178  12.095  11.366 -0.1894  0.0957  0.0174
13398W        W29207   7.695   6.517  11.744  0.0501 -0.3776  0.0094
13399W        W29208   6.011   3.506  11.906 -0.3682 -0.3321 -0.2365
13400W        W29209  17.101   8.550  15.983  0.0669  0.0650 -0.0960
13401W        W29210  15.287   9.398  13.855 -0.1040 -0.0778 -0.1153
13402W        W29211   4.772   4.022  13.088  0.1330 -0.1012 -0.0234
13403W        W29212   2.233  14.511   3.911 -0.1557 -0.2137  0.1804
13404W        W29213  10.469   6.803  12.669 -0.0095  0.0000  0.1304
13405W        W29214   8.525  11.727  14.415 -0.2165  0.0221 -0.4557
13406W        W29215  15.761  17.316   4.835  0.1161 -0.2005 -0.1512
13407W        W29216   4.418  14.353  12.078  0.1983  0.2052  0.1107
13408W        W29217  15.298   3.502   1.555  0.1234 -0.0421  0.0783
13409W        W29218   4.071  17.110   2.660  0.2429 -0.1725 -0.1352
13410W        W29219   8.947  16.220   0.440 -0.0534 -0.2068 -0.0136
13411W        W29220   4.951   0.006  12.811  0.0869  0.2455  0.0815
13412W        W29221  17.286  11.500  16.046  0.0024  0.0142 -0.0089
13413W        W29222  16.266   9.394   4.797  0.1413  0.0227 -0.0355
13414W        W29223   8.545  17.445   0.458 -0.1931  0.1800  0.1374
13415W        W29224   9.480  15.748  13.809 -0.0248  0.3202  0.2232
13416W        W29225  11.013   0.331   2.994  0.2455  0.0488 -0.0802
13417W        W29226   6.599   6.658   3.900  0.0427  0.0757 -0.1272
13418W        W29227  15.385   2.679   3.188  0.1111  0.2562 -0.2407
13419W        W29228  15.570  10.890   3.907  0.0235 -0.1980  0.1194
13420W        W29229   2.037  12.602   0.975  0.0597 -0.2959  0.0903
13421W        W29230  13.686  13.729  12.640 -0.4127 -0.0986  0.0981
13422W        W29231  10.561   8.278   0.309  0.0509  0.0034 -0.1048
13423W        W29232   2.260   5.260   3.358 -0.0921 -0.1166 -0.0435
13424W        W29233   8.955   7.611   2.362 -0.0254 -0.0161  0.1318
13425W        W29234   7.154   2.541   5.011  0.1164 -0.1567  0.0569
13426W        W29235   5.971   0.942  15.343 -0.0116 -0.0774 -0.0351
13427W        W29236   8.384  12.105  11.037  0.2060 -0.1554  0.2803
13428W        W29237   0.944  12.935  14.782 -0.1097  0.0011  0.2092
13429W        W29238  16.046   1.314   2.038 -0.1564  0.2176  0.0776
13430W        W29239   6.373  10.599  15.906  0.3143  0.1759 -0.2302
13431W        W29240   1.647   1.453   2.598 -0.0297 -0.1210 -0.0278
13432W        W29241  17.406  16.967  15.569  0.0687  0.2446  0.2586
13433W        W29242  15.135   8.332  11.908  0.1474 -0.0152  0.1166
13434W        W29243   1.047   3.895  14.780  0.3078 -0.0256 -0.0389
13435W        W29244   0.803   8.689  13.229 -0.2838 -0.0154 -0.1086
13436W        W29245  11.288   7.021   2.085  0.0145  0.1240  0.0338
13437W        W29246  10.781   0.933  15.416  0.1354  0.0592 -0.1440
13438W        W29247   2.803   2.917   4.760 -0.1587 -0.1646 -0.1851
13439W        W29248  17.141   5.594   1.202 -0.3292 -0.3536  0.0121
13440W        W29249  15.862   4.825   5.058 -0.0687  0.1587 -0.0535
13441W        W29250   9.096  16.829   1.211  0.1566 -0.0773  0.0489
13442W        W29251  18.132   7.515  10.484 -0.2105  0.0472  0.0464
13443W        W29252  15.265  14.612   3.878 -0.0374 -0.1652  0.0081
13444W        W29253   3.689   9.881   2.945  0.0935  0.2197  0.1157
13445W        W29254  14.602  12.032   2.004  0.0679  0.0367  0.2162
13446W        W29255  17.782  17.456   5.571 -0.0225 -0.2219  0.0823
13447W        W29256  15.931   0.961   5.910  0.1796 -0.1107 -0.0625
13448W        W29257   3.883   4.940  11.685 -0.0297  0.2202 -0.1995
13449W        W29258   4.731  14.248   0.956 -0.1089 -0.0748 -0.2379
13450W        W29259   9.498  12.901  11.350 -0.0127 -0.0574  0.3200
13451W        W29260   9.298   7.373  15.084 -0.0930  0.1853  0.1314
13452W        W29261  14.094  12.288  15.772  0.1207  0.3386  0.0222
13453W        W29262   8.720   9.960  12.574  0.2029  0.2165  0.1020
13454W        W29263   9.409   1.775   3.176  0.1734 -0.1441  0.2243
13455W        W29264   8.170   8.133   1.990 -0.2213  0.3392  0.0106
13456W        W29265  13.530  11.536   3.734 -0.1807 -0.2243 -0.1864
13457W        W29266   4.876   7.798   1.770 -0.0108  0.3965 -0.0435
13458W        W29267  10.185   6.670  14.259  0.0343 -0.4042 -0.0042
13459W        W29268   2.078   0.469  15.109 -0.2198  0.3396  0.1537
13460W        W29269   2.310   8.387   4.947  0.0275 -0.0046 -0.1838
13461W        W29270  12.695  11.926   0.195 -0.0722  0.0158 -0.1292
13462W        W29271  10.995  14.580   4.959 -0.1143  0.1450  0.1972
13463W        W29272   3.272   3.533   2.115  0.0468 -0.0237 -0.2089
13464W        W29273  16.266  16.691   2.310  0.2152 -0.0347  0.2724
13465W        W29274   6.418  15.791  15.543  0.0109  0.1779 -0.1242
13466W        W29275  16.121   9.338   2.094 -0.1557  0.0858 -0.2204
13467W        W29276  11.930  18.233  16.037  0.0821 -0.2925 -0.0028
13468W        W29277   0.978  13.963  14.651 -0.4016 -0.0644 -0.0812
13469W        W29278  14.626  17.996  11.437 -0.4043 -0.1563  0.0280
13470W        W29279   9.045  13.692  12.892 -0.1215 -0.0153 -0.2244
13471W        W29280   9.541  17.695  12.238  0.0247 -0.1091 -0.3156
13472W        W29281   6.452   5.905  11.474  0.0253 -0.0949  0.0814
13473W        W29282   5.154  15.720  11.663 -0.2997  0.3495  0.4069
13474W        W29283   5.175  14.529   3.406 -0.2086 -0.0500 -0.1849
13475W        W29284   4.833   2.720   5.164  0.3769  0.2855 -0.1389
13476W        W29285   0.838   0.576  10.710  0.2442  0.0870 -0.3432
13477W        W29286  18.054  10.283  13.254  0.2231 -0.0334 -0.1217
13478W        W29287  14.416   7.802  13.189 -0.0738  0.1458 -0.1284
13479W        W29288   7.542  14.916  12.392 -0.1803  0.4923  0.2078
13480W        W29289   8.265  14.309   2.650 -0.0036  0.0642 -0.0605
13481W        W29290   3.094   7.110   0.380 -0.1478 -0.2362 -0.1850
13482W        W29291  10.810  15.615   1.401 -0.1124  0.1034  0.0614
13483W        W29292   2.593   7.086  15.281 -0.2253 -0.0663 -0.0579
13484W        W29293   4.096  16.617   4.473  0.0838  0.0111  0.1402
13485W        W29294  15.119  13.275  15.570 -0.0250 -0.2572 -0.0885
13486W        W29295  12.742   2.417  14.221  0.0687 -0.0677 -0.2170
13487W        W29296   7.475   6.899   2.333  0.0932  0.1172  0.0574
13488W        W29297   6.446   1.100   2.082  0.0845 -0.1401  0.0860
13489W        W29298  11.944   0.105   5.798 -0.0597 -0.0759 -0.0715
13490W        W29299   8.376   0.493  13.211 -0.0736  0.0564 -0.0432
13491W        W29300  14.921  12.164  13.598  0.0043  0.0641 -0.3132
13492W        W29301  16.284  17.971   3.698  0.0646 -0.2721  0.1846
13493W        W29302   8.952   9.602  12.297 -0.2027 -0.2315  0.2490
13494W        W29303   9.393   8.379  12.698  0.0522  0.0573 -0.1056
13495W        W29304   4.052   4.397   2.534  0.1784 -0.1318 -0.1493
13496W        W29305  16.553  16.888   5.208  0.2009 -0.2905 -0.0531
13497W        W29306   1.145   9.852   3.471  0.0624 -0.1339 -0.0341
13498W        W29307  14.219   9.902  14.403 -0.2066  0.2277 -0.0587
13499W        W29308  12.456   4.848   3.909 -0.0015 -0.0639  0.1168
13500W        W29309  15.243   1.813   3.273 -0.1153 -0.1319  0.1180
13501W        W29310  14.521   5.439  15.402 -0.0823 -0.0863  0.1631
13502W        W29311  13.698   1.508   6.226  0.4492  0.1110  0.0763
13503W        W29312   5.317  10.765  13.041 -0.2780  0.2024 -0.0755
13504W        W29313   9.579   0.260  13.383  0.3366 -0.1361 -0.5189
13505W        W29314  15.011  11.506  11.402  0.2570  0.3282  0.1537
13506W        W29315  17.564   1.322  11.304  0.1171  0.2807  0.0061
13507W        W29316  11.628   7.100   0.011  0.1948  0.0975 -0.3947
13508W        W29317  17.535   7.641   5.185  0.3418 -0.0124 -0.2117
13509W        W29318  17.089  12.969   2.888 -0.0382 -0.1883  0.0758
13510W        W29319   4.854   8.920  14.922 -0.0250 -0.1691  0.0537
13511W        W29320  13.240  16.844  15.146  0.1856 -0.2013 -0.1848
13512W        W29321   0.883   5.555  11.921  0.1966  0.2519  0.0605
13513W        W29322  12.498  15.107   5.364 -0.0229 -0.1081 -0.1456
13514W        W29323   2.267  10.635   0.549 -0.0793  0.0115 -0.2009
13515W        W29324   3.639  16.288   1.098 -0.0069  0.1172  0.0883
13516W        W29325   0.705  11.236   5.410  0.2216  0.1802 -0.2478
13517W        W29326   8.067   2.307  14.034  0.2802 -0.0728  0.0834
13518W        W29327   9.581  13.121   3.812 -0.1101 -0.1396  0.0436
13519W        W29328  12.931   6.981  14.514  0.0723  0.1564  0.0357
13520W        W29329   7.055   3.876  15.213 -0.2557  0.1321  0.0509
13521W        W29330   0.841  13.828  12.534  0.2552  0.0219 -0.0204
13522W        W29331   2.540  14.187  11.506 -0.1494  0.2831 -0.1276
13523W        W29332  14.696  17.072   0.409 -0.2413 -0.1676  0.4167
13524W        W29333  16.877   0.635  11.443 -0.0736 -0.0649  0.1262
13525W        W29334   5.785  17.573  15.031  0.1282  0.2544 -0.0213
13526W        W29335   9.621  13.836  13.930 -0.0369 -0.1919  0.1200
13527W        W29336   6.840   4.943  13.949 -0.3130  0.0201  0.1342
13528W        W29337   4.674   5.550   4.027  0.2461  0.0747  0.2122
13529W        W29338   7.493   5.894  14.730 -0.2504 -0.1055 -0.0707
13530W        W29339  12.984   8.612   1.770 -0.1147 -0.1846  0.2302
13531W        W29340  14.351  11.911   4.263 -0.1057 -0.1060  0.2021
13532W        W29341  11.329  13.665   4.789  0.1100  0.3258 -0.1290
13533W        W29342   1.514   4.743   5.278 -0.1846  0.0162 -0.1258
13534W        W29343   8.654   6.810   1.868  0.2224  0.1449 -0.0353
13535W        W29344  10.715   5.496   2.598  0.0498 -0.0965 -0.1754
13536W        W29345   6.622   3.724   0.843 -0.0293  0.2892  0.3390
13537W        W29346   5.615  17.164  14.098  0.2710 -0.0009  0.0651
13538W        W29347   4.349   6.494  10.773 -0.0399  0.3581  0.1415
13539W        W29348   5.761   3.750  13.260 -0.0936  0.0802 -0.1188
13540W        W29349  11.914   5.782   3.600  0.0031 -0.2393 -0.4322
13541W        W29350  18.156   0.706  11.253 -0.1256 -0.0859  0.0888
13542W        W29351  10.980  17.457   0.913  0.1389  0.2071 -0.0027
13543W        W29352   7.954   8.618   2.065 -0.0996  0.1665 -0.1504
13544W        W29353  16.225   8.057   1.534 -0.1509 -0.0523  0.0864
13545W        W29354   7.021   0.572   3.120  0.2400 -0.0847  0.4852
13546W        W29355   0.243   6.023   3.397  0.0292  0.2013  0.0287
13547W        W29356   8.892   2.530  11.262 -0.0055  0.3730 -0.2479
13548W        W29357   3.038  15.356   2.791  0.2209  0.0265 -0.0431
13549W        W29358  16.089   5.274   0.352 -0.3249  0.2175 -0.2187
13550W        W29359   6.759   7.453  11.014  0.3754  0.0619  0.1757
13551W        W29360  15.460  13.175  11.823 -0.1547  0.1945  0.0756
13552W        W29361   3.590   7.549   2.865 -0.1738  0.1318  0.0591
13553W        W29362  16.169  16.671   3.676 -0.0586  0.0820  0.1578
13554W        W29363   6.165   2.762  15.773 -0.6506  0.3025 -0.1330
13555W        W29364  10.023  10.041  13.089  0.1646  0.0080 -0.0523
13556W        W29365   8.473   4.985   1.165 -0.5457 -0.1879 -0.2842
13557W        W29366  14.002   6.510  12.479  0.3073  0.0467 -0.2302
13558W        W29367  11.182   0.091  12.887  0.0962  0.2428 -0.0073
13559W        W29368  13.742  14.883  15.838 -0.3907 -0.3281  0.0290
13560W        W29369  17.251   5.638  14.174 -0.4116  0.0532 -0.1283
13561W        W29370   3.767   9.099   0.121  0.1035  0.2069  0.2372
13562W        W29371   5.542   4.344  15.849 -0.1569 -0.0616 -0.2610
13563W        W29372   8.482   2.280  11.061  0.0013 -0.0463  0.4516
13564W        W29373   1.568  15.911   1.114 -0.1271  0.1603  0.0368
13565W        W29374  16.910   2.392  12.129  0.0197 -0.1073 -0.0329
13566W        W29375   8.028  17.021  10.350 -0.0275 -0.0080  0.0586
13567W        W29376   1.797   6.150  10.485  0.0383 -0.0640  0.0574
13568W        W29377  10.389   1.535  12.353  0.0295  0.0151  0.0752
13569W        W29378   7.093  13.225   1.059  0.0484  0.0934 -0.0078
13570W        W29379  11.959  15.850   0.157  0.1891  0.0198  0.1140
13571W        W29380   0.378   8.696  11.706  0.0113 -0.1891 -0.0134
13572W        W29381  18.160   5.195   2.095  0.0715  0.0312  0.2615
13573W        W29382   7.343  13.912   4.896  0.1971 -0.0256 -0.0247
13574W        W29383  17.942   9.173   4.447  0.4220 -0.0316  0.0492
13575W        W29384   7.894   2.078  15.061 -0.2825  0.0038 -0.0416
13576W        W29385  17.999  11.915  11.432  0.1614 -0.0701  0.1318
13577W        W29386  14.854   0.294   1.228  0.0873  0.0590  0.0799
13578W        W29387  12.944  11.852   5.737 -0.2425 -0.0290 -0.0971
13579W        W29388   7.532   0.898   2.688 -0.0260 -0.4690  0.0574
13580W        W29389   5.738  10.951  15.264  0.1947  0.2284  0.0386
13581W        W29390  16.415  12.850  15.630 -0.0433 -0.1501 -0.0086
13582W        W29391  10.494  10.072  13.757  0.0724  0.0097 -0.1814
13583W        W29392   9.632   5.192   3.967 -0.1126  0.1574 -0.1814
13584W        W29393   2.272   5.855   3.468 -0.0529  0.0599 -0.0229
13585W        W29394  12.735   7.586  10.803 -0.0841 -0.1862  0.3725
13586W        W29395  11.990  10.585  11.670  0.0213 -0.1436  0.0787
13587W        W29396   2.586   3.374  15.303 -0.4986 -0.1132 -0.0117
13588W        W29397   8.880   5.320  15.643  0.1652  0.3827 -0.0189
13589W        W29398  16.863  15.417   6.099 -0.1214  0.1088  0.0144
13590W        W29399   4.493   9.764  10.942 -0.1696  0.1809  0.2455
13591W        W29400   9.196  14.822   1.851  0.0330  0.1004 -0.2022
13592W        W29401  16.349   8.322   1.912 -0.0472 -0.0745 -0.4723
13593W        W29402   5.203   0.528   2.614  0.1443 -0.0467  0.0303
13594W        W29403   7.581   8.366  15.358 -0.3188 -0.0310 -0.3472
13595W        W29404  11.534  11.650  11.023 -0.1957 -0.0956  0.1345
13596W        W29405   8.035   0.226  15.807  0.0122  0.0064 -0.4394
13597W        W29406   0.142   5.942   4.406 -0.1769  0.0142 -0.2169
13598W        W29407  14.400  13.064   2.359 -0.2603  0.2978  0.0940
13599W        W29408  18.261   9.180  12.587 -0.1067  0.0197  0.3273
13600W        W29409   6.960   4.633   1.824 -0.1160  0.0891  0.0970
13601W        W29410   6.195  11.216   0.673 -0.0207  0.0988  0.0076
13602W        W29411  12.444   4.481   1.202 -0.2936 -0.2405  0.0913
13603W        W29412  16.456   4.170   4.212  0.0935 -0.2416  0.3030
13604W        W29413   4.862   7.706   0.477 -0.0297  0.2163 -0.1997
13605W        W29414   9.879   1.712  13.007 -0.0900 -0.1211 -0.0703
13606W        W29415   8.748   1.254  10.918  0.2238  0.1961  0.0129
13607W        W29416   9.614   3.579  13.085 -0.4344 -0.1493  0.3201
13608W        W29417   6.419   4.753  10.688  0.0244 -0.1898 -0.0878
13609W        W29418  15.170   4.501   1.931  0.0390 -0.0762  0.2369
13610W        W29419  16.179  15.702  11.372  0.2191  0.3005 -0.2686
13611W        W29420   8.372   1.703   1.075 -0.0161 -0.0669  0.1497
13612W        W29421  17.322   9.529   0.963 -0.1087 -0.2227  0.1072
13613W        W29422   3.079  13.498   0.263  0.2889  0.0177 -0.0375
13614W        W29423   5.385   9.679   3.112 -0.0057 -0.0930 -0.1315
13615W        W29424  13.107   9.879  10.161 -0.1329  0.1660 -0.0677
13616W        W29425   8.315   6.456   2.853 -0.1948 -0.0938 -0.2288
13617W        W29426   7.925   0.056   4.325  0.1083  0.1455 -0.0735
13618W        W29427   3.120   6.980   1.188 -0.0973  0.0687 -0.2249
13619W        W29428   7.270   1.073  12.664 -0.0632 -0.0361 -0.0672
13620W        W29429  14.687   3.728   0.910 -0.2451  0.3829 -0.1255
13621W        W29430  11.622  15.044  12.264 -0.3325  0.2213 -0.3645
13622W        W29431  13.361   6.844  14.294 -0.0029 -0.1048  0.3400
13623W        W29432  13.554   6.708  12.577  0.2965  0.0475  0.1977
13624W        W29433  12.715  14.511   5.151 -0.0608 -0.5206  0.0873
13625W        W29434   1.928  10.462   3.388  0.0457 -0.3018  0.1573
13626W        W29435   0.983  13.626   6.122  0.4285  0.2941 -0.0368
13627W        W29436  13.086   9.664  14.132  0.0300  0.0909  0.0389
13628W        W29437   6.425   4.203  13.568  0.0445  0.3059 -0.2054
13629W        W29438   2.571   0.330   1.640 -0.2105  0.1600  0.0792
13630W        W29439   1.972   1.721   3.141  0.1692  0.0989  0.1102
13631W        W29440   3.449   7.206   0.874 -0.0777 -0.0282 -0.1299
13632W        W29441  16.461   5.025   3.193  0.0421  0.2486  0.1999
13633W        W29442   9.767  12.128   0.572  0.0496 -0.1052  0.0658
13634W        W29443  14.674  15.053  12.380 -0.1915 -0.0854  0.1325
13635W        W29444  17.142   0.460   5.604  0.0479  0.1428  0.1880
13636W        W29445  13.203  12.764  11.472 -0.1329  0.1022 -0.2568
13637W        W29446  12.767  17.180  11.689  0.1304 -0.1061  0.2897
13638W        W29447  16.671   5.965  14.862  0.0341  0.0193 -0.0930
13639W        W29448  10.299   3.749   1.181  0.0261 -0.1231 -0.0964
13640W        W29449   0.094   8.615   1.217  0.2904  0.1878 -0.1392
13641W        W29450  16.964   3.970   4.107  0.0282  0.1256  0.2734
13642W        W29451   4.505   0.533   1.348  0.1396  0.0439 -0.3776
13643W        W29452   2.499   3.495  12.777  0.0045 -0.1411  0.0735
13644W        W29453  13.398  15.881   1.070  0.0068  0.0619 -0.2484
13645W        W29454   0.178  14.053  13.505 -0.3459 -0.0738 -0.1935
13646W        W29455  12.733  13.115  11.743  0.0608  0.1438  0.0069
13647W        W29456   4.637   0.742  11.156 -0.0538  0.0922  0.0215
13648W        W29457  11.472   1.626   1.308 -0.4550 -0.2028 -0.0161
13649W        W29458   3.409   1.851  16.056 -0.0368  0.1730 -0.0434
13650W        W29459  13.655  15.824   4.506 -0.1719  0.1034  0.1150
13651W        W29460   5.949  11.176   5.377 -0.1222 -0.3806 -0.2857
13652W        W29461  10.100  18.169   1.769  0.0150 -0.0194 -0.1759
13653W        W29462   7.624   7.171  11.223 -0.0773 -0.2459 -0.2297
13654W        W29463  10.117   5.655   0.867  0.1358 -0.0317 -0.0088
13655W        W29464   4.745  11.399  13.791  0.0568  0.0395  0.3739
13656W        W29465  15.797   7.089  14.466  0.0400  0.0238  0.3037
13657W        W29466   9.507   2.588  12.906  0.2304  0.0697  0.1601
13658W        W29467   6.657   1.740  10.639 -0.3549 -0.0899 -0.0915
13659W        W29468   2.716  11.776  11.836  0.1710  0.1403 -0.3138
13660W        W29469   2.050   4.791   2.356 -0.0140 -0.1702 -0.0708
13661W        W29470   6.059   8.181  12.210 -0.1637 -0.0335  0.0400
13662W        W29471   9.450  10.067  11.835 -0.0680 -0.3230 -0.0293
13663W        W29472  15.470   0.738   6.002 -0.1059 -0.0734  0.0225
13664W        W29473   8.686  18.158   2.125 -0.3705  0.0297 -0.0573
13665W        W29474  13.837  15.859   1.545  0.1044  0.0683 -0.1794
13666W        W29475   1.983   3.648  12.858  0.1012  0.1319  0.0114
13667W        W29476  14.352  11.930  13.317 -0.0271  0.2700 -0.1039
13668W        W29477   5.653  12.549  13.283 -0.0566  0.1706  0.1395
13669W        W29478  15.097   8.246   1.693  0.1590  0.2449  0.0955
13670W        W29479   9.815   9.762  12.604  0.1738 -0.1679  0.2322
13671W        W29480   0.448   0.464  12.042 -0.1516 -0.2643  0.1423
13672W        W29481   7.238  12.555  15.470 -0.1219 -0.0893  0.1717
13673W        W29482   9.458   9.781   5.005 -0.0784 -0.3381  0.2670
13674W        W29483   7.777  13.460  12.478 -0.2172  0.0548 -0.1172
13675W        W29484  10.293   0.364  15.567 -0.1048 -0.1607  0.1840
13676W        W29485   6.564  10.857  11.906 -0.1274  0.0982  0.1793
13677W        W29486   4.507   2.985  15.845  0.4410  0.2193 -0.0740
13678W        W29487   3.781  12.541  12.053 -0.0777  0.1923 -0.4087
13679W        W29488   7.134   0.435   0.708 -0.1608 -0.1136  0.1147
13680W        W29489  10.384   1.562   1.973  0.1441  0.0422  0.2740
13681W        W29490  17.214  15.963  15.941 -0.0978 -0.0521 -0.0067
13682W        W29491   2.057   9.312   0.462 -0.2179  0.2006  0.1227
13683W        W29492   3.705  10.897  14.227 -0.1823  0.1133  0.0540
13684W        W29493  18.200  14.286  15.312 -0.3920  0.1660  0.0686
13685W        W29494  18.173  11.405   1.156 -0.0436  0.1375 -0.1777
13686W        W29495  16.190  17.253   2.472 -0.3844 -0.0231  0.1360
13687W        W29496   5.791  16.196  15.785  0.1587 -0.1245  0.0955
13688W        W29497  10.169   2.940  15.430 -0.0125 -0.0320  0.2200
13689W        W29498   9.215  14.357   2.777 -0.1174 -0.0566  0.0526
13690W        W29499  12.202  10.577  13.591  0.1133  0.1776 -0.0632
13691W        W29500   2.537  12.307  12.632 -0.1486 -0.1120  0.1089
13692W        W29501   0.449  12.524   3.073  0.0529 -0.4742 -0.0858
13693W        W29502   3.488   1.551  15.660 -0.1668  0.3004  0.0071
13694W        W29503  18.010  12.737  11.079 -0.3636 -0.1108 -0.1150
13695W        W29504  12.073   0.659  15.076 -0.0466 -0.2037 -0.2732
13696W        W29505   3.744  12.212  15.255 -0.1532 -0.2405  0.1590
13697W        W29506  13.990   5.519   0.180 -0.2911  0.2564  0.0449
13698W        W29507   4.750   6.875   4.026 -0.1419  0.2322  0.2136
13699W        W29508   5.614  16.822  14.484  0.0167  0.1647 -0.5156
13700W        W29509   8.193  12.921  14.101 -0.2284 -0.1639 -0.0369
13701W        W29510   6.098   9.755  14.295 -0.2767  0.1990 -0.1099
13702W        W29511  13.755  14.081  14.005 -0.2666 -0.0425  0.0052
13703W        W29512   0.481   9.044  15.750 -0.1597  0.1142  0.0210
13704W        W29513   5.899  17.508   4.459  0.1631  0.4086 -0.1132
13705W        W29514   8.381   8.762  13.290 -0.3238 -0.1365  0.3139
13706W        W29515  17.473   1.105  13.609  0.0785 -0.0193 -0.0373
13707W        W29516   2.237  14.979  13.023 -0.0208  0.0172  0.1248
13708W        W29517   8.586  13.939  12.680  0.1234  0.1580 -0.1846
13709W        W29518  10.645   5.347   5.974  0.0584  0.1059 -0.3695
13710W        W29519  14.640   2.055   2.612  0.0772 -0.1172  0.1369
13711W        W29520   6.203  10.628  11.490 -0.1706  0.2370  0.1038
13712W        W29521  14.395  15.596  14.655  0.4992 -0.2165 -0.0824
13713W        W29522   0.256  13.605  15.354 -0.0750  0.1938  0.1349
13714W        W29523   4.174  14.756   5.392  0.3352  0.2174 -0.0155
13715W        W29524  12.648   7.363   2.033 -0.0636  0.0322 -0.3680
13716W        W29525  11.691   9.534  14.904 -0.0324 -0.1249 -0.0389
13717W        W29526   8.556   5.230  12.924  0.0906  0.0093 -0.2475
13718W        W29527  10.945   8.632  16.034 -0.0768  0.0099 -0.0339
13719W        W29528  10.342   6.180  11.204 -0.0498 -0.3584 -0.1059
13720W        W29529   4.196  10.103   3.318  0.1829 -0.0498  0.1753
13721W        W29530   5.362   7.707  15.426  0.0246  0.1275 -0.0008
13722W        W29531  12.265   4.340  11.857 -0.0518 -0.0280  0.2847
13723W        W29532   2.946   8.693  13.361  0.4056 -0.2994 -0.1703
13724W        W29533  11.901   9.392   5.261  0.2326 -0.0306  0.0191
13725W        W29534   4.844   8.991  10.836 -0.0508  0.0603  0.4903
13726W        W29535  17.190   1.768  15.846 -0.4201 -0.0033 -0.0655
13727W        W29536  14.157   5.888   4.922 -0.0165  0.2043  0.1533
13728W        W29537   1.397  18.093   3.119 -0.0377 -0.4041  0.1231
13729W        W29538  11.063   7.857  15.601  0.0865 -0.0538 -0.0836
13730W        W29539  17.287   8.311  12.195  0.1655 -0.1804 -0.0310
13731W        W29540   4.332   8.481   3.004  0.0996  0.0514  0.0515
13732W        W29541   1.947  12.784   3.830 -0.0654 -0.0400  0.0416
13733W        W29542  10.430  14.824  10.754 -0.3848 -0.1130 -0.3765
13734W        W29543  17.361   9.697  14.750 -0.0683 -0.0479 -0.1155
13735W        W29544   4.792   9.720  10.116 -0.0929  0.0819 -0.0516
13736W        W29545  10.963  17.563  15.784 -0.2117 -0.2590 -0.1646
13737W        W29546   7.066   6.216  14.042  0.0160  0.0069  0.1343
13738W        W29547  12.055  16.416   2.543 -0.1703 -0.0699  0.1407
13739W        W29548  18.115  12.103   0.302  0.2498  0.1011 -0.2494
13740W        W29549   0.872   3.077   5.223  0.0588 -0.2206 -0.1410
13741W        W29550  15.205  18.092   4.647 -0.2878  0.3702 -0.1738
13742W        W29551  17.964   4.564  15.498  0.0097  0.2537  0.3098
13743W        W29552   1.336   9.789  11.454 -0.0088  0.0607 -0.2271
13744W        W29553   7.260   4.004   4.550 -0.2134 -0.0427 -0.1605
13745W        W29554   6.787   3.165   2.169 -0.1161 -0.0873 -0.1414
13746W        W29555  14.880   9.068   1.924  0.1451 -0.0272 -0.0660
13747W        W29556  15.496  14.330   0.674  0.1270 -0.5657 -0.2838
13748W        W29557   2.068   3.195   2.456 -0.0622  0.1800 -0.2279
13749W        W29558   3.027  12.821   4.100 -0.0181 -0.2321 -0.2210
13750W        W29559  17.630   1.750  12.328 -0.3264  0.0450  0.3259
13751W        W29560  13.267   4.492   2.997  0.1938 -0.4065 -0.0917
13752W        W29561   7.343   2.373  12.031  0.0494  0.1126 -0.0731
13753W        W29562  10.463   1.661  15.073 -0.0657 -0.0637 -0.0438
13754W        W29563  14.223  12.970   1.491 -0.1651 -0.1170  0.0783
13755W        W29564  13.565   0.568   4.232  0.1932  0.2298  0.1106
13756W        W29565   4.784  15.688  14.955  0.3982 -0.2099 -0.1386
13757W        W29566   4.682   6.305   4.038 -0.0308  0.0727  0.0021
13758W        W29567   0.528  12.257  13.172 -0.3488  0.0286 -0.0414
13759W        W29568   3.411   9.298  11.423  0.1684  0.0567  0.2532
13760W        W29569   2.739   5.535   5.502 -0.0461 -0.1735  0.2351
13761W        W29570  12.549  13.150   5.756 -0.1337 -0.1233  0.0561
13762W        W29571   5.203   0.028   2.711  0.0309  0.1243  0.0606
13763W        W29572   0.493   6.633  11.198 -0.0298  0.0239  0.0325
13764W        W29573  16.417  15.360   1.471 -0.0854  0.0419  0.0594
13765W        W29574   0.415   1.582  15.185  0.3842 -0.2876  0.0168
13766W        W29575   6.697  13.438  11.523 -0.1092 -0.0662  0.1696
13767W        W29576  14.760  15.258  12.909 -0.4887 -0.1547 -0.1537
13768W        W29577   0.253   4.222   4.673  0.3002  0.2398 -0.1569
13769W        W29578  16.865  11.277  10.809 -0.2410  0.0164  0.1330
13770W        W29579   4.024   0.833  12.215  0.2321  0.1267  0.2199
13771W        W29580  16.401   0.466   1.065  0.1567  0.0683  0.0105
13772W        W29581   1.174   3.525  14.003 -0.0876  0.1467 -0.1274
13773W        W29582  18.266   6.537   2.076 -0.3050  0.0188  0.0297
13774W        W29583  12.038  17.457  12.520  0.1460  0.0199  0.1179
13775W        W29584  10.681  14.868   1.473  0.3709 -0.1498 -0.0773
13776W        W29585   4.761   7.828  10.008 -0.0842 -0.0260 -0.0373
13777W        W29586   4.547  13.692   5.014 -0.2029  0.2758 -0.0150
13778W        W29587   6.689   7.501   3.882 -0.4171 -0.1274  0.2885
13779W        W29588  15.096   3.642   3.258  0.2250 -0.0041  0.0491
13780W        W29589   2.455  13.302   4.497 -0.6130 -0.0660 -0.1998
13781W        W29590   8.466  15.843   1.520  0.1617  0.3117  0.0638
13782W        W29591  17.961   9.340   0.619  0.0473  0.0470 -0.1075
13783W        W29592  16.529   2.822   4.778  0.0790 -0.2375 -0.2415
13784W        W29593   0.129  10.203   0.539 -0.0212  0.0742  0.0942
13785W        W29594   4.215   6.378   0.284  0.0699 -0.2327  0.2848
13786W        W29595  10.000   7.229   0.977  0.1461  0.1661  0.4144
13787W        W29596  17.345   8.493   0.813  0.1700 -0.2504  0.0516
13788W        W29597  15.289   0.241  14.097  0.0540 -0.0131  0.0978
13789W        W29598  14.962   4.808   4.990  0.0858 -0.0675  0.2472
13790W        W29599  16.231  18.232   4.633  0.3829  0.0886 -0.0212
13791W        W29600   1.072   1.650   2.397  0.1116  0.0783  0.2649
13792W        W29601  17.235   9.280   0.573  0.3498  0.0937  0.3101
13793W        W29602  17.520   9.069  13.829 -0.0593 -0.0860 -0.2509
13794W        W29603  14.394  10.013   2.651  0.2189 -0.2101  0.1091
13795W        W29604  11.989   9.743   4.981  0.2158  0.1102  0.2470
13796W        W29605  15.649  10.195   4.585 -0.0171 -0.3332 -0.0010
13797W        W29606  11.542  10.329  11.722 -0.2944  0.2110  0.0899
13798W        W29607  16.471   3.502   2.074 -0.3988  0.1213  0.1527
13799W        W29608   1.776  17.934  13.663 -0.2070  0.0257  0.0629
13800W        W29609   1.189  11.116   1.233 -0.0358  0.2036  0.0121
13801W        W29610  14.030  16.533  15.271  0.2203  0.0487 -0.0471
13802W        W29611  17.010   0.905   5.367 -0.0655 -0.1482 -0.2560
13803W        W29612  13.648  12.476  12.254 -0.0724  0.0956  0.2500
13804W        W29613   2.668  13.700   0.567 -0.0730 -0.0976 -0.0947
13805W        W29614   8.636  15.863  12.999 -0.0533 -0.1548  0.2522
13806W        W29615   1.663  12.439  11.022 -0.1616 -0.1500 -0.1279
13807W        W29616   1.225   9.632  15.908 -0.2438  0.2003  0.0948
13808W        W29617  12.001   4.126  13.317  0.5660  0.0896  0.2949
13809W        W29618  14.347   7.417   0.058 -0.2149 -0.0215  0.0492
13810W        W29619  10.914   8.258  14.852 -0.1689 -0.4521 -0.1900
13811W        W29620  14.938   4.944   1.112 -0.1213  0.0308  0.1666
13812W        W29621   2.641   4.735  13.594  0.0382 -0.1749 -0.1619
13813W        W29622   4.075   8.625  11.973 -0.0790  0.0432 -0.1864
13814W        W29623  12.895   4.619   4.686 -0.0535  0.0897  0.2116
13815W        W29624   4.637  10.942  13.723  0.0481  0.2312 -0.1150
13816W        W29625   2.819  16.907   3.050  0.3165  0.2442  0.0837
13817W        W29626   9.244  10.407  12.938  0.0776  0.1840  0.1914
13818W        W29627  11.372   8.697  11.675  0.2128  0.0454 -0.1553
13819W        W29628   7.844   0.384   2.510 -0.4846  0.1803  0.3883
13820W        W29629   4.212   1.001   0.396 -0.1840 -0.1182  0.1881
13821W        W29630  15.502  10.052   3.118 -0.0185  0.0309  0.1568
13822W        W29631   7.236   8.717  11.980  0.1077  0.2446  0.0342
13823W        W29632  17.744  10.971  12.034  0.4123  0.0324 -0.1707
13824W        W29633  14.415   4.459  12.333 -0.0709 -0.1803  0.1243
13825W        W29634  17.291   2.546   2.206 -0.3221 -0.1824 -0.0324
13826W        W29635  16.348  13.020   0.004  0.1189 -0.1835 -0.1520
13827W        W29636  15.741   6.598   4.317 -0.1029 -0.2894  0.1201
13828W        W29637  17.191   7.245   1.812  0.0611 -0.2076  0.0165
13829W        W29638   4.678   5.736   1.414 -0.1599  0.0590  0.2530
13830W        W29639   9.564   0.476  14.638 -0.0083  0.0137  0.1130
13831W        W29640   7.773   7.225   2.690  0.0189 -0.0285 -0.0124
13832W        W29641   9.548  15.807   3.618  0.2493  0.3404 -0.2088
13833W        W29642   4.111   6.402   3.895 -0.1495  0.1011  0.1568
13834W        W29643   1.901  15.832  12.797  0.2024  0.0833  0.0978
13835W        W29644  12.337  12.110   2.953 -0.0652 -0.0192  0.0262
13836W        W29645  14.663   7.112   5.353  0.0754 -0.0466 -0.1430
13837W        W29646   1.805   4.122   6.006  0.3042  0.3266  0.3449
13838W        W29647   7.774  14.530  11.521 -0.0522 -0.3100  0.0063
13839W        W29648  15.881   3.033  12.856  0.1460 -0.2799  0.0147
13840W        W29649  13.337   7.388  14.757  0.2795 -0.0662  0.1977
13841W        W29650   2.006  15.693   0.484  0.1452  0.1566 -0.2338
13842W        W29651  11.098  14.713  15.824  0.0417  0.0114 -0.0206
13843W        W29652  14.282   0.111   4.866  0.0687 -0.0094 -0.2025
13844W        W29653  13.163   3.818  15.961 -0.1327 -0.0447 -0.2698
13845W        W29654   5.022   7.698  11.457 -0.2784  0.2085 -0.0319
13846W        W29655  11.199  14.093   2.013  0.2479 -0.0829  0.0848
13847W        W29656  10.517  12.463   5.867 -0.2169  0.1590 -0.2265
13848W        W29657   4.659   4.612   1.486  0.2825  0.1363  0.0243
13849W        W29658  11.517  15.017  13.068 -0.1270 -0.0023 -0.0442
13850W        W29659   7.486   3.246   4.950 -0.1441 -0.1143 -0.2737
13851W        W29660   4.706  16.020  13.099  0.2027  0.1343  0.0474
13852W        W29661  15.342  13.080   5.155  0.0880 -0.0571 -0.0342
13853W        W29662  11.294   0.593   5.449 -0.0163  0.0240 -0.1898
13854W        W29663   4.617  15.164  10.361  0.1869 -0.1274 -0.1264
13855W        W29664   1.739   6.285  15.836  0.0825  0.1800 -0.0182
13856W        W29665  15.184  18.114  13.456  0.0859 -0.0942  0.1764
13857W        W29666   5.925  15.909  14.382 -0.4114  0.0630  0.0474
13858W        W29667  10.186   7.252  15.293  0.0492 -0.0108  0.2133
13859W        W29668  18.055   8.913   1.895 -0.0508 -0.0593 -0.1949
13860W        W29669   8.066  11.750  10.180 -0.5012  0.0596  0.1575
13861W        W29670   6.789  14.807  11.980 -0.0727  0.0045  0.3025
13862W        W29671   7.803   3.185   2.537  0.0318 -0.0290 -0.0659
13863W        W29672  14.487   6.361   2.962 -0.3165 -0.1225  0.0545
13864W        W29673   9.694  16.931  11.255  0.2944 -0.0613 -0.0807
13865W        W29674  13.045  17.173  12.627 -0.0030 -0.0681 -0.0508
13866W        W29675  10.126   5.753  15.618  0.0246  0.0352  0.3177
13867W        W29676   4.018   4.467  15.608  0.2693  0.1925 -0.0965
13868W        W29677   9.435   0.859   3.968  0.0957 -0.0078  0.1836
13869W        W29678  11.850   7.074   0.936  0.0523 -0.1558 -0.1075
13870W        W29679  17.718  14.626   0.023 -0.2498 -0.0500 -0.0369
13871W        W29680   2.132  14.885   4.793 -0.0209  0.1242  0.0892
13872W        W29681   5.851   1.001   0.876 -0.0701 -0.0403  0.2771
13873W        W29682   8.477   2.975  12.135 -0.1381 -0.1163 -0.1167
13874W        W29683  17.234   1.902   3.559 -0.1163 -0.0024  0.4767
13875W        W29684   5.568  18.027  15.130  0.1831  0.0801 -0.0894
13876W        W29685   8.161  12.360  13.662  0.1137 -0.1167 -0.1487
13877W        W29686   9.921   8.817  11.649  0.0607 -0.0141 -0.0199
13878W        W29687  13.856  11.036   2.567 -0.0049  0.1704 -0.1401
13879W        W29688   2.687  18.204   3.896 -0.2294  0.0839  0.0467
13880W        W29689  13.185  12.902  12.003 -0.0658  0.0131  0.1951
13881W        W29690   8.105   3.032  11.099 -0.0314 -0.2337 -0.1376
13882W        W29691   3.948   2.550  14.358 -0.2251 -0.0734 -0.0350
13883W        W29692   1.232  17.699  11.818 -0.0649 -0.1073  0.2285
13884W        W29693   7.721   6.292  11.321  0.1571 -0.1880 -0.0084
13885W        W29694   2.825  12.287   4.984 -0.1274 -0.0186 -0.0579
13886W        W29695  10.920  11.632  12.767  0.0195  0.1841 -0.2637
13887W        W29696  15.954  17.417   1.634  0.3113 -0.0712 -0.3755
13888W        W29697   1.202   8.893   4.960  0.0564 -0.0291  0.0834
13889W        W29698  10.388   1.811   5.089  0.0218 -0.0236 -0.0920
13890W        W29699  18.167  14.224  11.393 -0.0343  0.1255 -0.0705
13891W        W29700   3.557   8.387   5.237  0.1589 -0.2094  0.1948
13892W        W29701  16.319   2.972   0.273 -0.3721 -0.3176  0.2207
13893W        W29702   3.260   8.007   2.109 -0.0923  0.1576  0.2161
13894W        W29703   3.853  13.414  13.788 -0.2153  0.1096 -0.0818
13895W        W29704  16.088   5.654  15.658  0.2524 -0.1731 -0.0652
13896W        W29705   2.595  14.250  15.675 -0.2609  0.5864  0.0570
13897W        W29706  14.656   4.640   0.248 -0.1118 -0.0479 -0.1812
13898W        W29707   7.076  13.706  13.248 -0.2139 -0.1054  0.0105
13899W        W29708   8.478   4.110   4.340 -0.0399  0.1994  0.1770
13900W        W29709   4.607  11.402  13.203 -0.1626 -0.3235  0.2620
13901W        W29710  18.005  11.515  14.094  0.1103  0.1388  0.0164
13902W        W29711   5.183   7.499   0.103  0.1430 -0.0417  0.1249
13903W        W29712   4.724   5.605  14.097  0.0608  0.2612  0.6063
13904W        W29713   4.274  14.243  11.202 -0.2751  0.1459  0.0951
13905W        W29714  17.535  14.577   4.009  0.3502  0.0523 -0.0942
13906W        W29715  15.702   8.862  15.560  0.0904  0.2026 -0.0233
13907W        W29716  12.494   9.357  15.652 -0.1491  0.3279  0.1262
13908W        W29717   7.775   1.097  14.126  0.0252  0.0985 -0.1950
13909W        W29718   9.346   5.612   3.825 -0.2880 -0.1208 -0.1251
13910W        W29719  10.223  13.804  13.589 -0.0916  0.1280 -0.1098
13911W        W29720  17.266  15.764  14.247  0.3215  0.0126  0.0639
13912W        W29721   2.987  12.241  13.971 -0.0188  0.0728  0.2905
13913W        W29722   6.627   5.744   4.752  0.0729  0.0143  0.1838
13914W        W29723   7.264  10.836   0.900  0.0199 -0.0368  0.0470
13915W        W29724   9.776   2.847  12.139 -0.1277  0.0897  0.2444
13916W        W29725   6.135   9.291  14.148  0.0568  0.0144 -0.2871
13917W        W29726   3.082  16.715  15.131 -0.4245 -0.2720  0.3283
13918W        W29727   1.461  12.639   3.732 -0.0341 -0.1332 -0.2511
13919W        W29728   9.225   4.382   0.011  0.0135 -0.0359  0.1761
13920W        W29729  14.211   6.358  12.900  0.2955  0.1051  0.1570
13921W        W29730  17.522   1.581  11.826 -0.1302 -0.2499 -0.0544
13922W        W29731  14.441  11.949  15.916 -0.2615  0.0328  0.0205
13923W        W29732   3.716  10.009  15.186 -0.1377  0.0929 -0.0538
13924W        W29733  12.615   1.866  14.161  0.0018  0.1402 -0.0211
13925W        W29734  10.291   0.195  13.095 -0.0557  0.1975 -0.4224
13926W        W29735  17.220  14.418   0.900 -0.0532 -0.0623  0.1170
13927W        W29736   1.350  13.749  10.739  0.0402  0.0471 -0.0391
13928W        W29737  18.265   0.934   4.271  0.1978  0.0556  0.0720
13929W        W29738  11.605  18.108   0.668 -0.1010  0.1010 -0.0233
13930W        W29739  11.329   4.904  14.534  0.0190 -0.1327  0.0064
13931W        W29740  12.139  16.515   1.010 -0.0911  0.0506  0.1762
13932W        W29741  18.093  16.978  14.538 -0.0444  0.0281 -0.0019
13933W        W29742   3.245   7.769  13.614  0.2045 -0.0904 -0.1980
13934W        W29743   4.682   7.666   4.345 -0.1102  0.2237  0.3744
13935W        W29744   4.093   2.237  15.760 -0.0324 -0.1281 -0.2591
13936W        W29745  13.711   4.040   2.817  0.0467 -0.2920 -0.0047
13937W        W29746   8.770  15.281  14.262 -0.0408  0.2422 -0.2021
13938W        W29747   8.330   6.073  14.817 -0.0187  0.0982  0.0789
13939W        W29748  17.762  18.227   2.076 -0.0595 -0.0483  0.1996
13940W        W29749  13.750  11.497   2.717 -0.0914  0.2089  0.0816
13941W        W29750   5.721   8.008  11.887  0.2544 -0.1240 -0.0014
13942W        W29751   3.191  18.229  12.816 -0.0402  0.1136 -0.2131
13943W        W29752  17.014  12.189   3.524 -0.2127 -0.0700  0.2461
13944W        W29753  16.054   7.106  15.884 -0.2795 -0.0777 -0.0416
13945W        W29754   0.985   7.363   1.172  0.0372 -0.2774  0.1815
13946W        W29755  11.994   2.901  12.440 -0.1121  0.0724  0.1051
13947W        W29756   4.355   2.972  11.636 -0.1371  0.0183 -0.1106
13948W        W29757   6.034   0.381  14.101  0.0938  0.2471 -0.1469
13949W        W29758   3.735  11.102  13.242  0.0018  0.4939 -0.3035
13950W        W29759   7.095   4.184  14.759  0.1415 -0.0829  0.2094
13951W        W29760   4.415  12.816   4.038 -0.0929  0.2381  0.2866
13952W        W29761   4.656   2.441   3.744  0.0941  0.1398 -0.1187
13953W        W29762   8.914   8.142  11.214 -0.1862 -0.3120  0.2181
13954W        W29763   3.350   8.640  11.590  0.0906 -0.1625 -0.1618
13955W        W29764   0.365   1.210  12.421  0.0198  0.1777  0.0569
13956W        W29765   5.975   7.744   0.774 -0.1282  0.1404 -0.1274
13957W        W29766  16.276   5.050   3.682 -0.3904 -0.0524  0.0323
13958W        W29767  14.049   7.113   4.250  0.0382 -0.1922  0.3520
13959W        W29768   1.781   4.325   5.291 -0.2596  0.0138  0.0206
13960W        W29769   4.261  15.441  13.881 -0.3715  0.1283  0.0023
13961W        W29770  10.275  13.471   3.120 -0.1566  0.0067 -0.0803
13962W        W29771  13.329  12.007  13.270  0.0241  0.2070 -0.1742
13963W        W29772  16.641   1.528  10.425 -0.1506 -0.0928 -0.1130
13964W        W29773   5.526   8.931   0.493  0.2012  0.0922  0.0505
13965W        W29774   0.492  16.144  11.786 -0.2038  0.0294 -0.3092
13966W        W29775  15.716   0.745  10.490  0.1239  0.0963 -0.1530
13967W        W29776   4.054  16.829  14.013 -0.1283  0.3361 -0.4439
13968W        W29777  17.826   7.503  12.305  0.0800 -0.2105 -0.1447
13969W        W29778   0.291  17.002   2.034 -0.2217  0.2947 -0.3362
13970W        W29779  15.097  12.554  15.666  0.3951 -0.0569  0.1592
13971W        W29780   2.313   8.026   2.878 -0.3851  0.0114  0.0906
13972W        W29781  16.018   5.794   0.945  0.0389  0.2489 -0.0119
13973W        W29782   6.399  16.824   0.074  0.0437 -0.2849  0.1460
13974W        W29783   9.014  10.020  12.045 -0.0182 -0.3147  0.1456
13975W        W29784   2.992   5.920   4.608  0.0156 -0.1168 -0.0739
13976W        W29785  15.553   3.141   2.529 -0.0134  0.1700  0.0144
13977W        W29786  12.012   4.716   2.747 -0.1744 -0.1693 -0.0071
13978W        W29787   9.871   2.142   2.593  0.0587  0.1169 -0.1674
13979W        W29788   4.625  13.860  15.221 -0.2338 -0.4372  0.1400
13980W        W29789  10.129   5.050   1.247  0.2199  0.0290 -0.0587
13981W        W29790   6.178  13.354   5.749 -0.1283 -0.2018  0.1139
13982W        W29791   1.486   5.659   2.555 -0.0982  0.0734 -0.3260
13983W        W29792  17.658  16.664   2.025  0.1439  0.3227 -0.1338
13984W        W29793   8.025   9.445   4.988 -0.2086 -0.0654  0.2703
13985W        W29794  13.235   4.414   2.482 -0.2566 -0.2016  0.0944
13986W        W29795   8.198  14.080   3.436 -0.0233 -0.6292  0.4447
13987W        W29796   5.085  15.144   4.190  0.1558 -0.2947  0.2544
13988W        W29797   1.195   9.009   0.514  0.1162  0.2258  0.0879
13989W        W29798   5.107  16.896  15.814 -0.3038  0.1406 -0.2284
13990W        W29799  12.941   5.008   0.363  0.0595  0.0015  0.0903
13991W        W29800  15.268  10.754  12.024  0.2638  0.1420  0.1364
13992W        W29801   2.257   7.189  15.903  0.1571  0.3716 -0.4208
13993W        W29802  14.078   6.876  13.462  0.0541  0.1844 -0.2168
13994W        W29803   4.847  11.526   4.548 -0.2049  0.0553  0.1703
13995W        W29804   5.796   7.919  13.597  0.0576 -0.0627  0.3831
13996W        W29805   8.455   6.531   0.088 -0.1609  0.3676 -0.1317
13997W        W29806   8.634   8.044   2.288 -0.0935 -0.0793  0.1149
13998W        W29807   5.148   1.419  11.538 -0.0749 -0.0528  0.3101
13999W        W29808  13.710   2.940  12.530  0.0862  0.3708  0.2195
14000W        W29809  11.148   7.393  14.789 -0.0782  0.1392 -0.3203
14001W        W29810   2.951   9.522  14.832  0.0638  0.4327 -0.1255
14002W        W29811  17.552   1.530   4.014 -0.3114 -0.1356  0.1219
14003W        W29812  13.384  16.632   4.490 -0.1792 -0.2249  0.2578
14004W        W29813  13.413   1.336  13.707  0.0578  0.2626  0.0845
14005W        W29814   7.192   3.738  11.097  0.2661 -0.0697 -0.1733
14006W        W29815  12.786   1.722  10.792 -0.0679 -0.1014 -0.2263
14007W        W29816   6.657  17.796   0.233  0.3351 -0.0614 -0.2559
14008W        W29817   2.178  12.578   2.782  0.0989 -0.1294 -0.0733
14009W        W29818   5.923   4.717   1.980 -0.0149  0.0558  0.2480
14010W        W29819   7.039  11.883  15.210  0.1012  0.3034  0.1365
14011W        W29820  13.460   9.810  16.021 -0.0030  0.1721 -0.1417
14012W        W29821   6.488   7.380  12.420  0.0421  0.4477  0.2078
14013W        W29822   7.278  15.810  15.592 -0.0076  0.1262  0.0146
14014W        W29823  17.189   7.669   2.993 -0.1693 -0.0195  0.1405
14015W        W29824  12.959   0.164  15.397  0.0401  0.0210  0.2633
14016W        W29825   9.596   6.484  15.265 -0.0400 -0.1062 -0.1431
14017W        W29826   9.476   5.657  13.957 -0.1362 -0.0988 -0.3763
14018W        W29827   2.409   4.260  14.723 -0.2056 -0.0680 -0.3483
14019W        W29828   3.018  17.501   0.827  0.0002 -0.1868 -0.2116
14020W        W29829  14.605  14.280   3.192  0.1128  0.1064 -0.1810
14021W        W29830   0.666  12.083   3.787 -0.0097  0.0113 -0.3019
14022W        W29831   8.076   1.885   0.171  0.1711  0.0390  0.1129
14023W        W29832   2.497   6.985  12.165  0.0481  0.1295 -0.3650
14024W        W29833  11.410   3.704  13.640 -0.3120 -0.2641 -0.0966
14025W        W29834   6.711  11.491   3.024 -0.0479  0.0519 -0.1203
14026W        W29835  12.392   3.727   4.763  0.1957  0.0292  0.0386
14027W        W29836   4.741  10.806  11.804 -0.0568 -0.1140  0.0068
14028W        W29837   2.370   1.597   4.926  0.0266  0.2172  0.2895
14029W        W29838  18.246  12.538   4.093 -0.0813 -0.1112 -0.0377
14030W        W29839  12.492   3.234   3.671  0.1868  0.0813  0.3002
14031W        W29840  13.743  17.569   4.702 -0.0771  0.2069  0.2089
14032W        W29841   6.407   6.245  14.510  0.1519 -0.0997  0.1350
14033W        W29842  15.035  17.584   1.422 -0.0665 -0.3270 -0.0371
14034W        W29843   9.586   9.429  15.320 -0.0763  0.2994 -0.2981
14035W        W29844  17.462   3.938   2.164 -0.0311 -0.1477 -0.0397
14036W        W29845   8.910  12.134  15.051  0.3197 -0.0765 -0.1005
14037W        W29846  10.678   2.275  12.302 -0.3358 -0.0085 -0.0954
14038W        W29847  12.545  10.925  15.552 -0.0629 -0.1481  0.1652
14039W        W29848  17.643   7.479   3.662  0.0112 -0.3137  0.0406
14040W        W29849   0.829   8.639  11.302  0.0857 -0.2872 -0.0850
14041W        W29850  10.380   9.770  13.342 -0.1370 -0.2261  0.0252
14042W        W29851  11.024  13.485   2.650  0.1847 -0.0411  0.0128
14043W        W29852  10.855   7.398   5.699  0.1325 -0.0240  0.0233
14044W        W29853   0.009   2.102   4.595  0.1126  0.1065  0.0207
14045W        W29854  14.964  12.941  11.046 -0.0583 -0.0297  0.2447
14046W        W29855  10.077   9.836   3.613  0.2100  0.0493  0.0213
14047W        W29856   3.085  11.848   1.116 -0.0300 -0.2018  0.0398
14048W        W29857   7.734   4.022   2.707  0.2232  0.1153 -0.3589
14049W        W29858  13.288  11.194  13.826 -0.2018 -0.1379  0.5069
14050W        W29859   4.743   3.568  15.444  0.2795  0.5396 -0.0088
14051W        W29860   8.742  18.113  15.296 -0.0913 -0.2475  0.2208
14052W        W29861   0.409  15.585  15.167  0.5142 -0.0170 -0.1862
14053W        W29862   8.351   9.727   1.452  0.1262 -0.0063 -0.3081
14054W        W29863  16.092  16.845   4.446 -0.0831 -0.1596 -0.0124
14055W        W29864   3.596  17.617  12.949 -0.0069 -0.1087  0.2281
14056W        W29865  11.862   3.449   3.044 -0.1086 -0.2354 -0.0352
14057W        W29866   3.237  13.529  12.871  0.0871 -0.2865  0.2897
14058W        W29867  16.067  17.128   2.998  0.1224 -0.0456  0.2243
14059W        W29868   3.566  18.025   5.949 -0.0283  0.1912  0.0893
14060W        W29869   9.960   2.417  13.078  0.0711 -0.1442 -0.0856
14061W        W29870  13.674  17.232   0.389  0.1151  0.2352 -0.2712
14062W        W29871  12.116  15.612   3.036 -0.2807 -0.2316 -0.0842
14063W        W29872   0.461   0.576  15.107  0.1489 -0.0776  0.2123
14064W        W29873   1.913  14.308   0.269 -0.0360 -0.0884  0.1281
14065W        W29874   9.672  17.128  15.892 -0.2100 -0.1019  0.1565
14066W        W29875   6.277   0.803  12.227 -0.0737 -0.0506  0.3207
14067W        W29876  11.393   9.925  14.269  0.1585  0.0729  0.0544
14068W        W29877  14.591  12.460  15.785  0.0434 -0.1793  0.3094
14069W        W29878   0.776   9.689  15.766  0.0394  0.0596 -0.1169
14070W        W29879  14.706  14.791   3.221 -0.2343 -0.1496 -0.0259
14071W        W29880  13.045   0.563   3.405 -0.2369 -0.1213  0.0291
14072W        W29881   7.995   7.348  13.454 -0.0137 -0.0203  0.2029
14073W        W29882   9.448  13.685   3.860 -0.0542 -0.5007  0.1418
14074W        W29883   8.477   9.609   3.378 -0.2799 -0.1236  0.3663
14075W        W29884  11.630  13.935   1.002  0.0323 -0.0585 -0.2049
14076W        W29885  11.703   5.157   0.997 -0.2530  0.0818  0.0210
14077W        W29886  12.510  10.569   4.608 -0.1755 -0.1261  0.0089
14078W        W29887  13.915   5.825   5.401  0.2267  0.4547  0.0155
14079W        W29888   0.859   8.188  14.044  0.6176  0.2854 -0.2426
14080W        W29889   7.669  12.612   2.964 -0.2723  0.1810  0.0049
14081W        W29890   0.304  10.461   5.326  0.0596  0.2206 -0.0814
14082W        W29891  18.246   4.324   2.169  0.1803  0.0718 -0.1777
14083W        W29892  10.698  12.869   5.306 -0.0644  0.4197  0.0797
14084W        W29893  16.773  12.278   5.032 -0.0274  0.0780 -0.1875
14085W        W29894   9.258  17.901   1.361  0.2758  0.1327 -0.0884
14086W        W29895   0.143  10.122  15.366 -0.2381 -0.0628 -0.0348
14087W        W29896  17.576   0.306   2.426 -0.0007 -0.3996  0.1647
14088W        W29897  12.544   6.550  13.993 -0.1245  0.2404 -0.1253
14089W        W29898   4.855   5.321   2.792  0.3495 -0.0066 -0.0341
14090W        W29899   3.360   7.899   5.867 -0.0846  0.0987 -0.1832
14091W        W29900   6.275  14.671   0.177  0.1990 -0.1304  0.0625
14092W        W29901   7.244   8.144   1.052  0.3512 -0.0357  0.0461
14093W        W29902  14.135   9.208   2.864 -0.0725 -0.0125 -0.1808
14094W        W29903  10.398   7.292   1.290  0.1404 -0.1241  0.1277
14095W        W29904   8.354  12.990   4.089  0.0847 -0.0541 -0.2312
14096W        W29905  17.012   0.202  14.591  0.2247 -0.3496 -0.1938
14097W        W29906  15.415   3.082   4.504 -0.3221 -0.0647 -0.1108
14098W        W29907  13.306   4.933   3.772 -0.1751  0.0237 -0.2486
14099W        W29908   8.378  13.424   5.016  0.1536 -0.1819  0.0698
14100W        W29909   6.417   8.112  11.893 -0.1586 -0.0147 -0.0790
14101W        W29910  16.094  15.161   5.047  0.0496  0.2202 -0.3741
14102W        W29911  10.078   0.193   5.802  0.3650 -0.1116 -0.0673
14103W        W29912  11.787  12.464  14.772  0.2895 -0.2695 -0.0755
14104W        W29913   9.432   3.863  11.812 -0.0329 -0.0923  0.0034
14105W        W29914   6.900  17.468  12.268 -0.0619 -0.0220 -0.0499
14106W        W29915  14.886  16.686   5.749 -0.3899 -0.0168  0.0221
14107W        W29916  12.492  17.119   4.746 -0.0428 -0.1210 -0.2646
14108W        W29917   3.388   1.593   1.716  0.1355 -0.3842  0.0782
14109W        W29918  10.316  10.583   4.150 -0.0540  0.1685 -0.0826
14110W        W29919   7.511   0.981  14.546  0.1217 -0.0276 -0.1393
14111W        W29920   6.336   0.104  12.161  0.1829  0.0575  0.1179
14112W        W29921   9.049   9.758  10.941  0.0629 -0.0609 -0.1203
14113W        W29922   6.907  13.017  15.418 -0.2552 -0.0420  0.1384
14114W        W29923   7.766  12.611   3.473 -0.0655  0.0297  0.2493
14115W        W29924   6.084   1.000   0.430 -0.0383  0.2587  0.1026
14116W        W29925  14.566  11.721   2.807  0.1617  0.1153 -0.0956
14117W        W29926  17.119   7.353   3.359  0.0104 -0.0170  0.0681
14118W        W29927   6.615   5.076  13.416  0.1896  0.1127 -0.2613
14119W        W29928   1.294  16.637  13.269 -0.1086 -0.2308 -0.1261
14120W        W29929   5.536  12.359   0.046  0.1112  0.3893 -0.0211
14121W        W29930   6.268  11.981  10.100 -0.3029 -0.2288  0.0715
14122W        W29931  14.652   9.780  10.783 -0.0032 -0.1453  0.0773
14123W        W29932  11.728  16.820   1.145  0.4126 -0.0971 -0.0935
14124W        W29933  11.993  17.976  11.411 -0.1631 -0.0818 -0.2313
14125W        W29934   2.743  11.157  12.693 -0.0915 -0.1770  0.0162
14126W        W29935   7.171   7.487   1.837  0.1178  0.2045  0.0882
14127W        W29936   3.260  12.561   4.785  0.2380 -0.1798 -0.2834
14128W        W29937  12.510  12.366  13.081  0.1262 -0.2629  0.1370
14129W        W29938   5.582   5.741   3.864  0.0145 -0.0861 -0.2440
14130W        W29939   8.551  10.678   2.880  0.0087 -0.2488 -0.1633
14131W        W29940   2.232   5.444  12.315 -0.0084 -0.0839 -0.0465
14132W        W29941  12.212   4.220  14.889 -0.0754  0.3502 -0.2847
14133W        W29942   6.327   5.881   1.862  0.0704 -0.2573 -0.2811
14134W        W29943  16.367  16.278  11.421  0.2164 -0.1571 -0.0422
14135W        W29944   5.623   9.743  14.710  0.1696  0.3318 -0.1189
14136W        W29945  12.952  15.581  13.956  0.1473  0.0073  0.2010
14137W        W29946  10.960   1.989   2.635 -0.0619  0.3293  0.0911
14138W        W29947  12.364   9.760  10.241  0.1704 -0.0518  0.0654
14139W        W29948   2.687   6.203  11.761 -0.0514  0.0685 -0.2305
14140W        W29949   9.833   8.349   4.226 -0.0131 -0.0769 -0.3153
14141W        W29950   9.672   2.133   4.340 -0.0952  0.0305 -0.2091
14142W        W29951   3.422  16.833   5.502 -0.0072 -0.1067 -0.0162
14143W        W29952  11.963  16.863   0.236 -0.0950  0.2112 -0.0892
14144W        W29953   9.925   7.362   0.086  0.6112  0.0209 -0.1035
14145W        W29954  10.290   7.285  12.483 -0.1376 -0.0065  0.0539
14146W        W29955   8.735  12.416   4.707 -0.1894 -0.0549 -0.1141
14147W        W29956  12.782  12.235   1.957 -0.0103 -0.0626  0.3464
14148W        W29957   9.713  10.509  13.227  0.0352  0.1833  0.1300
14149W        W29958  17.016   7.555  12.526  0.1700 -0.0562  0.2576
14150W        W29959   1.051  13.824  14.065 -0.1516  0.1404  0.1929
14151W        W29960   0.655  10.055   2.034  0.0019  0.1891  0.1748
14152W        W29961  10.766  18.176   2.794 -0.0986  0.1109  0.1441
14153W        W29962  10.627  16.785  13.967  0.1437  0.1237 -0.1013
14154W        W29963   9.548  16.563  11.584  0.1274 -0.1541  0.0673
14155W        W29964  15.414   3.779  15.630  0.1797  0.0514  0.0454
14156W        W29965   9.425  14.478   5.711  0.1894 -0.0703  0.0264
14157W        W29966   6.380  12.062  10.903 -0.2533 -0.1262  0.1775
14158W        W29967   1.550   4.201   4.360  0.2602  0.0147  0.0891
14159W        W29968   4.968  16.707   0.189  0.1755  0.0421  0.0218
14160W        W29969  11.873   9.033   0.787 -0.2404  0.2306 -0.1550
14161W        W29970  17.242  17.249   3.943  0.1311 -0.3481 -0.2994
14162W        W29971   2.777   5.605  13.777  0.1076 -0.0417  0.2509
14163W        W29972  16.047   5.316   3.333  0.0199  0.5972  0.1837
14164W        W29973  10.897   3.162   1.169  0.2976 -0.2082  0.1866
14165W        W29974   6.032   4.152  15.975  0.0969 -0.2608  0.1179
14166W        W29975   0.987  12.246   5.222 -0.0583  0.0869 -0.1112
14167W        W29976   1.834   0.909   4.892 -0.2296  0.2429 -0.0440
14168W        W29977  13.613  11.913   3.979 -0.0350  0.4145 -0.0130
14169W        W29978   1.817   8.854  13.134  0.1533  0.2135 -0.3843
14170W        W29979   6.323   7.597  15.541  0.0855  0.2333  0.3088
14171W        W29980   1.443   9.000  14.692 -0.1905 -0.0449 -0.2768
14172W        W29981   0.140   4.132   1.137  0.1733  0.0227  0.2664
14173W        W29982  12.272  10.179   4.786  0.0532  0.0492  0.1664
14174W        W29983  16.562   6.640   3.292 -0.0660 -0.2713 -0.0135
14175W        W29984  12.439  17.300   0.977 -0.0274  0.0458 -0.1198
14176W        W29985   2.311   0.268   4.768  0.1332  0.3118  0.4295
14177W        W29986   2.182  16.100   3.233 -0.0423 -0.2776  0.0136
14178W        W29987  14.553   5.459   3.659  0.1911  0.1997 -0.3176
14179W        W29988   8.689  11.489   5.295 -0.3232 -0.1815  0.0646
14180W        W29989   3.356   8.290   2.619 -0.1933  0.2063  0.3592
14181W        W29990  13.773   5.319   2.897  0.3675 -0.0264 -0.1654
14182W        W29991   4.935   1.606  15.878 -0.1235 -0.0474  0.0252
14183W        W29992  14.667   7.540  13.540 -0.3669  0.0967  0.2404
14184W        W29993   6.492   9.935  14.651  0.1820  0.1089  0.3113
14185W        W29994   0.081   4.872   5.807 -0.2482  0.0775 -0.0618
14186W        W29995  14.082  13.494  14.399 -0.0411  0.2169  0.0824
14187W        W29996   1.191   9.163   1.167 -0.0673 -0.5310  0.0027
14188W        W29997  16.641   4.229   0.215  0.1576 -0.0638  0.1017
14189W        W29998   2.989   0.058  11.741  0.0378 -0.1479  0.1238
14190W        W29999   9.159   8.003  13.407  0.2334  0.0923 -0.1033
14191W        W30000   9.774   9.794  11.493  0.0862  0.0735  0.1732
14192W        W30001  11.618  11.610   0.133 -0.0743  0.2400 -0.1877
14193W        W30002   3.057   4.815  11.169  0.0128 -0.0685  0.0429
14194W        W30003   6.728  18.084  12.515 -0.3175 -0.0960 -0.1362
14195W        W30004  16.560   8.529   0.567 -0.3233  0.2168  0.1269
14196W        W30005   8.351  16.166  12.732  0.0487  0.1294 -0.1128
14197W        W30006  13.459   0.155  12.448  0.2171 -0.0264 -0.1981
14198W        W30007   3.313   9.854  15.005 -0.0151 -0.0219 -0.1301
14199W        W30008  12.236   9.442  12.319  0.0247  0.1276  0.0416
14200W        W30009   7.484  12.207  10.931  0.0509  0.0424  0.1593
14201W        W30010  17.528   7.974   0.517  0.0843 -0.2690  0.2236
14202W        W30011  12.617  12.610  12.282 -0.1025 -0.1055 -0.2971
14203W        W30012   4.017  12.177   1.395 -0.2127 -0.0521  0.0536
14204W        W30013   0.909  14.969   5.074  0.0566 -0.1678  0.2143
14205W        W30014  13.543   1.269  15.469 -0.2831 -0.2449  0.1506
14206W        W30015   0.391  13.592  10.898 -0.0259  0.1797  0.1528
14207W        W30016  15.644   9.661   3.526 -0.0426  0.2986 -0.1424
14208W        W30017  10.384   5.067   0.818 -0.1311 -0.1052 -0.0452
14209W        W30018  16.208  13.673   1.138 -0.2148  0.1504 -0.2676
14210W        W30019   4.740  16.672  14.805  0.0801 -0.2704  0.4923
14211W        W30020  11.561  10.688   3.526  0.2492 -0.1927  0.2357
14212W        W30021  16.573   6.179   3.872  0.0002  0.1114  0.3555
14213W        W30022  17.410   9.365  12.848 -0.2809 -0.1565  0.0773
14214W        W30023   0.621  17.908   4.499 -0.2341  0.1107  0.2919
14215W        W30024  13.612  11.799  13.933 -0.4347  0.2736 -0.0915
14216W        W30025  13.610   0.299  12.001  0.0732 -0.4079 -0.0467
14217W        W30026  14.313  11.881  14.288  0.1147 -0.0756 -0.2551
14218W        W30027   3.961  17.392  12.006 -0.0365  0.0679  0.2392
14219W        W30028  15.075   2.339   3.450 -0.0866  0.0448 -0.0634
14220W        W30029   8.499   8.686  13.777 -0.2380 -0.0355 -0.2539
14221W        W30030   6.544  16.462  11.650 -0.0723  0.3038  0.2899
14222W        W30031  10.287  14.513  15.863 -0.0836  0.0035 -0.2031
14223W        W30032   9.932   6.916   6.086  0.0161 -0.3339  0.0689
14224W        W30033   5.463  13.542  11.577 -0.0515  0.1846 -0.2213
14225W        W30034   8.034   5.565  15.356  0.0512 -0.0816  0.0824
14226W        W30035   7.912  16.530   3.884 -0.0171  0.1181 -0.1558
14227W        W30036  11.034   9.691  13.998  0.1699 -0.0548 -0.0044
14228W        W30037   5.410   5.004  13.999 -0.0187 -0.0534  0.1644
14229W        W30038   5.292  14.459  12.697 -0.1446  0.1737  0.3344
14230W        W30039   8.360   8.823   3.043 -0.0696  0.2541  0.2590
14231W        W30040  16.429  11.072   4.999 -0.0166 -0.0661  0.2288
14232W        W30041   1.148   8.943   3.547  0.0658 -0.1513 -0.2184
14233W        W30042  11.771  11.095   0.830  0.0304  0.0843 -0.2019
14234W        W30043   1.518  17.843   4.405  0.0101  0.2111 -0.0236
14235W        W30044   8.330   4.442   1.638  0.1320 -0.3246 -0.1636
14236W        W30045  13.672   6.511  12.002  0.0557 -0.1037  0.1725
14237W        W30046   7.091  12.619  14.409 -0.1902  0.0114 -0.2524
14238W        W30047   5.903  12.312  13.637  0.0726  0.2946 -0.0126
14239W        W30048  17.873  13.942   2.720  0.0948  0.1927 -0.1771
14240W        W30049  17.616  13.498   2.128  0.2482 -0.0289  0.0166
14241W        W30050   9.070   3.128   0.666 -0.0405 -0.0773  0.3364
14242W        W30051  12.873   6.546   3.483 -0.1467  0.0270  0.0901
14243W        W30052   7.174  13.250  11.864  0.1023  0.0866  0.0031
14244W        W30053   8.803   5.561   5.292 -0.0194  0.1927 -0.0290
14245W        W30054  14.779   8.907   4.295  0.2000  0.1391 -0.1679
14246W        W30055  12.610  18.038  14.991 -0.0851 -0.1369 -0.0452
14247W        W30056  14.387   0.269   2.430  0.0570 -0.1882 -0.0066
14248W        W30057   8.102  13.700  12.845  0.1346  0.0733  0.0336
14249W        W30058  14.187   8.749  12.240  0.1834 -0.1051 -0.0054
14250W        W30059   5.101   1.440   1.039  0.2360  0.0421  0.2429
14251W        W30060  16.459   2.345   1.382  0.0117  0.1760  0.0476
14252W        W30061   9.212   0.569   3.627  0.0406 -0.0540 -0.0763
14253W        W30062  17.526   5.272  13.134 -0.0937 -0.0045 -0.2719
14254W        W30063  17.090  14.351   4.175 -0.3216 -0.5023  0.2254
14255W        W30064   1.716  10.503   0.502 -0.1090 -0.1652  0.3806
14256W        W30065   8.413  17.987  12.957  0.0393 -0.3060  0.5325
14257W        W30066  12.601   3.439  12.119 -0.0342 -0.0202  0.1677
14258W        W30067   5.309   9.647  13.734  0.2473 -0.1581  0.0669
14259W        W30068   6.703   5.288  14.233  0.1329 -0.0939  0.0399
14260W        W30069   5.759   3.683   3.370  0.0514 -0.1663 -0.0464
14261W        W30070  14.668   2.202  14.072 -0.1618 -0.2280 -0.0391
14262W        W30071   8.929   4.553  12.733  0.2698 -0.0108 -0.0148
14263W        W30072   1.556   7.182   2.779  0.1099 -0.2731 -0.1572
14264W        W30073  11.016   1.943  15.120 -0.3749  0.1319 -0.0378
14265W        W30074  10.157  14.995  12.036 -0.0122 -0.0280  0.2857
14266W        W30075   4.612  10.066   4.947 -0.1496 -0.0153  0.1533
14267W        W30076  14.387   9.668  13.798  0.0551  0.0760  0.3316
14268W        W30077  13.369   4.658   4.847  0.3540 -0.0150 -0.1850
14269W        W30078   5.190  17.402  15.729  0.3032 -0.0783 -0.0407
14270W        W30079   8.460  17.574   5.373 -0.1458  0.2304 -0.4035
14271W        W30080   0.198  16.679  10.884  0.1096  0.0426  0.1422
14272W        W30081   9.019   5.249   0.064 -0.1285  0.2174 -0.0528
14273W        W30082   5.748  16.240   5.077  0.0446 -0.2738 -0.0365
14274W        W30083  18.232   3.638  13.184  0.1406  0.1690 -0.0151
14275W        W30084   3.366   7.452   4.293  0.3257 -0.1553  0.2465
14276W        W30085  16.115   0.237   3.601  0.1000  0.1655  0.1541
14277W        W30086   7.128  12.233  14.088  0.0882 -0.1471  0.0176
14278W        W30087   0.212  17.969   5.196  0.2560  0.0413 -0.1931
14279W        W30088  15.221  17.432   5.526 -0.3207 -0.2634 -0.2346
14280W        W30089   2.971  18.056  11.320 -0.0376  0.0882  0.0689
14281W        W30090  12.260   1.374   3.765  0.0516  0.0286  0.3421
14282W        W30091   3.007   0.815   4.450  0.0794  0.0621  0.2259
14283W        W30092   0.499  17.990   0.349  0.0885 -0.0669  0.0748
14284W        W30093   9.202  18.084  12.139  0.0622  0.0712 -0.1677
14285W        W30094  14.368  16.113  12.485  0.0134 -0.3463  0.2561
14286W        W30095   0.645  12.973  14.361 -0.1475 -0.0684  0.1725
14287W        W30096   7.131   5.167  10.997 -0.0725  0.1594  0.0393
14288W        W30097   5.980  12.647   1.531  0.2763 -0.0327 -0.0371
14289W        W30098  16.428   3.298   4.611  0.1414 -0.0049  0.0348
14290W        W30099   3.109   1.452   1.175 -0.0059 -0.1861 -0.3124
14291W        W30100   2.890  14.428  12.309 -0.0955 -0.2091  0.0469
14292W        W30101  14.221  16.738  11.741  0.0064  0.0068  0.1562
14293W        W30102   4.638  10.428  15.337 -0.1578  0.2587  0.2742
14294W        W30103  11.284  16.998  13.866  0.1054 -0.0173  0.0879
14295W        W30104  13.374   8.497  10.471  0.4130 -0.1587 -0.2158
14296W        W30105  12.496  17.195  14.780 -0.1993  0.0343 -0.0525
14297W        W30106  14.446   8.476   4.377  0.5021  0.0470 -0.2206
14298W        W30107  16.036   2.122   4.427  0.0290  0.0713  0.2378
14299W        W30108  18.157   1.732   5.855 -0.0466 -0.1030 -0.1071
14300W        W30109   2.499   1.479  13.826 -0.0041 -0.0024  0.0440
14301W        W30110   8.296   6.912   2.655 -0.0550  0.0377 -0.0580
14302W        W30111  12.878  13.612   2.451 -0.0469  0.2044 -0.0998
14303W        W30112  15.010  16.150   4.864 -0.0872 -0.0004  0.1134
14304W        W30113   9.767   5.774   4.061 -0.2936  0.0895 -0.2325
14305W        W30114  15.838  12.301   1.054  0.1635 -0.2333 -0.0404
14306W        W30115  16.785   9.773  12.382 -0.2930 -0.0910  0.0264
14307W        W30116  14.921  17.151   2.344 -0.2490 -0.0906 -0.1312
14308W        W30117   2.051   0.551   1.530  0.0150  0.2421  0.0670
14309W        W30118   5.500   0.399   5.479  0.0465 -0.1460  0.1647
14310W        W30119   8.523   4.916   4.727  0.0313  0.0021  0.1503
14311W        W30120   7.765   5.577   2.912 -0.0392  0.0474 -0.0521
14312W        W30121   9.692   4.298  13.810 -0.3300 -0.1190  0.1135
14313W        W30122   5.316  13.168   2.983 -0.0863 -0.4642  0.1227
14314W        W30123   5.273   5.424  14.927  0.2158  0.2691  0.0007
14315W        W30124   6.731  10.169  12.323 -0.1584 -0.1253 -0.0574
14316W        W30125  13.032  14.545   5.911 -0.0651  0.1681 -0.0440
14317W        W30126  15.550  18.084   0.436  0.0588  0.0381 -0.2150
14318W        W30127   7.959   7.010   2.191 -0.0262  0.0707  0.0306
14319W        W30128   9.058   2.191   5.095 -0.2356  0.1689  0.0512
14320W        W30129   1.114  10.673  13.194  0.2497 -0.2675 -0.2019
14321W        W30130  16.673   5.426  13.196 -0.1326  0.1694  0.2376
14322W        W30131   8.210  16.100  11.836  0.0870 -0.0063  0.0740
14323W        W30132  15.155  17.271   4.187 -0.1744  0.0920  0.1189
14324W        W30133  15.836  12.457   3.151 -0.1505 -0.1897 -0.1975
14325W        W30134   0.143  17.319  14.772 -0.1743  0.0647  0.2745
14326W        W30135   8.476   9.905  12.078  0.3207 -0.3573 -0.0361
14327W        W30136   7.719   2.957  15.369 -0.0421  0.1745  0.0748
14328W        W30137   2.605  11.269  11.848 -0.2506 -0.1111 -0.0372
14329W        W30138   3.584  16.164   4.556 -0.1456 -0.0322  0.0619
14330W        W30139  15.480   8.848  14.570  0.0066  0.2586  0.2133
14331W        W30140  13.073  17.965  13.656 -0.1162  0.1803  0.1804
14332W        W30141   3.272  13.922   2.025  0.4285 -0.0268  0.1293
14333W        W30142  15.453  16.305  14.869 -0.2656 -0.2817  0.2303
14334W        W30143   9.862  11.365   3.447 -0.0230  0.0670  0.0013
14335W        W30144   3.474   6.803  15.995 -0.0408  0.0545 -0.0359
14336W        W30145   9.469   3.414   2.688  0.2186  0.3644  0.1129
14337W        W30146   6.205  13.902   0.240  0.2392  0.3581  0.4554
14338W        W30147   6.301   1.806  15.600 -0.0621 -0.0058  0.3832
14339W        W30148   2.603  16.068   5.465 -0.0087  0.0581  0.0014
14340W        W30149  14.721  18.132   0.967 -0.1156  0.1312  0.0203
14341W        W30150   2.726   2.206   4.388  0.1159 -0.1319 -0.0646
14342W        W30151   5.228  11.956   5.662 -0.0154 -0.2983 -0.2330
14343W        W30152   6.889  17.136  13.317 -0.0717 -0.1704 -0.3170
14344W        W30153   9.477  14.862   4.335  0.2523 -0.2055 -0.1443
14345W        W30154   5.971  12.062   3.100 -0.3861 -0.0570 -0.1207
14346W        W30155  14.029  16.998  15.627 -0.1116  0.1275 -0.0756
14347W        W30156  16.801   3.837  13.280 -0.2361 -0.2437  0.2008
14348W        W30157  16.203   2.008  11.553  0.1242  0.1260  0.1897
14349W        W30158   2.262   9.318  16.052  0.0398 -0.0906  0.0057
14350W        W30159  14.027  15.132   3.422 -0.1083 -0.1171  0.2628
14351W        W30160  11.561   7.158  13.450 -0.1092  0.1127 -0.1824
14352W        W30161   0.280  14.427   4.184  0.2774  0.3172 -0.1069
14353W        W30162  12.196   5.410  11.704 -0.1429  0.0354  0.3778
14354W        W30163   5.058   1.525   2.261  0.2709 -0.2004 -0.0790
14355W        W30164  16.486   3.511  12.186  0.2084 -0.2128  0.0074
14356W        W30165  13.637   1.363   3.121  0.1397  0.0950  0.1300
14357W        W30166   0.848   3.188   1.290  0.0810  0.1260 -0.1434
14358W        W30167   5.472   0.823  14.263 -0.1021  0.1780 -0.1007
14359W        W30168  10.496   4.811  14.836 -0.0825  0.0821 -0.0369
14360W        W30169   6.277  13.949  13.436 -0.2012 -0.1247  0.1278
14361W        W30170   6.969  17.532  16.052 -0.2194 -0.0601  0.2263
14362W        W30171  10.876  14.465   1.183 -0.2362  0.1238  0.0161
14363W        W30172  11.260   7.322   4.379 -0.1122  0.4016 -0.1291
14364W        W30173   9.389   3.376  14.062 -0.0083  0.2018 -0.1705
14365W        W30174  11.927  17.038   3.522  0.2938  0.0531 -0.0509
14366W        W30175   7.233   5.234   3.611 -0.0568  0.1241  0.0557
14367W        W30176   3.162  17.524   0.303  0.0406  0.1198  0.0145
14368W        W30177  14.902   0.284  10.151 -0.2095 -0.2754  0.1045
14369W        W30178   9.616   7.664  13.921 -0.0748 -0.2755 -0.0128
14370W        W30179   7.337   5.626   0.380 -0.0703  0.0693 -0.1254
14371W        W30180   3.843   7.815  15.245  0.0785 -0.0028  0.1293
14372W        W30181   0.078  10.586  13.650 -0.1695  0.0171 -0.0439
14373W        W30182  15.788  16.234   3.171  0.3883  0.0575 -0.0796
14374W        W30183   3.708  13.863   1.391  0.4039 -0.2075  0.1711
14375W        W30184  17.460  12.241  14.879 -0.0254  0.0839  0.0721
14376W        W30185   9.667  18.007  10.320 -0.0165 -0.0515 -0.0281
14377W        W30186   5.215   0.298  15.225  0.1385 -0.0395 -0.0989
14378W        W30187   5.389  11.382   2.961  0.1445 -0.1059 -0.1899
14379W        W30188  17.472   4.228  13.998 -0.1369 -0.2326  0.0143
14380W        W30189   3.124   7.235  15.323 -0.0206 -0.0253  0.0997
14381W        W30190  11.804  11.078  14.598  0.0122 -0.2634 -0.0201
14382W        W30191   6.957   7.398  14.068  0.0376 -0.1550 -0.1380
14383W        W30192  13.739  13.801  15.959 -0.1831 -0.0089 -0.2259
14384W        W30193  12.690  18.223  13.411 -0.1998 -0.2787 -0.0130
14385W        W30194  12.056  15.839  11.892 -0.1577 -0.0034  0.0302
14386W        W30195  10.154  11.497   5.751  0.1146  0.0975 -0.0354
14387W        W30196   4.491  16.995   2.974  0.2464 -0.2357 -0.1541
14388W        W30197  12.284   8.271   4.208 -0.0538  0.1254  0.2444
14389W        W30198   3.286  12.666  13.987  0.1856 -0.1687 -0.0872
14390W        W30199   3.937  14.021  14.588 -0.2416  0.3518  0.1679
14391W        W30200   2.255  14.352  15.109 -0.0719 -0.0889 -0.1898
14392W        W30201   6.474   0.804  11.535 -0.0571  0.3122 -0.2199
14393W        W30202  14.924   9.984   3.881  0.0294 -0.1663 -0.4786
14394W        W30203   5.289   9.251  12.539  0.1972  0.1001 -0.0865
14395W        W30204   0.325   6.590  12.362  0.2186  0.0065  0.0453
14396W        W30205  14.467  16.616  15.532 -0.0231  0.0352 -0.0206
14397W        W30206   7.989   4.347   1.984  0.0175  0.0672 -0.3584
14398W        W30207  16.485  13.601   4.238  0.0171  0.1982 -0.2239
14399W        W30208   3.794   6.339  12.068 -0.0855  0.3214 -0.2695
14400W        W30209  11.130   9.949   0.713 -0.1511  0.1475 -0.2018
14401W        W30210  16.287   6.037   1.772  0.4796 -0.0282 -0.3775
14402W        W30211   7.113   1.514   3.233  0.0966 -0.0936 -0.1368
14403W        W30212   0.482  10.234   3.115 -0.0480 -0.0425 -0.3378
14404W        W30213   5.700   1.162   2.331 -0.1408  0.1423 -0.1354
14405W        W30214   4.561   8.226  13.700  0.0579  0.3589 -0.2076
14406W        W30215  14.438   7.123   2.126 -0.0537 -0.0019 -0.2252
14407W        W30216  10.363   8.922  13.487 -0.0764 -0.0604 -0.0506
14408W        W30217   2.654  13.453  15.624  0.0379  0.0338 -0.2565
14409W        W30218  16.874   6.896   2.749  0.2220  0.2384  0.1960
14410W        W30219  16.631   8.664   5.865  0.2442  0.1168  0.1839
14411W        W30220  15.984   6.435  12.848  0.2843 -0.3393 -0.1219
14412W        W30221  16.953  13.393  13.881  0.3059 -0.0613 -0.0187
14413W        W30222   7.061  10.915  12.670 -0.0240  0.0040  0.2833
14414W        W30223   1.034   0.828   2.741 -0.0755 -0.0144 -0.2286
14415W        W30224  15.445   6.172   2.503 -0.0484  0.3330  0.2476
14416W        W30225  14.555   6.997   1.686 -0.0045 -0.1106  0.2907
14417W        W30226  10.726  17.910   5.711 -0.0371  0.2267  0.0600
14418W        W30227   5.497   1.087  11.375  0.2029 -0.1048  0.2190
14419W        W30228   3.206   3.118   4.939 -0.0991 -0.0041 -0.0395
14420W        W30229  17.274   1.642  14.771  0.2396  0.0872  0.1844
14421W        W30230  15.159  10.801  13.500 -0.0050  0.2002 -0.0390
14422W        W30231  12.309  11.610   2.669 -0.0835 -0.0463 -0.0674
14423W        W30232  17.062   0.680  13.821  0.0801 -0.0214  0.0101
14424W        W30233  11.176   9.023   1.938  0.2414 -0.1479  0.1850
14425W        W30234   8.881  16.918   5.015  0.0782  0.0753 -0.1578
14426W        W30235   6.089  16.786   3.573 -0.0433 -0.3311 -0.0202
14427W        W30236  15.983  15.574  12.996  0.1217 -0.2383 -0.2855
14428W        W30237   3.267  13.366  12.349 -0.0784  0.0659 -0.0995
14429W        W30238   4.907   6.111  13.784 -0.1924  0.2011 -0.1541
14430W        W30239   7.704   9.081   2.036 -0.3220  0.0557 -0.0089
14431W        W30240  14.311   6.216  11.477 -0.1823  0.3519 -0.2455
14432W        W30241  17.651   8.816  15.996 -0.0006 -0.0919 -0.0034
14433W        W30242   3.234  17.438   4.364 -0.2853 -0.1142  0.1515
14434W        W30243  13.435  16.058  13.058  0.0472 -0.2555 -0.0308
14435W        W30244   0.157  18.150  15.278  0.0386 -0.2124 -0.0764
14436W        W30245   4.558   7.393  13.572  0.0774  0.2139 -0.1993
14437W        W30246   0.243  10.038  11.551 -0.1941 -0.1704 -0.0153
14438W        W30247   6.847  13.065  10.895  0.3165 -0.0315  0.1963
14439W        W30248   0.611  14.348   6.113 -0.2367 -0.1594 -0.0940
14440W        W30249  16.065  12.395  11.631 -0.0030 -0.3276  0.1662
14441W        W30250   3.336  12.260  12.365 -0.0204 -0.3320 -0.0254
14442W        W30251   0.200   8.314  15.362  0.0573 -0.1312 -0.0721
14443W        W30252   3.240   8.907   0.975 -0.0442  0.1476  0.0116
14444W        W30253  15.538   8.740   2.804  0.1434  0.0580  0.1352
14445W        W30254   0.677   1.210   5.058 -0.0413 -0.0285 -0.2695
14446W        W30255   2.287   3.180   3.178 -0.2498  0.0235  0.0025
14447W        W30256   6.982   3.836   5.388 -0.0586 -0.0474  0.0682
14448W        W30257  10.621   3.797   1.550 -0.3156 -0.0202  0.1549
14449W        W30258   8.115   5.965   2.969 -0.0556 -0.0769  0.0668
14450W        W30259   4.139  15.006  14.224  0.0387 -0.0117  0.2745
14451W        W30260  17.582  17.000  14.453  0.0619  0.2789 -0.0777
14452W        W30261  10.759   3.046  13.607  0.0474  0.0692 -0.0688
14453W        W30262   0.968   9.228  15.793  0.0550  0.2692 -0.1341
14454W        W30263   6.298   6.407  16.013  0.2233 -0.1204 -0.2159
14455W        W30264   4.737  16.961   9.969  0.0681 -0.0879  0.4550
14456W        W30265   9.193   4.412   3.171 -0.1261 -0.0252 -0.0805
14457W        W30266   4.539  12.413   2.291 -0.0072  0.0154 -0.0487
14458W        W30267   8.271   3.676  13.826 -0.2430  0.2277 -0.1560
14459W        W30268  10.652   8.638  12.103 -0.0869  0.1940  0.1602
14460W        W30269   6.360  14.638   0.650 -0.3220  0.1860 -0.1427
14461W        W30270  15.101  10.392   2.958  0.0250 -0.1524 -0.2227
14462W        W30271   3.860   1.353   4.048 -0.1868  0.0376 -0.0571
14463W        W30272   4.728  16.863  12.789  0.1158  0.1176 -0.0553
14464W        W30273   3.006   3.576  15.551 -0.1536  0.1361  0.1433
14465W        W30274   0.023  14.803  14.286 -0.0008  0.0970  0.1328
14466W        W30275  10.892   1.007  12.963  0.1725  0.1863  0.1461
14467W        W30276  13.845   0.509  14.237  0.2086 -0.0522  0.1205
14468W        W30277   3.962   9.432  13.811  0.1445  0.1058  0.1771
14469W        W30278   3.855  15.946   2.223  0.1264  0.1564  0.1100
14470W        W30279   0.545   7.284   2.333  0.1745  0.1308  0.2898
14471W        W30280   2.255  11.889   0.010 -0.0861  0.1646 -0.0166
14472W        W30281   9.989   8.978   5.421  0.0085 -0.0792  0.0086
14473W        W30282  12.877   1.202  10.733  0.1291 -0.3912  0.2943
14474W        W30283  12.223   4.753  15.038  0.0009  0.0600 -0.1320
14475W        W30284  10.407   4.528   4.369 -0.1842 -0.0813  0.2164
14476W        W30285   0.747  17.476  13.412  0.0391 -0.0365  0.0276
14477W        W30286   7.071   6.692  14.936 -0.0708 -0.0964  0.0639
14478W        W30287  12.935   7.715   0.662 -0.0267 -0.1669  0.1590
14479W        W30288   6.246   3.853   0.496  0.2743 -0.1263  0.0812
14480W        W30289  14.664   7.535  11.817  0.0112 -0.0188 -0.1302
14481W        W30290   1.826   2.445   1.464 -0.1770  0.0574 -0.3779
14482W        W30291   8.128  15.270  12.022  0.1019 -0.0032 -0.0906
14483W        W30292   4.530   5.912  15.437  0.2255  0.1179 -0.2111
14484W        W30293  10.175  12.130   0.924 -0.2094 -0.1122 -0.0715
14485W        W30294  15.177   8.833   4.636  0.0700 -0.1735 -0.1240
14486W        W30295   8.308  12.205   4.135  0.1993  0.2468  0.0860
14487W        W30296  17.803  13.255   4.093  0.0456 -0.0908 -0.0377
14488W        W30297   1.320  15.164   0.616 -0.0120  0.2982  0.1570
14489W        W30298  14.076   5.667   3.632 -0.0144 -0.3337 -0.1041
14490W        W30299   9.699  15.313   0.594 -0.0485 -0.0706  0.0866
14491W        W30300  16.246   8.384   4.860  0.0151 -0.0550 -0.0738
14492W        W30301  12.473  11.249   2.271 -0.1803  0.0793  0.0150
14493W        W30302   0.925   6.501   1.635 -0.0565 -0.0673  0.0564
14494W        W30303  11.635   5.216  13.159 -0.4245 -0.1473 -0.0813
14495W        W30304   4.255  17.879   1.795  0.0310 -0.1146 -0.0918
14496W        W30305  14.291  15.759   0.729 -0.1987 -0.3029 -0.3173
14497W        W30306   5.705   6.263  12.595 -0.0358  0.0329 -0.0191
14498W        W30307   5.808   9.876  11.449 -0.0019  0.0377 -0.1091
14499W        W30308   2.730   1.023   1.063  0.1686  0.1476  0.3071
14500W        W30309  11.537  15.482  14.963  0.0189  0.2487 -0.1007
14501W        W30310   4.943  10.128   0.050  0.1236  0.1262 -0.0296
14502W        W30311   0.102  15.126   0.093  0.5965 -0.1027  0.4024
14503W        W30312   1.738   3.167   0.859 -0.4474  0.0590 -0.2160
14504W        W30313  15.679  13.117  15.332 -0.0062 -0.0599  0.0623
14505W        W30314   6.152   4.806   2.405 -0.3078 -0.0341 -0.3350
14506W        W30315  18.171   8.558  14.549  0.0228  0.0278 -0.0408
14507W        W30316   7.348   7.707  15.106  0.1536  0.4980 -0.0655
14508W        W30317   9.487  12.576  12.682 -0.2013 -0.2214  0.1000
14509W        W30318  18.011   1.160   3.419  0.0002  0.0119 -0.1097
14510W        W30319  16.131  13.849   2.485  0.1451  0.1037  0.2370
14511W        W30320  10.220   2.886   3.403  0.3049  0.0634  0.3145
14512W        W30321   4.701  14.954   2.084 -0.2486 -0.4064  0.1456
14513W        W30322  11.278   6.423  12.189 -0.2328  0.0218 -0.1485
14514W        W30323   0.075  17.777   4.761 -0.0483 -0.0680 -0.1668
14515W        W30324  17.618  13.413  14.270 -0.0411  0.0187 -0.1518
14516W        W30325   1.165   3.931   4.596 -0.0359 -0.2127 -0.2617
14517W        W30326   5.340   2.463   2.469  0.0474  0.1940 -0.0028
14518W        W30327   2.431  17.800   2.993 -0.0113 -0.3467 -0.0364
14519W        W30328  11.918   2.746  13.972  0.1251 -0.0702 -0.0336
14520W        W30329   7.382  10.724   0.310  0.3513  0.0222  0.3745
14521W        W30330  15.063   2.447   5.110  0.0994  0.0418 -0.0380
14522W        W30331   7.246  18.166   3.704  0.0559  0.2852 -0.3499
14523W        W30332   8.123   8.844   1.176 -0.3148 -0.1298 -0.1997
14524W        W30333   8.803   8.699   0.502  0.0254  0.1815 -0.3214
14525W        W30334  17.676   5.647  15.237 -0.1275  0.0267 -0.2554
14526W        W30335   5.494   2.195   4.532 -0.5465  0.0696  0.0645
14527W        W30336  13.844   2.707   1.047 -0.0208 -0.2801 -0.2326
14528W        W30337   5.230  14.797  11.047  0.1304 -0.1373  0.3627
14529W        W30338  16.001   8.404  15.587 -0.0179 -0.2410  0.2803
14530W        W30339   1.446   5.016   5.804  0.4297  0.4767  0.0618
14531W        W30340  12.946  16.356  14.324 -0.2757  0.2258  0.1739
14532W        W30341  15.787  18.222   5.811 -0.0014 -0.2437  0.2003
14533W        W30342   8.912   6.301  11.008 -0.2160  0.2621 -0.2766
14534W        W30343   2.637   5.209   2.974  0.1452  0.0192  0.1998
14535W        W30344   6.342   7.508  12.939 -0.0641 -0.2833 -0.1655
14536W        W30345  15.948   6.935   5.879 -0.0983  0.2017 -0.0037
14537W        W30346   6.964   6.365  15.997  0.0064 -0.2261 -0.0547
14538W        W30347  15.549  10.426  11.730  0.1888 -0.2485  0.0631
14539W        W30348   9.319   3.103  15.280 -0.1120 -0.1162 -0.3368
14540W        W30349   8.570  14.589   4.521  0.0351 -0.2147  0.1476
14541W        W30350   1.348  16.901  14.767 -0.0195  0.0808 -0.0918
14542W        W30351   6.121   5.846  12.152 -0.0064  0.0348  0.1750
14543W        W30352   7.655  10.161   2.933 -0.1452 -0.1893  0.1718
14544W        W30353   5.814   8.190   1.032 -0.2438 -0.2601  0.0557
14545W        W30354  14.239  16.934   0.431 -0.1631 -0.1331  0.0354
14546W        W30355   5.705  16.281   4.502 -0.0543 -0.1197  0.3078
14547W        W30356  14.808   8.368   1.167  0.1599 -0.0401  0.3112
14548W        W30357   4.088   5.196  13.892  0.1981  0.0475  0.3005
14549W        W30358   4.078  10.452   2.974 -0.2618  0.0954 -0.2049
14550W        W30359   9.251  13.598   2.969  0.1118 -0.0130 -0.3413
14551W        W30360  16.566   5.741   3.603  0.0636  0.0162  0.1910
14552W        W30361   3.341   7.010   3.004 -0.0234 -0.1678 -0.0958
14553W        W30362   5.462   0.580   6.276  0.0766  0.2216  0.1744
14554W        W30363  18.046   5.628   1.213 -0.3594 -0.0233 -0.0007
14555W        W30364   8.909  14.681  11.481  0.3730 -0.0120  0.0645
14556W        W30365   7.911   2.651   2.274 -0.0154 -0.0348  0.4209
14557W        W30366   5.727   2.620   1.772 -0.2394 -0.0275 -0.0689
14558W        W30367   5.817   1.522  12.731 -0.0851  0.0757  0.0590
14559W        W30368  18.239   4.599   3.961 -0.0166  0.0928  0.2653
14560W        W30369   2.111   3.972   2.512  0.2651  0.0837  0.0195
14561W        W30370  10.035  13.722   5.930  0.1757  0.3623 -0.0329
14562W        W30371   0.373  14.509  11.512  0.1016 -0.0915  0.1001
14563W        W30372   6.954  10.802  13.796 -0.0604  0.1330  0.0461
14564W        W30373  10.294   1.553  13.478 -0.1098  0.0766 -0.0315
14565W        W30374   9.298   0.005  11.073 -0.1978  0.2044 -0.1178
14566W        W30375  16.228   2.446  13.447  0.3049 -0.0590 -0.0315
14567W        W30376   0.616  10.137  15.665  0.1096  0.3198  0.1766
14568W        W30377   3.709  13.332  11.570  0.0788  0.0818 -0.1166
14569W        W30378   6.039   3.652  12.369 -0.1733  0.0220  0.2571
14570W        W30379   7.486   6.980  12.655  0.1966  0.2309 -0.0193
14571W        W30380  15.916   2.392   0.007 -0.1747  0.1247 -0.0166
14572W        W30381  13.680  17.929  10.104 -0.2766 -0.0607 -0.1347
14573W        W30382   9.023  17.034   4.543 -0.1394 -0.0188  0.0759
14574W        W30383  11.970   1.071   2.497  0.1330 -0.0101  0.0289
14575W        W30384   9.602  18.021  15.741 -0.1930 -0.1505  0.1492
14576W        W30385  10.492  14.055  13.139 -0.2062  0.0192  0.0634
14577W        W30386  15.182   2.669   1.098 -0.1941  0.1761  0.1441
14578W        W30387  16.174   4.718  12.045  0.0042  0.3817  0.1107
14579W        W30388   2.471   6.152   0.915  0.1280  0.1563 -0.2952
14580W        W30389   5.834  15.138   4.196 -0.0215 -0.0516 -0.2493
14581W        W30390   9.923  10.203   9.904  0.3535  0.2004 -0.1039
14582W        W30391   6.386  17.263   4.384 -0.1901  0.0818  0.1133
14583W        W30392  16.513   4.168   2.752  0.1812  0.1682  0.0560
14584W        W30393   0.099   8.162   4.039  0.0270 -0.1228 -0.2229
14585W        W30394  11.308  17.814  14.881  0.1107  0.0072 -0.1480
14586W        W30395   9.814   3.070   2.921  0.0952 -0.0475  0.0971
14587W        W30396  17.039  10.765   2.040  0.0108 -0.2725  0.0232
14588W        W30397   9.798   4.640   4.801  0.0219 -0.2974 -0.2601
14589W        W30398   5.034  10.466  12.154  0.0983 -0.1497  0.0107
14590W        W30399   0.214   8.299   2.529  0.1062 -0.0452  0.0009
14591W        W30400   0.948   1.685  12.513  0.1287  0.0426 -0.0861
14592W        W30401  16.580  10.858   5.629 -0.2285 -0.0700  0.1046
14593W        W30402   6.814  17.180  12.719  0.0739 -0.3061 -0.0714
14594W        W30403   0.322   4.990   1.632  0.2147 -0.0292  0.1896
14595W        W30404  16.708  11.763  14.196  0.0759 -0.1152 -0.0196
14596W        W30405   3.186   7.257   2.494  0.2153 -0.3471 -0.1270
14597W        W30406  10.112  11.040   3.768  0.4552 -0.2899 -0.0885
14598W        W30407   2.880   4.000   2.211  0.1471  0.0599 -0.1373
14599W        W30408   7.554  11.636   3.960 -0.1414  0.0569  0.0768
14600W        W30409  17.469  15.360  15.401 -0.1632 -0.3376  0.0853
14601W        W30410  13.048   6.625  11.326  0.1739  0.0591  0.0135
14602W        W30411   7.093   5.248  15.059  0.1403 -0.0777 -0.1698
14603W        W30412   2.598  12.596   3.172 -0.0399 -0.3273 -0.2930
14604W        W30413   7.312   3.846   3.602 -0.0026  0.2269  0.2652
14605W        W30414  13.938  12.019  15.001 -0.0774 -0.1170 -0.3227
14606W        W30415   2.922  11.751   6.023  0.0149 -0.3906  0.0477
14607W        W30416   2.461   0.538   1.158  0.1036  0.1767 -0.1897
14608W        W30417   9.681   1.105  11.761  0.1463  0.0953 -0.0048
14609W        W30418   7.696   8.264  13.740 -0.3277  0.1699  0.2235
14610W        W30419  12.437  11.125  12.262 -0.0106 -0.1734  0.1495
14611W        W30420  17.277   6.390  11.284  0.2847  0.0076 -0.2271
14612W        W30421   6.893   2.479   5.791  0.4922 -0.0515 -0.1466
14613W        W30422   3.398   8.943  13.152  0.0919  0.1338  0.1842
14614W        W30423  10.906   6.941  15.277 -0.2236  0.3105 -0.0905
14615W        W30424  12.429  14.356   1.145 -0.0259  0.5653  0.0068
14616W        W30425   8.322  11.165   2.266  0.0129  0.3992  0.1629
14617W        W30426   7.120   7.184   4.914  0.0328 -0.0573  0.0549
14618W        W30427   5.742  17.981   0.108 -0.0858 -0.1620  0.0130
14619W        W30428   1.530  16.338   4.067 -0.1884 -0.1741 -0.1027
14620W        W30429  13.703   0.534  14.737 -0.2971 -0.3372  0.0831
14621W        W30430   8.275   7.019   4.278  0.1111  0.0210 -0.0735
14622W        W30431   2.528  14.722   3.567 -0.2249 -0.0886 -0.0913
14623W        W30432  15.411   5.755   1.539  0.0374 -0.2521 -0.0230
14624W        W30433   1.702   8.445   0.570  0.0820 -0.2395 -0.1664
14625W        W30434   7.730  15.121   0.028 -0.0581 -0.0484  0.2455
14626W        W30435  14.960   3.366   0.666 -0.2366  0.1969  0.0071
14627W        W30436   3.800   1.823   1.935 -0.0481 -0.1000  0.0918
14628W        W30437  14.361  13.501  12.601 -0.2836  0.0567 -0.1605
14629W        W30438   9.740  10.854   3.367  0.0417  0.2368 -0.1150
14630W        W30439  13.751  12.214  15.428  0.0167  0.1353 -0.0448
14631W        W30440  13.980  11.076  14.336  0.1587  0.3245  0.4687
14632W        W30441   2.811   1.828   1.464  0.0468 -0.1245 -0.0120
14633W        W30442  16.980   9.548   2.838 -0.0371  0.2682  0.0165
14634W        W30443   2.088  16.511   2.508  0.2282  0.0558 -0.0889
14635W        W30444   4.940   5.996   5.877  0.1043  0.2170  0.3237
14636W        W30445   7.426  16.085   1.674 -0.0628 -0.3377  0.4132
14637W        W30446   7.506   5.798   0.827 -0.1609 -0.0674  0.3359
14638W        W30447   8.539  10.413  15.100  0.0606  0.1103  0.0266
14639W        W30448   9.131   8.388   4.242  0.1288 -0.0649  0.3233
14640W        W30449  16.837  14.671   1.093  0.2357 -0.0343 -0.0711
14641W        W30450  14.717  15.124  13.728  0.0046 -0.0043 -0.2168
14642W        W30451  10.268  17.741   2.088 -0.0058 -0.0896  0.2037
14643W        W30452  15.687  10.762   1.712 -0.0412 -0.0412 -0.1712
14644W        W30453  11.925   3.004  11.546  0.1256 -0.1031  0.0234
14645W        W30454   0.992  16.531  11.737 -0.1032  0.1010  0.0678
14646W        W30455  11.416   8.779  16.002 -0.3071 -0.1172  0.0583
14647W        W30456   7.913   0.315  12.032  0.2542 -0.0586  0.1094
14648W        W30457  17.939   5.342  13.551 -0.0581 -0.2629  0.0019
14649W        W30458   3.969   2.216   6.360  0.2915  0.3178 -0.0277
14650W        W30459  14.758  16.925  15.164 -0.0310 -0.0070  0.0972
14651W        W30460   2.862   8.217  10.878  0.1437  0.0265 -0.0838
14652W        W30461  13.290  15.073  15.733 -0.3005  0.0579 -0.1831
14653W        W30462  18.001  10.048  12.781 -0.1655  0.0470  0.0493
14654W        W30463   7.534   6.936  14.553  0.1221  0.2230  0.0670
14655W        W30464   9.587   1.373   1.273 -0.0986  0.2915 -0.1094
14656W        W30465  13.209   8.096  11.244 -0.2518  0.1022  0.0708
14657W        W30466  10.117   3.636   1.629 -0.2113 -0.2933  0.2739
14658W        W30467   3.884   4.893  15.407  0.2214 -0.1280 -0.3345
14659W        W30468   5.827   8.195  11.387  0.0510 -0.0586 -0.1588
14660W        W30469  16.741   0.814   2.920  0.2159 -0.0024 -0.2114
14661W        W30470   8.696  17.779   3.034  0.4952  0.0120  0.0322
14662W        W30471  14.682   5.192   4.888  0.2029  0.0528  0.4810
14663W        W30472  12.072  17.225  14.404  0.1341 -0.1217  0.2564
14664W        W30473   6.529   2.260  10.426 -0.1111 -0.0309  0.2129
14665W        W30474  17.695   1.163   2.962  0.4624 -0.0962  0.0974
14666W        W30475   5.213   8.601   1.978 -0.0118 -0.2537 -0.1736
14667W        W30476   0.572   6.876   0.036 -0.0577  0.0935  0.0246
14668W        W30477   1.216  12.143   4.663 -0.1229 -0.1221 -0.4296
14669W        W30478  15.841  17.305  12.091  0.3349 -0.1781 -0.1448
14670W        W30479   9.467  15.161  10.933  0.0652  0.2543 -0.2932
14671W        W30480  11.427  16.137  12.974  0.1438  0.0901  0.0660
14672W        W30481  15.855   9.261  15.312  0.1124 -0.0423  0.0172
14673W        W30482  10.048  16.992  14.785  0.0031  0.1594 -0.2057
14674W        W30483   9.975   2.259  12.217  0.1427  0.1090  0.0737
14675W        W30484  11.235   2.964   5.056 -0.0880  0.1902  0.0798
14676W        W30485   8.141  11.528  11.134  0.2196 -0.0481 -0.1125
14677W        W30486   4.650   3.164   1.217  0.0711 -0.1954 -0.1210
14678W        W30487   2.223  16.086   2.232 -0.1224  0.3729  0.0881
14679W        W30488   0.094   0.036   4.764 -0.3456  0.1178  0.1418
14680W        W30489  17.078   9.026  13.190  0.0219  0.1813  0.2405
14681W        W30490   9.237  15.070   4.737 -0.0705  0.0638  0.0598
14682W        W30491  13.341   3.688   4.515  0.1113 -0.0178 -0.1121
14683W        W30492   7.264   1.527  13.732  0.1124  0.0329 -0.0446
14684W        W30493  12.406  17.750  12.316  0.3380  0.1881  0.0843
14685W        W30494   9.453   3.960   3.377 -0.0273  0.1516  0.2234
14686W        W30495  14.821  10.976  14.390  0.5078 -0.1875  0.1003
14687W        W30496   2.183  17.324  13.699  0.0277 -0.0065 -0.0433
14688W        W30497  16.640  16.128  15.965  0.1906  0.0255  0.2603
14689W        W30498   2.150  14.334  15.933  0.0884 -0.0620  0.2912
14690W        W30499  17.334   8.190   3.045 -0.0429  0.1266  0.0011
14691W        W30500  14.384  16.918   6.119  0.1323  0.2560 -0.1362
14692W        W30501   6.061   7.028  13.659  0.2351 -0.0586  0.1030
14693W        W30502  18.176  17.798  14.917 -0.3431 -0.0445  0.2012
14694W        W30503   6.985  18.162  12.973  0.0202  0.1744 -0.3102
14695W        W30504   4.910   9.396  15.266 -0.0311 -0.4932 -0.1937
14696W        W30505   4.806  10.776   1.329  0.0294 -0.1715 -0.1641
14697W        W30506  17.663  14.717   1.573  0.0331  0.2335 -0.0525
14698W        W30507  14.796   0.533   5.619  0.0131 -0.1738  0.0143
14699W        W30508  15.683   0.507   2.723  0.0079  0.3071 -0.2846
14700W        W30509   5.027  17.496  12.279  0.0760  0.0644 -0.0839
14701W        W30510  14.869  13.359   3.422 -0.2809 -0.0004  0.0718
14702W        W30511  10.823  10.426  13.679  0.1861 -0.0212 -0.0304
14703W        W30512  13.350  13.372   0.385  0.3621 -0.1927  0.0029
14704W        W30513   9.642   0.922   2.007  0.2022  0.1310 -0.1888
14705W        W30514   9.033   1.724   2.886 -0.1544  0.0364  0.1566
14706W        W30515   9.788  16.602  13.701 -0.2328 -0.0859 -0.0296
14707W        W30516   1.479   7.505   1.599  0.0758  0.0666 -0.1151
14708W        W30517  14.118   8.309   2.789  0.1206  0.2975 -0.2149
14709W        W30518  13.289  16.641   2.150 -0.1181 -0.3435  0.0910
14710W        W30519   3.106   1.615  14.550 -0.3598 -0.1206  0.0698
14711W        W30520   6.898   9.568  12.936  0.0633  0.1386  0.2124
14712W        W30521   1.542  13.123   1.603 -0.1721  0.0283  0.3666
14713W        W30522   1.622   1.784  14.506 -0.1668 -0.2163 -0.3914
14714W        W30523   1.571   9.251  11.643 -0.2182 -0.0514 -0.1932
14715W        W30524  14.615   3.615   2.128 -0.3030  0.1772 -0.1601
14716W        W30525  16.592  15.043  14.947 -0.2876  0.2124  0.2126
14717W        W30526   9.755  12.611   2.684 -0.1272 -0.1480 -0.0222
14718W        W30527  17.731   6.808   4.355 -0.0999  0.1125  0.0011
14719W        W30528   5.532  17.822   4.411  0.1384 -0.1045 -0.2361
14720W        W30529  12.916  17.736  12.426 -0.0785  0.1944  0.2560
14721W        W30530   5.332  14.116   2.644  0.1805 -0.1789  0.2344
14722W        W30531   9.986   8.275   3.709  0.0487 -0.0970  0.2127
14723W        W30532  16.175  17.894   6.207 -0.2058  0.1992  0.1735
14724W        W30533   8.710   6.568   0.636  0.2636  0.0869 -0.2916
14725W        W30534  16.068   2.594   5.647 -0.2034 -0.1874 -0.0285
14726W        W30535   2.333   0.339  11.372 -0.1423  0.1021 -0.1179
14727W        W30536   2.470  13.236  14.084  0.2054 -0.2792 -0.4649
14728W        W30537   3.967  18.040   1.173 -0.3639 -0.2179  0.0492
14729W        W30538   6.357   2.343  11.465  0.1797  0.0711 -0.3452
14730W        W30539  17.318  17.563   2.183  0.0399 -0.0449  0.4334
14731W        W30540  14.382   1.591  12.563  0.1018  0.0617 -0.1331
14732W        W30541   5.436   2.918   2.575  0.0894  0.1932 -0.1140
14733W        W30542   5.461   9.059  14.542 -0.0236 -0.4674  0.2568
14734W        W30543  13.576  15.541  14.038 -0.2850 -0.1506  0.1032
14735W        W30544  12.131  16.229   4.938 -0.1210  0.2036 -0.0317
14736W        W30545   7.127  17.663   0.854  0.1448  0.0639  0.1153
14737W        W30546   2.000   9.739  15.202  0.1491  0.0293 -0.0115
14738W        W30547  14.085  12.643  12.018 -0.2382  0.0340  0.0294
14739W        W30548   4.800  15.943   3.880 -0.2098  0.0143 -0.1079
14740W        W30549  12.184  10.735  14.107 -0.1304 -0.3685 -0.0650
14741W        W30550  15.260  12.437  14.945 -0.0227  0.1119 -0.1798
14742W        W30551   4.542   5.330   4.945 -0.3853 -0.2105  0.0011
14743W        W30552   0.302  14.766   1.426  0.2984  0.1623 -0.1490
14744W        W30553   7.774   7.331  15.424  0.0168 -0.2455  0.0783
14745W        W30554  10.026   3.211   5.147  0.0761  0.2442  0.2634
14746W        W30555  16.750  16.867  15.185 -0.0325  0.3078  0.0861
14747W        W30556   8.031   2.033   4.247 -0.0334  0.0201  0.0447
14748W        W30557  12.707   2.794   3.831 -0.2553  0.0221  0.2274
14749W        W30558   0.423  10.097   1.325 -0.2079 -0.1300  0.0266
14750W        W30559  16.064  15.197  12.157 -0.1616  0.1532 -0.1493
14751W        W30560   0.382  18.048   2.065 -0.0954  0.0573 -0.0925
14752W        W30561  14.144   7.449   2.426  0.1019 -0.1244  0.2205
14753W        W30562   2.191   2.410  12.733  0.0536 -0.1077 -0.2769
14754W        W30563   8.981  17.573   4.517  0.0834 -0.3334 -0.1697
14755W        W30564   1.978  12.659  14.703 -0.1798 -0.4520  0.2270
14756W        W30565   3.931   2.036  11.548 -0.1152 -0.2012  0.2014
14757W        W30566  17.740   9.844  11.282 -0.1657  0.0735 -0.2180
14758W        W30567  14.670   0.029   5.871 -0.1634  0.3190  0.2182
14759W        W30568   0.119   6.252  11.250  0.1652  0.0339  0.1062
14760W        W30569   3.189   4.330  11.372  0.0927 -0.0281 -0.1418
14761W        W30570   8.193  17.335  15.665 -0.1869 -0.4153 -0.2234
14762W        W30571  18.147  14.854   5.018  0.0200  0.2222 -0.0491
14763W        W30572   5.088   0.441  14.373  0.2131  0.0469  0.0371
14764W        W30573   3.784  10.027   5.847 -0.0778  0.1499  0.0933
14765W        W30574   1.628   0.248  11.309  0.2751  0.0020  0.2258
14766W        W30575   0.992   5.032  13.985  0.1588  0.2577 -0.1646
14767W        W30576  10.509  16.221   0.248 -0.1119 -0.2276  0.3800
14768W        W30577   8.923   4.845  15.829 -0.2303 -0.1756  0.3311
14769W        W30578  15.677   9.375  13.502 -0.0817  0.0279 -0.1737
14770W        W30579  15.760  10.701  14.259 -0.0954 -0.2177  0.1062
14771W        W30580   6.427   9.815  16.015  0.0385  0.0438 -0.2135
14772W        W30581  12.926   9.587   2.360 -0.0831 -0.0145  0.1038
14773W        W30582   7.970   1.690  11.864 -0.3133  0.2607  0.0889
14774W        W30583  10.638   4.351  11.852 -0.0148  0.0628 -0.0335
14775W        W30584  10.784   3.545  15.766  0.0014 -0.0773 -0.0002
14776W        W30585   6.897   0.943  14.298 -0.0656 -0.1795  0.1826
14777W        W30586   0.136  11.124   3.830  0.2117  0.2022 -0.1016
14778W        W30587  13.068   3.535  12.838 -0.0904 -0.0498 -0.1229
14779W        W30588   4.480   8.979  15.978  0.0797 -0.0457 -0.0247
14780W        W30589   9.761   2.981   3.518 -0.0322 -0.2085  0.1026
14781W        W30590   3.434   3.980  14.347 -0.0877  0.0795 -0.2226
14782W        W30591   4.819   6.907  10.791  0.0576  0.2192 -0.1857
14783W        W30592  17.669  15.039  11.951 -0.0163 -0.0498  0.1974
14784W        W30593   5.463  12.743   3.692 -0.0186 -0.1291  0.2168
14785W        W30594  17.370   2.538   0.929  0.2161  0.2134  0.1045
14786W        W30595  16.900  15.553   0.700 -0.1462 -0.0059 -0.0576
14787W        W30596   0.265   6.155  12.120 -0.1149 -0.1490  0.0365
14788W        W30597   6.807   0.994   1.665 -0.1550 -0.1655 -0.0470
14789W        W30598   2.918   2.769   5.254 -0.4518 -0.1938 -0.0344
14790W        W30599   1.598  10.054   1.732  0.3294  0.2473 -0.1339
14791W        W30600   9.586   3.809  13.865 -0.0659 -0.3156  0.0301
14792W        W30601   7.989  13.380  14.330  0.0033 -0.2114 -0.0097
14793W        W30602  14.976  11.324   4.572  0.2383  0.2000  0.0110
14794W        W30603  15.325   9.296   4.826 -0.4197 -0.0472  0.2962
14795W        W30604   1.982   7.250   3.507 -0.0831 -0.0330 -0.0202
14796W        W30605  15.977  12.685   4.483  0.2097 -0.0062 -0.0523
14797W        W30606   7.983  18.231  13.881  0.1224  0.1581  0.2911
14798W        W30607  10.884  17.049   1.788 -0.1940  0.2116 -0.2458
14799W        W30608   4.781  14.281  14.693  0.1333  0.0374  0.3123
14800W        W30609   0.456  15.336  13.146  0.1883 -0.3279 -0.0875
14801W        W30610   2.882   3.129   0.676  0.1378  0.0111  0.0109
14802W        W30611   9.014  17.609   5.424  0.1440  0.0851  0.0362
14803W        W30612  12.189   2.276  11.884 -0.0621 -0.0879 -0.1393
14804W        W30613  15.566  10.552   2.941 -0.2167 -0.0581  0.1778
14805W        W30614  10.316   5.313  11.679  0.1593  0.0233 -0.0228
14806W        W30615  16.436  14.569  10.729 -0.2203  0.0994 -0.1441
14807W        W30616  17.418  16.241   5.600  0.1339  0.0295 -0.0213
14808W        W30617   5.414  11.197   5.288  0.1640 -0.0260 -0.0038
14809W        W30618   6.890   3.845   4.854  0.0512  0.1856 -0.0307
14810W        W30619   7.330   1.376  11.262 -0.0827  0.1085 -0.0296
14811W        W30620   4.144   1.379   1.249  0.2680  0.1963  0.2078
14812W        W30621  15.654   3.294  13.254 -0.2707 -0.2995  0.0249
14813W        W30622   6.057  11.317  13.888 -0.0909 -0.2489  0.1367
14814W        W30623  16.227  10.005  11.401  0.0341  0.1698 -0.0300
14815W        W30624   4.954   2.147  11.719  0.2653 -0.1931 -0.0861
14816W        W30625   9.432   3.560   0.777 -0.1775  0.0913 -0.0334
14817W        W30626  10.925   9.060  11.984 -0.0636 -0.1700 -0.2079
14818W        W30627  16.107   4.140   0.115  0.1862  0.1547 -0.2162
14819W        W30628   2.504   3.267  13.670 -0.0309 -0.0628  0.0435
14820W        W30629   2.536   2.270   0.129 -0.0850 -0.2908 -0.4085
14821W        W30630   5.202   3.869  12.873 -0.1078  0.0489  0.1358
14822W        W30631  17.030   4.843   3.118  0.0766  0.0975  0.0800
14823W        W30632   3.487  10.342  13.676  0.1683  0.0004 -0.1138
14824W        W30633  16.967   5.354  15.419 -0.0784  0.2407 -0.2162
14825W        W30634  12.543   3.607   4.256  0.0994 -0.1862 -0.0278
14826W        W30635  12.207   8.307   1.124 -0.2487 -0.0642 -0.1377
14827W        W30636  14.475  15.983   0.291 -0.1105  0.1163 -0.3214
14828W        W30637   8.218  16.299   1.524 -0.0006 -0.2919 -0.0608
14829W        W30638  18.249   8.229  14.005  0.2553 -0.2410 -0.0695
14830W        W30639  13.502  16.743   2.614  0.0667  0.0362 -0.0138
14831W        W30640   3.508   9.582   5.627  0.0791 -0.1077 -0.2307
14832W        W30641   3.402   4.175  15.091 -0.1635  0.0669 -0.0608
14833W        W30642  16.607   0.069   0.055  0.5044  0.3115 -0.0266
14834W        W30643  17.466  15.090   3.875  0.4100  0.2821 -0.0675
14835W        W30644   6.014  15.805  11.562 -0.4199 -0.0904 -0.0817
14836W        W30645  12.787  17.729  16.071  0.2752  0.0973 -0.1267
14837W        W30646  16.460  14.759  15.280 -0.2173 -0.0809 -0.0324
14838W        W30647   3.005  13.503   1.960 -0.4040 -0.0210 -0.0111
14839W        W30648  13.214   2.052   2.091  0.1753 -0.1548 -0.0953
14840W        W30649   4.442   9.437  15.502 -0.2646 -0.0274 -0.1423
14841W        W30650  10.335   8.142  12.686 -0.0890  0.0476 -0.5605
14842W        W30651   1.700   0.175   1.646 -0.0369 -0.0357  0.1968
14843W        W30652  16.803   4.474   5.137  0.1005  0.1548 -0.0868
14844W        W30653  13.496  13.092  15.444  0.4875  0.2579 -0.2256
14845W        W30654   7.566   7.517  11.703  0.3702  0.1194 -0.0287
14846W        W30655  12.418  17.029   0.235  0.0835 -0.4415 -0.0160
14847W        W30656   9.215   1.798  11.220  0.1336  0.0013  0.0533
14848W        W30657   5.015   5.093  10.968 -0.1485 -0.1358 -0.2988
14849W        W30658   9.933   4.642  14.076  0.1328  0.1787  0.2289
14850W        W30659  11.985   5.318  12.247  0.0696 -0.3166 -0.0917
14851W        W30660   5.398  13.511   0.385  0.1835 -0.1469 -0.2365
14852W        W30661  11.464  16.144   0.342 -0.3148 -0.2111  0.3524
14853W        W30662   0.031   7.311  11.903  0.0645 -0.2216  0.1570
14854W        W30663  13.904  10.290   3.047 -0.0899 -0.0091 -0.1566
14855W        W30664   4.197  15.891  15.560  0.0088  0.0742 -0.0037
14856W        W30665   1.562   7.027   3.254 -0.0134 -0.1765 -0.1363
14857W        W30666   0.664  17.242   1.831  0.3521  0.0079 -0.0842
14858W        W30667   4.808  17.638   2.156  0.0348 -0.1906 -0.0870
14859W        W30668   7.680   9.980  11.393 -0.2063  0.2314  0.1817
14860W        W30669  12.642  10.722   2.501 -0.1232  0.0315 -0.2663
14861W        W30670   8.424  17.366   2.815 -0.1146  0.2737  0.1210
14862W        W30671  15.274   8.838   2.278 -0.1842  0.3155  0.1388
14863W        W30672   7.851   0.939   0.805  0.1038  0.1286 -0.2354
14864W        W30673  14.772   3.338   4.445 -0.2231  0.1951  0.0985
14865W        W30674   4.921   8.556   5.158 -0.2518 -0.0673 -0.3129
14866W        W30675   9.990   1.288   2.159  0.0110 -0.0189  0.1862
14867W        W30676  15.926  12.085  15.972  0.1919 -0.1878  0.3316
14868W        W30677   2.873  17.572  14.610  0.0228 -0.1743  0.1264
14869W        W30678   3.876  13.584  14.283  0.0780 -0.2293  0.2693
14870W        W30679  16.296  10.454   0.423  0.2361 -0.3341  0.2541
14871W        W30680   3.116   4.740  11.659  0.0093  0.0533 -0.1752
14872W        W30681   5.944   2.341   1.413 -0.1954  0.3396  0.0783
14873W        W30682   8.404  13.737  13.238  0.2539  0.3699 -0.0314
14874W        W30683   8.208   2.906  15.349 -0.1315 -0.0730  0.0447
14875W        W30684  17.842   9.442   4.886 -0.1810  0.0003  0.0836
14876W        W30685  16.014   4.061  11.491  0.1317  0.0131 -0.3395
14877W        W30686   3.612  15.253  15.403  0.0071 -0.0012  0.1566
14878W        W30687   1.866  10.043  13.991 -0.0464  0.1103 -0.0870
14879W        W30688  14.845   9.967   3.026 -0.1230 -0.0686 -0.0579
14880W        W30689  12.319   7.005   0.762  0.3378  0.0337  0.0763
14881W        W30690   0.835   2.069   4.873  0.1452  0.0141 -0.0429
14882W        W30691   2.571  10.959  12.228 -0.0589  0.2300 -0.1423
14883W        W30692   4.219   8.799  12.619  0.2719  0.0216 -0.0294
14884W        W30693   8.404   0.118   2.854 -0.1657  0.2046  0.0402
14885W        W30694  18.083   9.414  14.933  0.0800 -0.0406  0.0081
14886W        W30695   7.827   7.417   1.443 -0.0030  0.2663 -0.2998
14887W        W30696   5.370   9.444   0.366 -0.1612 -0.2183  0.2594
14888W        W30697   2.086   9.310  11.775  0.0222  0.1751  0.2922
14889W        W30698  13.188   5.888  11.209  0.2996  0.0439  0.5153
14890W        W30699  15.003  16.603  14.854 -0.1251  0.0565  0.4058
14891W        W30700   9.185   1.097  13.854 -0.2640 -0.1846 -0.2753
14892W        W30701   9.834   5.312  14.126 -0.0994  0.2124 -0.0802
14893W        W30702   9.358  17.015  15.495 -0.0684 -0.1580 -0.1746
14894W        W30703   5.185   0.007  13.798  0.1771 -0.2000 -0.2622
14895W        W30704  17.488   8.603   1.303 -0.1147  0.0335 -0.1649
14896W        W30705   5.199   8.160  11.179 -0.1149  0.1182  0.0451
14897W        W30706   3.267  12.656  12.097  0.0342  0.1687 -0.1201
14898W        W30707  15.470   4.082   0.331  0.1001 -0.1333 -0.3471
14899W        W30708  17.407   7.112   0.904 -0.1577 -0.0172  0.3976
14900W        W30709  14.010  13.345   3.947  0.0351 -0.3565  0.0231
14901W        W30710  11.185   1.902   4.972 -0.0418 -0.0645  0.0419
14902W        W30711  12.108  13.235   2.439 -0.2159  0.0070 -0.0646
14903W        W30712   2.807   0.232  12.253 -0.2119  0.0960 -0.1264
14904W        W30713  16.593   5.287   4.573  0.0716 -0.0001 -0.0953
14905W        W30714   3.620   2.597   1.968  0.0388 -0.3950  0.1594
14906W        W30715   2.371   2.338   2.188  0.0586 -0.0555  0.3553
14907W        W30716   8.751  15.582  12.587 -0.1385  0.0481  0.3078
14908W        W30717   7.246  11.662  14.378 -0.3434 -0.2634 -0.0913
14909W        W30718  14.397  11.513   0.325 -0.0095 -0.0036  0.3785
14910W        W30719  11.612   0.461  15.323  0.0417 -0.1339 -0.2569
14911W        W30720  11.313   5.020  15.418  0.1084  0.1067  0.1633
14912W        W30721  18.065  18.141   3.717 -0.0781  0.0564 -0.0974
14913W        W30722  15.311  15.060  13.683 -0.4215 -0.0760  0.1819
14914W        W30723   3.596  12.992  13.697  0.1489 -0.2521  0.1644
14915W        W30724  16.477   0.409  13.063  0.1145  0.1828  0.1181
14916W        W30725  15.518   4.777   0.823  0.2150  0.1021 -0.1059
14917W        W30726   7.838   4.042   4.856  0.0943 -0.1211  0.0299
14918W        W30727  11.633   9.612  15.850 -0.0697  0.1900 -0.0518
14919W        W30728   8.122  17.212  13.549  0.1427 -0.0556  0.0834
14920W        W30729   5.721   5.689   4.399 -0.2035 -0.0300 -0.2971
14921W        W30730   7.336  11.963   0.930  0.3015 -0.2186  0.1696
14922W        W30731  16.388  15.043   0.511 -0.3000 -0.1174 -0.0409
14923W        W30732  13.703   3.195  12.018  0.0192 -0.3501 -0.0639
14924W        W30733   3.064  10.557   1.015  0.0179 -0.2743  0.1514
14925W        W30734   4.079   1.246  14.328  0.4535 -0.2276 -0.0696
14926W        W30735   3.311  11.589  15.928  0.1406 -0.1750 -0.0620
14927W        W30736   1.581  15.031  12.833 -0.1680  0.0409  0.2971
14928W        W30737   6.579   8.382   1.753  0.1654  0.0713 -0.0261
14929W        W30738   4.174  15.406   0.553 -0.1662  0.1049 -0.0133
14930W        W30739   2.321   5.287   1.284  0.0941 -0.0430 -0.0046
14931W        W30740  13.620  16.192  15.258 -0.0477  0.1850  0.1196
14932W        W30741  10.268   1.227   3.245 -0.0161  0.1538 -0.0682
14933W        W30742   2.896  13.630   3.733  0.1334  0.1272  0.1334
14934W        W30743  10.179   0.802   5.890 -0.0288 -0.1313  0.1210
14935W        W30744   8.838   3.475  15.175 -0.0719 -0.3270  0.0573
14936W        W30745  10.071  12.523   5.109  0.2418  0.2423 -0.0228
14937W        W30746   0.986  14.872   4.061  0.1589 -0.3410  0.0645
14938W        W30747   9.995  14.112  14.984  0.0442 -0.1918  0.0675
14939W        W30748   7.137   2.820   1.819 -0.1649 -0.0319  0.2324
14940W        W30749   7.393  18.204  15.015  0.2198  0.3542  0.0215
14941W        W30750   6.110   1.999  10.597 -0.1171 -0.2699 -0.1156
14942W        W30751   2.038  10.230  14.927 -0.1243  0.0361 -0.2872
14943W        W30752  16.774   1.443  15.891 -0.1603 -0.1741  0.0206
14944W        W30753  10.798  16.702   4.174 -0.0415  0.1975 -0.1818
14945W        W30754   0.529   3.349  11.163 -0.1087 -0.0776  0.2030
14946W        W30755   5.530   3.156  15.480  0.1332 -0.1436 -0.2245
14947W        W30756   4.656   1.909  13.506 -0.0373 -0.1001 -0.2617
14948W        W30757  17.758  11.370   4.172 -0.0870  0.0997  0.3348
14949W        W30758  13.290  15.189   4.150  0.1491 -0.1433  0.0299
14950W        W30759  12.572  17.820  12.803 -0.0236  0.3047 -0.1432
14951W        W30760   1.502   4.418  12.713  0.1347  0.4075  0.1498
14952W        W30761  11.572  15.722  13.487  0.0514  0.1522 -0.0573
14953W        W30762   3.502   3.384  15.848  0.1343 -0.2463 -0.0663
14954W        W30763   2.032  15.916  10.226 -0.1150  0.2555 -0.1865
14955W        W30764   8.723  14.088   2.849  0.3073 -0.2137  0.2703
14956W        W30765  17.693   2.657  11.936 -0.2386  0.1828  0.1703
14957W        W30766   8.855   6.697  12.929  0.2024  0.1202  0.1535
14958W        W30767  14.568   5.787   1.026 -0.1254 -0.0753 -0.2177
14959W        W30768  17.049  17.684   4.179  0.0127  0.1129 -0.0925
14960W        W30769  10.789  14.921   2.372  0.0000 -0.0015 -0.1108
14961W        W30770  11.205   8.671  12.984 -0.1167 -0.2061 -0.1346
14962W        W30771   0.451  11.604   3.064  0.2402 -0.0448  0.0188
14963W        W30772   3.389  14.049   1.010 -0.0408 -0.3111 -0.0015
14964W        W30773   9.604   6.252   3.064  0.0593 -0.1104  0.0831
14965W        W30774   3.506   2.105  13.279  0.2631 -0.0909  0.0470
14966W        W30775  12.027   5.334   5.071  0.1388  0.2159  0.0165
14967W        W30776   3.537   5.553  11.097 -0.0438 -0.0673 -0.2891
14968W        W30777   0.364   8.776  12.423  0.1367  0.0125 -0.2036
14969W        W30778   1.322  13.380  14.749  0.2165 -0.1643  0.2337
14970W        W30779  17.285   6.598   0.874 -0.0920  0.0747  0.1116
14971W        W30780  12.957  13.913   5.315  0.1369 -0.0104 -0.0270
14972W        W30781  16.707   8.648   1.862 -0.4080  0.1976 -0.2194
14973W        W30782  10.363  16.757  12.188 -0.0475  0.0258  0.0128
14974W        W30783   4.753  10.420  13.579 -0.2143  0.0276  0.1373
14975W        W30784   8.470  17.538  13.264  0.0906 -0.0058 -0.2728
14976W        W30785   3.112  14.040   3.925 -0.3724  0.1529 -0.1389
14977W        W30786   7.980  10.340  15.100  0.0619  0.3229  0.0581
14978W        W30787   5.891   5.237  12.619 -0.0696  0.3151 -0.1951
14979W        W30788  18.212   6.709  12.711 -0.0552  0.0145  0.3217
14980W        W30789   5.553   0.844   3.577 -0.1552 -0.1183  0.0641
14981W        W30790   2.051   9.716  13.650 -0.2979  0.0364 -0.1782
14982W        W30791   0.471   0.792   5.207 -0.1228  0.2675  0.1170
14983W        W30792   0.753  17.620  10.215 -0.0989  0.0734  0.0538
14984W        W30793   6.565   0.478  12.442 -0.2570  0.2220 -0.0722
14985W        W30794   8.726  11.835   1.820 -0.0987 -0.3914 -0.1948
14986W        W30795   9.222   5.283  13.102  0.0407 -0.0387  0.0421
14987W        W30796  12.052   5.663  12.848  0.0699  0.1312 -0.0106
14988W        W30797  10.765   7.070  14.842 -0.2872  0.1170 -0.0509
14989W        W30798   8.849  12.557  15.681 -0.1494  0.1255 -0.5185
14990W        W30799  16.020  12.666  10.763  0.1575 -0.1849 -0.2385
14991W        W30800   1.406  13.512   0.115 -0.0881  0.0090  0.0888
14992W        W30801  15.881  12.923   0.110 -0.0872  0.1311 -0.2117
14993W        W30802   5.339   1.865  14.042  0.1966  0.0686  0.0551
14994W        W30803  15.371   9.039   1.787  0.1019  0.1676 -0.0447
14995W        W30804  17.863  13.202   1.781 -0.1112 -0.2161  0.0705
14996W        W30805  15.824  12.892   4.071  0.1719  0.0796 -0.0176
14997W        W30806  11.828   6.068  12.997 -0.0491 -0.2648 -0.1757
14998W        W30807  13.563  17.588  14.831 -0.0702  0.0815 -0.0474
14999W        W30808   9.353  15.124   0.964  0.0395  0.1565 -0.1193
15000W        W30809  14.927   9.488   5.132 -0.2020 -0.2661  0.0284
15001W        W30810   7.769   9.115  14.072  0.0054  0.0071  0.1382
15002W        W30811   0.946  11.992   1.884  0.3064 -0.2346 -0.0009
15003W        W30812   8.670  10.652   1.493  0.1633  0.2262  0.0095
15004W        W30813  15.308   7.024  14.675  0.2898 -0.2016  0.0679
15005W        W30814   8.400  11.135   3.644 -0.2061 -0.2588 -0.0785
15006W        W30815  16.884  13.573  11.235  0.1805  0.0161  0.3036
15007W        W30816   8.405   1.603  11.536  0.1021  0.1599 -0.1199
15008W        W30817  14.290   9.180   2.400  0.3178  0.0808 -0.4232
15009W        W30818   8.745   8.810   5.147  0.2122 -0.2480 -0.1267
15010W        W30819   3.179  13.894   1.499 -0.2315  0.0926  0.0161
15011W        W30820   8.638   5.676   2.473 -0.1876  0.1713 -0.3008
15012W        W30821  15.380   1.273   1.400  0.3301  0.2346 -0.1900
15013W        W30822   7.787  12.750  13.827  0.2643 -0.0894 -0.2812
15014W        W30823  10.622  15.830  11.434 -0.2187  0.0162 -0.0521
15015W        W30824  13.728  13.355   4.859 -0.0088  0.0120  0.3278
15016W        W30825  11.923   9.179  14.588  0.0961 -0.0946  0.1814
15017W        W30826  12.684   9.079  12.274 -0.2438  0.0509 -0.1425
15018W        W30827  14.872   0.844  13.541  0.2781  0.0453  0.0034
15019W        W30828   6.943  12.595  12.526  0.6719 -0.1907  0.2043
15020W        W30829   3.775  12.068   1.955  0.1870  0.2045 -0.1873
15021W        W30830  13.698  13.153   4.387  0.1414 -0.0466 -0.0285
15022W        W30831  17.782  17.640   3.863 -0.0907 -0.0206  0.1530
15023W        W30832  14.842   8.080  13.687 -0.3127  0.2881  0.1953
15024W        W30833  14.576   2.463   3.030 -0.4059  0.0822 -0.3625
15025W        W30834  13.121   9.361   3.732 -0.1086  0.1668  0.2655
15026W        W30835  11.250  17.037   0.970 -0.1711 -0.0244  0.0704
15027W        W30836  17.123   4.036   3.667  0.2436 -0.0997 -0.0312
15028W        W30837  11.413  16.235  13.450 -0.0537 -0.0660 -0.0390
15029W        W30838  15.681   8.425   2.428  0.1249 -0.2166  0.0522
15030W        W30839  17.035  10.532  15.924  0.0569 -0.1785  0.1908
15031W        W30840   3.699  11.997   2.902  0.0333 -0.1607  0.0772
15032W        W30841  17.623   0.223  11.967  0.2819  0.3066 -0.0883
15033W        W30842  12.813   6.401   4.522 -0.2153  0.0883 -0.0556
15034W        W30843   1.887   7.060  14.020  0.0932  0.1877  0.0484
15035W        W30844  17.272   5.229   0.842  0.2821 -0.2118  0.1245
15036W        W30845   0.627   3.070  16.064 -0.1925  0.0133 -0.2413
15037W        W30846   9.906   8.040  15.495 -0.0872  0.0797  0.1066
15038W        W30847   9.032  16.229  13.079  0.4472 -0.1019 -0.4345
15039W        W30848   1.249  13.384  15.353  0.1367  0.1785  0.0926
15040W        W30849   7.841  16.984   5.079 -0.0154 -0.2131 -0.0080
15041W        W30850  17.896  16.159  15.618  0.1246  0.0633  0.2631
15042W        W30851  10.247  13.122   5.312  0.1385 -0.1699  0.1324
15043W        W30852  12.096   9.408  15.938 -0.2788  0.0036  0.3565
15044W        W30853   8.572   6.658   4.120 -0.1022  0.0536  0.0556
15045W        W30854  13.458   7.105  13.012  0.1992 -0.4008 -0.2320
15046W        W30855   5.950  15.376  14.361 -0.0955  0.0992  0.0141
15047W        W30856   1.211   5.395  11.133 -0.0680 -0.1695 -0.2114
15048W        W30857   7.753  14.859  13.257 -0.1681 -0.0231 -0.1140
15049W        W30858   5.206   2.902   3.369  0.1472 -0.0768  0.2176
15050W        W30859  14.262  17.525  14.331  0.1304 -0.0550  0.2264
15051W        W30860   6.329   8.845  14.983 -0.1035 -0.0593 -0.1143
15052W        W30861   1.791  16.711  14.887 -0.3643  0.0211 -0.2759
15053W        W30862  17.974   3.138  12.260 -0.0756  0.0577 -0.1279
15054W        W30863  16.098   4.482   2.522 -0.2540  0.2826 -0.1848
15055W        W30864  13.791   3.528   4.375 -0.0048 -0.2666 -0.0067
15056W        W30865   9.062   8.517  11.684  0.1786 -0.2752 -0.0505
15057W        W30866   5.021  17.176   5.781  0.0506 -0.2641 -0.2117
15058W        W30867  12.058   5.556  13.720 -0.1298  0.0744 -0.0288
15059W        W30868  11.957  12.289   9.956 -0.0750 -0.1901  0.1860
15060W        W30869  17.081  10.111   1.569  0.0215  0.4894  0.1422
15061W        W30870  14.698   3.751  16.049  0.5430  0.4389  0.0071
15062W        W30871   3.535   7.535  12.736  0.0921 -0.1275 -0.0611
15063W        W30872  12.549  10.348  13.303 -0.0893  0.0322  0.0182
15064W        W30873  16.185  16.877  14.973 -0.0690  0.0586  0.0181
15065W        W30874   2.089   8.833   5.188  0.3212 -0.1447  0.0691
15066W        W30875   6.113   3.924   2.390  0.0176 -0.0686 -0.1995
15067W        W30876  12.838   1.130   0.922 -0.0325 -0.0794  0.2024
15068W        W30877  13.456   9.315   4.208  0.1692 -0.1620 -0.0178
15069W        W30878  14.541   6.553   1.481 -0.0048  0.0520  0.1267
15070W        W30879  15.475   7.920   2.516  0.2022  0.4464 -0.0798
15071W        W30880   0.278   1.591   4.585  0.1248  0.1866 -0.1546
15072W        W30881  15.714  18.083  12.206 -0.0127 -0.1252 -0.1860
15073W        W30882   9.162   2.515   4.078 -0.3016  0.1079 -0.0337
15074W        W30883   6.809  10.783   5.360 -0.1272  0.0083  0.2138
15075W        W30884   3.073  11.614   2.292 -0.0301 -0.2862 -0.2761
15076W        W30885  14.999  17.285   1.860  0.0152 -0.4320  0.0990
15077W        W30886   4.530  17.796  11.544 -0.1145 -0.1207 -0.2783
15078W        W30887  15.052   0.257   2.022  0.3561  0.0372  0.1419
15079W        W30888   6.145  17.175   3.965 -0.0013 -0.1733 -0.1429
15080W        W30889   7.368   2.013  11.098 -0.1707 -0.1694  0.2623
15081W        W30890  10.061   4.382  15.276 -0.0743  0.1954 -0.0919
15082W        W30891  15.775  13.300   1.061  0.2270  0.0061  0.0574
15083W        W30892  14.591   1.975  14.661  0.0592 -0.1247  0.2573
15084W        W30893   9.764   6.595   2.681  0.0148 -0.0682  0.0102
15085W        W30894   2.360   6.009   0.421  0.0746 -0.1159  0.3389
15086W        W30895  15.286  11.004   3.093 -0.2103  0.2849 -0.4182
15087W        W30896  12.082   3.639  14.873 -0.1278 -0.1493  0.1337
15088W        W30897   9.034  12.447   3.390 -0.0075 -0.2536 -0.1061
15089W        W30898   0.023  10.442  14.134 -0.1938 -0.1576 -0.1450
15090W        W30899   8.410  17.716  14.258 -0.3952  0.0736  0.2302
15091W        W30900   4.977   0.564  15.655 -0.0135  0.0160  0.0171
15092W        W30901   6.602   8.892   2.861  0.0315 -0.0505 -0.1980
15093W        W30902  10.793   0.925  14.343 -0.1287  0.2650  0.1553
15094W        W30903   2.896   6.817  14.430 -0.1626  0.0968 -0.2524
15095W        W30904  11.484  10.864  11.807  0.3080 -0.3232  0.0647
15096W        W30905   6.267   2.843   4.204 -0.1519 -0.0232  0.0758
15097W        W30906   8.058   5.144   3.568 -0.1033  0.1571 -0.1906
15098W        W30907   5.383  12.719   0.478  0.2294  0.0673  0.0234
15099W        W30908  13.804   1.383  11.916 -0.3143  0.1646 -0.0926
15100W        W30909   1.610  14.784   3.060  0.2194  0.0269  0.1653
15101W        W30910  11.488   4.477   3.618 -0.1562  0.0075  0.0639
15102W        W30911   7.697  11.868  14.613  0.1135  0.2772 -0.0358
15103W        W30912  16.799  14.398  11.021 -0.1351  0.3092 -0.2329
15104W        W30913  14.077   6.248  15.148 -0.0780 -0.2778  0.2273
15105W        W30914   1.741  16.479  15.487  0.2271  0.1801  0.2222
15106W        W30915   6.311  17.837  15.957  0.1019 -0.1203  0.0223
15107W        W30916  16.482  13.808   5.130  0.2198  0.1848  0.3539
15108W        W30917  10.697  16.348   5.670 -0.3645 -0.0820  0.0421
15109W        W30918   9.325   8.267   1.072 -0.1733  0.2895 -0.0049
15110W        W30919  18.099   2.739  13.386 -0.2357  0.2036  0.3943
15111W        W30920   8.914   5.878  12.526 -0.0520  0.2396  0.3469
15112W        W30921   7.461   6.950  15.520  0.2519 -0.2120  0.0595
15113W        W30922   7.778  10.333  11.720  0.1842  0.1928 -0.1425
15114W        W30923  14.644   9.216  12.629 -0.2862 -0.2508  0.0014
15115W        W30924  16.388   3.754  15.962 -0.0873 -0.0774  0.0209
15116W        W30925   8.182  10.713   1.539  0.1394 -0.0276  0.1727
15117W        W30926  14.393   8.104   3.156  0.0826 -0.0290 -0.1616
15118W        W30927   6.617   0.426   1.500 -0.0770 -0.3426  0.1712
15119W        W30928  17.765   4.662   4.070  0.0132  0.2697 -0.1534
15120W        W30929  16.720  10.194  10.489 -0.1844  0.1387  0.3300
15121W        W30930   6.142  17.268   3.499  0.0540 -0.0099  0.0639
15122W        W30931   9.239  11.870  11.851 -0.0642 -0.0804 -0.2064
15123W        W30932  15.231   8.518   0.137  0.0259 -0.0900  0.3278
15124W        W30933   4.021   6.036   3.515 -0.1216  0.0485  0.1508
15125W        W30934  14.123  16.415   3.307  0.1262  0.0728 -0.0340
15126W        W30935   7.861  15.569  15.343 -0.2318  0.0131  0.0295
15127W        W30936   0.399   6.474  12.889 -0.1037 -0.2248  0.1424
15128W        W30937   4.872  16.112  12.615  0.4301  0.1565  0.2179
15129W        W30938   2.197   4.810  10.704  0.1159 -0.1012 -0.1042
15130W        W30939  16.630   1.403   1.281 -0.1809 -0.0137 -0.1681
15131W        W30940   1.055  15.552  11.642  0.1706 -0.1146 -0.0637
15132W        W30941   9.722   5.144   4.965 -0.1736 -0.2951 -0.0371
15133W        W30942   4.355   0.252   4.904  0.0314 -0.1975 -0.2188
15134W        W30943   8.843   8.314   1.416  0.4028 -0.2673  0.0796
15135W        W30944   5.978  12.724  12.683 -0.2099  0.0929  0.1495
15136W        W30945   3.258  16.312  15.768 -0.0356 -0.0672  0.2985
15137W        W30946  11.148   0.994   0.037  0.1263 -0.1966  0.0472
15138W        W30947   7.516  11.780  13.457 -0.0882  0.2662 -0.0804
15139W        W30948  15.252   0.491  10.531 -0.0803  0.0023  0.3065
15140W        W30949  16.573   0.849  13.880  0.1541 -0.1130 -0.1020
15141W        W30950   4.398   9.072  13.592 -0.0856  0.2072 -0.1357
15142W        W30951  18.090   7.181  11.465 -0.4820  0.2016  0.2324
15143W        W30952   3.533   5.837   2.132  0.1584  0.5328 -0.3804
15144W        W30953  17.378  10.962   2.917  0.0074  0.0899  0.0340
15145W        W30954  12.207   7.999  15.224 -0.1070  0.1088  0.0815
15146W        W30955   0.364   7.913  12.767  0.2971  0.0725  0.0677
15147W        W30956  12.699  17.542   5.096  0.1343  0.1824 -0.3276
15148W        W30957  16.193  13.116   0.492  0.0100 -0.2631 -0.0219
15149W        W30958  14.561   3.147   4.052 -0.0957 -0.0737 -0.0595
15150W        W30959   7.878   4.847  11.453  0.1675  0.1104 -0.0492
15151W        W30960  14.867   2.593   2.631 -0.4037 -0.0382  0.0809
15152W        W30961   3.897  15.430  14.294  0.1873  0.1127 -0.1068
15153W        W30962  16.020   2.480  12.992 -0.2891 -0.1837  0.2100
15154W        W30963  15.484  14.723  15.518 -0.2065  0.0457  0.0889
15155W        W30964  11.537  14.305   2.900 -0.0716  0.1580  0.1545
15156W        W30965   8.046  11.610  13.277  0.1014  0.0313 -0.0260
15157W        W30966  10.762   9.227   2.703 -0.0102 -0.0796 -0.0255
15158W        W30967   7.733  16.092   3.576 -0.0655  0.1659 -0.3289
15159W        W30968   4.285   7.143  13.199  0.4612 -0.0759 -0.0735
15160W        W30969   0.983   6.591   6.554 -0.0718 -0.0712 -0.0900
15161W        W30970   1.221  11.170  13.984 -0.2259 -0.0129  0.1558
15162W        W30971  12.073  12.876   0.460  0.0904 -0.0789 -0.0057
15163W        W30972  10.539   9.434  15.498 -0.2336 -0.1545 -0.1451
15164W        W30973   0.565   3.156  12.707  0.0426 -0.2773 -0.0170
15165W        W30974   5.408  14.755  12.206  0.0029  0.2532  0.0372
15166W        W30975  12.095   3.889  15.487  0.0590 -0.0975 -0.1042
15167W        W30976  17.696   0.899   2.051 -0.1028  0.0009  0.1857
15168W        W30977   0.915  10.099   0.014 -0.2037 -0.0970  0.3533
15169W        W30978  17.182   6.107   5.651 -0.2098  0.2535  0.0446
15170W        W30979  16.450  13.185  11.766  0.1967  0.0921 -0.0035
15171W        W30980   1.344   6.202   3.482  0.0585 -0.3157 -0.0376
15172W        W30981   8.508   6.261   2.038 -0.0460 -0.0989  0.0557
15173W        W30982  15.560  16.456  11.752  0.2451 -0.1055 -0.0914
15174W        W30983   2.987   7.733   1.728 -0.0476  0.0464 -0.0082
15175W        W30984  10.073  15.011  14.470  0.0016  0.1524 -0.1030
15176W        W30985   0.774   7.516  11.028 -0.1354  0.1524  0.0515
15177W        W30986   9.299   1.291   4.091  0.0512  0.5797  0.0410
15178W        W30987   9.670   8.755   0.129  0.2011 -0.0062 -0.0662
15179W        W30988   6.506   6.218  12.183  0.0631  0.0158  0.2440
15180W        W30989   5.325   7.380   1.891  0.3453 -0.0830  0.1821
15181W        W30990  10.533  11.200  15.764  0.1280 -0.3027  0.2108
15182W        W30991  15.035  11.865   3.072  0.0689 -0.2457  0.0768
15183W        W30992   1.927  14.513   4.404  0.1163 -0.0654 -0.1354
15184W        W30993   0.361  15.121  14.500 -0.0890 -0.2491 -0.0097
15185W        W30994  14.265  11.024  15.423 -0.0718  0.3436 -0.0182
15186W        W30995  16.211  16.466  15.925  0.0405  0.3821 -0.0695
15187W        W30996  10.694   0.335   0.102  0.1887  0.0278 -0.2196
15188W        W30997  10.035   4.002   0.037 -0.0658  0.0219 -0.0387
15189W        W30998  18.160  17.978   5.624 -0.0999  0.0373 -0.3310
15190W        W30999   6.486   5.789  14.032 -0.1690  0.0307 -0.0689
15191W        W31000   0.745  12.462  12.683 -0.0881 -0.3288 -0.1781
15192W        W31001  15.035   4.979   3.436  0.0202 -0.3168 -0.0307
15193W        W31002   6.790  12.864   1.270 -0.0654 -0.2128  0.1853
15194W        W31003   9.649  14.954  15.272 -0.3056  0.0285 -0.0760
15195W        W31004   9.365  16.370   2.713  0.1216  0.0831 -0.0478
15196W        W31005  12.497  18.162   0.719  0.2937 -0.1802  0.0320
15197W        W31006   0.527   1.990   4.428 -0.3176  0.0434  0.0689
15198W        W31007   1.637   0.230   0.213  0.0826  0.1180 -0.0150
15199W        W31008  10.292   4.382   2.938 -0.2381  0.0964  0.1019
15200W        W31009   7.918  13.232  13.858  0.0945  0.2823  0.3655
15201W        W31010  10.654  15.760  15.690  0.0542  0.0559  0.1498
15202W        W31011   9.165  11.617   1.945 -0.1895 -0.1853  0.1189
15203W        W31012  10.422   7.913  14.281 -0.2525  0.1765 -0.0150
15204W        W31013  16.828  17.889   2.017  0.1387  0.2484  0.1116
15205W        W31014  12.050  11.698   2.152  0.2543 -0.1503 -0.1301
15206W        W31015  10.865  13.244   1.986 -0.0951 -0.0496 -0.1463
15207W        W31016  13.862   1.545  12.661  0.1169 -0.0770 -0.3865
15208W        W31017  12.258  16.043   3.507  0.1580 -0.1879 -0.0746
15209W        W31018  13.492   8.440   2.948  0.0078  0.0489  0.1089
15210W        W31019   0.602  14.089   1.730  0.2532  0.0084  0.0594
15211W        W31020  15.494   7.914   1.982  0.1447  0.2160 -0.2464
15212W        W31021   9.145  16.543  15.593 -0.0969 -0.0267 -0.4733
15213W        W31022  16.364   6.892   5.024 -0.0074  0.2797  0.0612
15214W        W31023  10.530  17.834  11.943  0.0547  0.3570 -0.2933
15215W        W31024   9.199  12.203   4.773  0.1418  0.1283  0.1761
15216W        W31025   2.234   9.948   1.137 -0.1032  0.1994  0.0925
15217W        W31026   7.597  11.075   4.658  0.3589 -0.1298 -0.2775
15218W        W31027   3.033   1.156  14.297  0.0289 -0.0252 -0.2242
15219W        W31028   0.254  16.862   1.192  0.2367  0.3510 -0.0346
15220W        W31029  16.392  15.119   2.490 -0.0683  0.0365  0.3929
15221W        W31030   4.968   2.577  13.355  0.0631 -0.1468  0.2499
15222W        W31031   9.508  16.266  12.882  0.0066 -0.3643 -0.3314
15223W        W31032   6.091  11.590  14.891 -0.0869  0.1281 -0.0450
15224W        W31033   2.038   6.968  15.463 -0.1633 -0.3875 -0.0300
15225W        W31034   8.907   7.370   0.540  0.1708  0.3926  0.1811
15226W        W31035  14.607  17.867   1.405 -0.0200 -0.1028 -0.2525
15227W        W31036  11.772   0.069  11.778 -0.0750 -0.0824 -0.1875
15228W        W31037  14.517  17.206   3.529  0.0132 -0.3213  0.1154
15229W        W31038  10.158  17.444  14.988 -0.0529  0.0626 -0.1661
15230W        W31039  17.089  15.622  15.597  0.0471  0.0521 -0.0220
15231W        W31040   0.428   4.329   2.843  0.3125 -0.0378  0.0073
15232W        W31041  16.323   4.221  14.840 -0.0059  0.0416 -0.0185
15233W        W31042  13.980  18.013  15.389  0.4236 -0.0137  0.0558
15234W        W31043  13.776   2.153  14.802  0.0460 -0.0465  0.3649
15235W        W31044  17.851  15.265   4.916  0.2668 -0.2967  0.0153
15236W        W31045  11.325  17.889   1.511 -0.1183 -0.1934  0.1063
15237W        W31046  10.415  10.592   2.084  0.1376  0.1133  0.0076
15238W        W31047   1.450  15.301  13.546 -0.3120  0.0470 -0.0645
15239W        W31048   1.969   7.557   4.924 -0.1649  0.0173  0.0811
15240W        W31049  13.872   3.495   3.588 -0.0863  0.1884  0.0722
15241W        W31050   8.102  13.591  16.053 -0.0706 -0.2717  0.0309
15242W        W31051   3.178  15.761  14.088 -0.0618  0.1821 -0.2038
15243W        W31052  13.079   5.151   5.628  0.4467 -0.3718 -0.0556
15244W        W31053   3.146   6.267   3.486  0.0241 -0.2118 -0.1636
15245W        W31054  15.329   4.205   5.962 -0.1774  0.4086 -0.1430
15246W        W31055   6.646  14.142   0.729 -0.0651 -0.0251 -0.4449
15247W        W31056   4.670  15.087   2.875  0.1273  0.0298  0.1846
15248W        W31057   9.710   1.445  13.444 -0.2259  0.1326 -0.0701
15249W        W31058   1.587   6.211   2.599  0.0988  0.2197 -0.0698
15250W        W31059   9.478  16.490  15.237  0.1504  0.1604 -0.1673
15251W        W31060   5.826  15.232  13.085 -0.3078  0.2076 -0.2195
15252W        W31061   4.093   4.255  12.329  0.0936  0.1253 -0.1710
15253W        W31062  15.732  15.013   4.717  0.3940  0.1259  0.2063
15254W        W31063   1.711   1.266   0.315 -0.2382 -0.1878  0.0929
15255W        W31064   6.636  12.808  11.376  0.0255 -0.0521 -0.0277
15256W        W31065  12.533   1.061   5.662  0.1575  0.2897 -0.3710
15257W        W31066   3.692   5.064  12.187 -0.0228  0.1506  0.0602
15258W        W31067  13.574   1.920   2.452  0.3496  0.0449 -0.0836
15259W        W31068   9.124   7.123  13.646 -0.1746  0.1849  0.1623
15260W        W31069   2.266   8.687   2.543  0.2479 -0.0279 -0.1261
15261W        W31070   6.864   4.103   4.196 -0.3072  0.2672  0.1388
15262W        W31071   2.095   0.177  10.497 -0.0723 -0.0055  0.0107
15263W        W31072   6.401  15.945   2.247  0.0432 -0.0430 -0.0690
15264W        W31073  13.504   3.689   5.729 -0.0239  0.2116 -0.2823
15265W        W31074  13.276  13.981  13.716 -0.1766 -0.0830 -0.1241
15266W        W31075  15.328   1.653  12.836  0.0866 -0.1686 -0.2528
15267W        W31076   9.298   4.560  14.141  0.1166  0.2270 -0.1768
15268W        W31077  11.026   5.218   3.987 -0.0132 -0.1794 -0.2519
15269W        W31078  10.988  11.129   2.628 -0.1316 -0.0329  0.0645
15270W        W31079   6.129   8.631   0.928 -0.1921  0.3340 -0.1316
15271W        W31080   5.987  17.517  12.228  0.0370 -0.0092  0.0200
15272W        W31081  14.292  10.790   5.659  0.0651  0.1479  0.0353
15273W        W31082  16.518  13.117  13.008  0.0416 -0.0291 -0.0726
15274W        W31083   3.348   2.767   3.875 -0.3765 -0.2598  0.0771
15275W        W31084  15.736  11.841  12.905 -0.1790 -0.1043 -0.0032
15276W        W31085   1.738   9.318  15.084 -0.0740  0.3138 -0.2453
15277W        W31086   2.988  14.868   3.625 -0.3191  0.1250  0.2324
15278W        W31087  14.352   5.033   1.789  0.2070 -0.2568 -0.2123
15279W        W31088  14.180   1.087   3.459  0.1430 -0.2521 -0.0080
15280W        W31089   8.029   3.199   4.551  0.2030  0.0238 -0.0326
15281W        W31090   9.893   4.717  15.597  0.0957 -0.2503  0.6110
15282W        W31091   9.990  16.211   0.437  0.0080 -0.0564 -0.1026
15283W        W31092  16.506   0.319   2.172 -0.1421 -0.0173 -0.0523
15284W        W31093  17.857   7.385  15.985  0.1371 -0.0352  0.0388
15285W        W31094   6.681   8.842  15.893 -0.1298 -0.0308  0.1173
15286W        W31095   7.423  13.749  12.841  0.0008  0.0629  0.1598
15287W        W31096   3.403  16.307   1.563  0.0780  0.1043 -0.1297
15288W        W31097   9.165  10.181   3.528 -0.1045  0.2331 -0.1346
15289W        W31098   4.124   8.334  14.844 -0.0187  0.0116 -0.0453
15290W        W31099  16.566   5.524  11.825  0.1446  0.1384  0.1075
15291W        W31100   5.801   1.837  15.767 -0.2410 -0.1544  0.1080
15292W        W31101   3.306   8.837  14.602 -0.0615  0.1221 -0.2027
15293W        W31102   9.412  11.000   3.719  0.0363  0.0541  0.0880
15294W        W31103   4.190  17.503   1.404  0.0423 -0.1634  0.0963
15295W        W31104   5.503   0.489   4.186 -0.1966 -0.0495 -0.1197
15296W        W31105   8.020  15.410   4.228  0.0819  0.0042 -0.0318
15297W        W31106  13.430  13.611  15.470  0.2473  0.3999  0.1559
15298W        W31107  14.132  16.748  14.839 -0.0981 -0.0960 -0.0619
15299W        W31108  14.402   1.205   4.382 -0.0172  0.2415  0.1102
15300W        W31109  14.156   4.734  10.487  0.1855 -0.3606  0.0259
15301W        W31110  14.892   3.333  12.082 -0.0122  0.0048 -0.2308
15302W        W31111  13.078  16.524   1.214  0.0288  0.1620  0.0936
15303W        W31112   3.255  15.837   3.580  0.0795 -0.3116 -0.1630
15304W        W31113  12.821  11.953   1.070  0.4771 -0.0123  0.1806
15305W        W31114  16.473  12.252   1.182 -0.3324  0.3067  0.0029
15306W        W31115   1.296   5.901  11.018 -0.1221  0.1067 -0.1398
15307W        W31116  12.856  14.148  14.107  0.3246  0.3444  0.2461
15308W        W31117   8.433  14.442   2.074  0.1357 -0.1066 -0.2559
15309W        W31118   8.710   5.204   2.045 -0.1527 -0.1201 -0.2866
15310W        W31119  18.024   9.370  11.017  0.0563  0.2427 -0.1157
15311W        W31120  17.109  11.986   0.585  0.1205  0.0598 -0.0100
15312W        W31121  15.991   4.600  14.139 -0.0927  0.2487 -0.1296
15313W        W31122  14.707   3.298   3.011  0.2469 -0.1012 -0.0310
15314W        W31123  12.525   6.993   2.819 -0.0144 -0.0910  0.2604
15315W        W31124   1.190   6.641  14.378 -0.0294 -0.0391  0.3643
15316W        W31125   3.103  11.666   2.824  0.0861  0.1028 -0.2816
15317W        W31126   5.807  17.971   3.962  0.0914 -0.0230 -0.3120
15318W        W31127   6.444   6.230   4.768 -0.0723 -0.0902  0.1818
15319W        W31128   7.183  11.377  13.314 -0.0547  0.0264 -0.1071
15320W        W31129  10.971   6.151   2.790 -0.0278 -0.0106  0.0499
15321W        W31130  17.902  16.506   0.997 -0.3242  0.2657 -0.0943
15322W        W31131  16.288  13.033  12.442 -0.0655  0.2061 -0.1948
15323W        W31132  11.659  10.683  15.178 -0.3951 -0.3412  0.1905
15324W        W31133   2.485   3.873  15.591  0.2021 -0.2011  0.0306
15325W        W31134   3.752  13.654  12.931 -0.0667 -0.0449 -0.1927
15326W        W31135   2.608  13.140  13.589  0.1568  0.1794  0.2186
15327W        W31136   5.709  13.904   0.476  0.2698 -0.0975 -0.2545
15328W        W31137  11.265  17.549   3.956  0.1855 -0.0303  0.0297
15329W        W31138  10.717  10.416   0.293  0.1030  0.0922  0.1455
15330W        W31139   3.730   8.637  15.475  0.1414 -0.2304 -0.0408
15331W        W31140   6.546   6.061   0.868  0.0266 -0.0557  0.1540
15332W        W31141  16.890   7.007   0.875 -0.1619 -0.0813 -0.0464
15333W        W31142   4.909   3.523  13.039  0.0390  0.2880  0.1156
15334W        W31143   0.492  17.531   4.875 -0.1764 -0.0875  0.0497
15335W        W31144  13.557  12.386  14.941 -0.0262 -0.1634 -0.0892
15336W        W31145  10.623   8.359   0.955  0.1954 -0.1687  0.2509
15337W        W31146  16.689  11.085   3.480  0.3059  0.0691  0.1254
15338W        W31147  15.664  17.163   4.348 -0.0801  0.0634 -0.0696
15339W        W31148  12.656  16.092  11.750  0.0694  0.1393 -0.0681
15340W        W31149   5.996  13.777  14.740  0.1227 -0.1189 -0.2022
15341W        W31150   5.764  14.031   2.927 -0.0115  0.1167  0.0087
15342W        W31151  15.258  16.355   3.290 -0.1616  0.0305 -0.0326
15343W        W31152   9.083   9.234  14.375  0.0905  0.0451  0.2570
15344W        W31153  12.940   6.946  11.779 -0.2494 -0.1623  0.0965
15345W        W31154   7.555   8.935  11.393  0.2880 -0.1626  0.1118
15346W        W31155  13.868   3.129   3.203  0.1155 -0.0859  0.0888
15347W        W31156   9.706  17.176   5.938 -0.1808 -0.2531 -0.0994
15348W        W31157  12.552   8.730  12.668 -0.0628 -0.4868  0.0370
15349W        W31158   6.865   5.868  13.447  0.0257  0.0891 -0.4684
15350W        W31159  13.132  16.030  11.518 -0.1683  0.1141 -0.1466
15351W        W31160   7.554   0.020   1.552 -0.1787  0.1565 -0.2576
15352W        W31161   8.464   0.130  11.573 -0.2244 -0.1052  0.0344
15353W        W31162  12.242   1.969   2.513  0.1832  0.1444  0.0674
15354W        W31163   6.564  10.787   1.555  0.1999 -0.2153 -0.3325
15355W        W31164   5.263  10.035   2.260  0.0139 -0.1171 -0.1173
15356W        W31165   9.766   7.097   0.554  0.0704 -0.1393  0.4205
15357W        W31166   5.766  13.534  13.168  0.0347  0.0060 -0.3329
15358W        W31167   9.336   2.748  11.294 -0.2273  0.0624 -0.3070
15359W        W31168   4.908   1.984   2.230 -0.0830 -0.0738 -0.2503
15360W        W31169  11.626   5.536  11.809  0.0128 -0.4030  0.2520
15361W        W31170   0.252  18.221  14.336  0.2013  0.1397 -0.0405
15362W        W31171  14.822  14.825   3.719  0.0184  0.1148 -0.0169
15363W        W31172   9.688  11.932   0.094  0.1848  0.1175  0.1665
15364W        W31173  12.469   1.822   2.935 -0.1078  0.0144  0.1545
15365W        W31174   1.748  17.290   2.618  0.1453  0.0865 -0.0115
15366W        W31175  15.069   4.505   0.727  0.0719 -0.0901 -0.1501
15367W        W31176   5.488  17.270   4.505 -0.0357  0.0664  0.0769
15368W        W31177  14.586  13.217   4.205 -0.0494 -0.0139 -0.2432
15369W        W31178  18.060  11.770  10.611 -0.0779 -0.3243  0.0606
15370W        W31179  15.715   3.827   1.537  0.0689  0.0940  0.2952
15371W        W31180  14.864  10.362   0.243 -0.2138 -0.1031  0.0714
15372W        W31181  10.146   5.879  15.103 -0.0079 -0.0457  0.3013
15373W        W31182  15.597  11.077   2.706  0.4198 -0.2215  0.1278
15374W        W31183   6.798  11.883  12.780  0.1865  0.0411  0.3322
15375W        W31184   7.273  15.344  16.028  0.2515  0.0054 -0.2004
15376W        W31185  12.903   4.000  14.993 -0.2615  0.0967  0.1380
15377W        W31186   1.136   2.161  15.342 -0.0499  0.1160  0.0909
15378W        W31187  12.464  11.228   3.990 -0.0448 -0.1482 -0.0016
15379W        W31188  10.366  12.968  15.774  0.2405  0.5622 -0.0730
15380W        W31189  10.563  12.204   4.303  0.1980  0.0401  0.1039
15381W        W31190   9.333   6.752  12.221  0.1554 -0.0053 -0.0739
15382W        W31191   4.530  17.248  13.022 -0.0399 -0.0146 -0.3047
15383W        W31192   3.063   9.509   2.271  0.1842 -0.1402  0.2505
15384W        W31193   0.756  17.675  15.685  0.2078  0.0745 -0.0544
15385W        W31194  14.469   8.767   6.226 -0.1411 -0.2555  0.0910
15386W        W31195  15.241  11.780   4.428 -0.2798 -0.0567 -0.0038
15387W        W31196  16.993  10.837   0.374 -0.0707  0.2132 -0.0869
15388W        W31197  15.903  10.206   0.162  0.1091  0.0875 -0.2104
15389W        W31198  11.624  14.341  13.557  0.1838 -0.1346  0.1056
15390W        W31199   5.200  10.189   3.158  0.0063 -0.3556  0.2707
15391W        W31200  10.158  16.194   1.300 -0.0837 -0.0394 -0.0144
15392W        W31201   2.182  16.354  14.094 -0.0496  0.3020  0.1829
15393W        W31202  12.521   2.137   4.150  0.1194  0.3056  0.0791
15394W        W31203  13.944   4.663  15.100  0.1054 -0.1743 -0.0117
15395W        W31204  12.176  11.344  15.463 -0.1890 -0.0472 -0.0345
15396W        W31205   8.453  10.057  13.313  0.1126 -0.0153 -0.1770
15397W        W31206  16.436   9.100   0.655  0.2495  0.1402 -0.3003
15398W        W31207   6.141   7.261  10.220  0.0645  0.1751  0.0277
15399W        W31208   2.646   9.352  12.663 -0.1458  0.1708  0.0245
15400W        W31209   3.637  12.232   4.981 -0.0511 -0.0003 -0.0227
15401W        W31210  15.608  15.536   2.582 -0.0433 -0.1120 -0.0979
15402W        W31211  10.209  15.490  13.227 -0.0980 -0.0613 -0.2327
15403W        W31212   6.489   4.077  11.840 -0.0548 -0.0164  0.5231
15404W        W31213  12.579   1.695  13.157  0.1611 -0.0245  0.1873
15405W        W31214   1.526   5.411  15.912 -0.1949 -0.2081  0.1872
15406W        W31215   9.378   0.149   3.899  0.1563  0.2203 -0.0068
15407W        W31216   2.798  11.478  10.539  0.0644  0.3369 -0.2864
15408W        W31217  17.333   7.799  12.119 -0.2425  0.1087 -0.0684
15409W        W31218   8.857  18.144  13.529 -0.0940  0.0388  0.3734
15410W        W31219  11.051  12.475  11.727  0.0449  0.1036 -0.1252
15411W        W31220   5.843   8.658  10.624  0.2683 -0.0051  0.2830
15412W        W31221   6.463   7.157  13.417 -0.2181  0.0481  0.1834
15413W        W31222  12.980  17.472  15.611  0.1726 -0.2155 -0.0582
15414W        W31223   8.032   9.892   3.194  0.2379 -0.0127 -0.4378
15415W        W31224   3.155   6.307  10.769 -0.1873  0.2180  0.1465
15416W        W31225   7.537  11.680   1.948  0.1812  0.0267 -0.1156
15417W        W31226  17.576  15.512  13.944 -0.2287 -0.3544 -0.0269
15418W        W31227   1.209   5.403   5.060 -0.2653  0.0090 -0.1836
15419W        W31228  12.412   5.076   4.343  0.0090  0.0415  0.2851
15420W        W31229   5.358  15.642  14.988 -0.0616  0.0595  0.1013
15421W        W31230  17.034   6.909  14.412 -0.0487  0.0400 -0.2675
15422W        W31231  11.531  16.416  12.613 -0.0177  0.2449  0.0836
15423W        W31232  17.409  16.580   0.783 -0.0126  0.2914  0.0465
15424W        W31233   2.613  16.270   1.729 -0.0077 -0.2508 -0.0654
15425W        W31234   2.995  16.423   2.992 -0.0307  0.1574  0.0461
15426W        W31235   6.266   9.479   2.771  0.1712 -0.1583  0.1549
15427W        W31236   5.247  12.099   1.215 -0.4277  0.0845 -0.1573
15428W        W31237   9.719   8.397   1.364  0.1197  0.1503 -0.2265
15429W        W31238   5.504   7.860  10.901  0.2938  0.1327  0.0700
15430W        W31239   5.684  14.708  14.983 -0.2031 -0.0928  0.3217
15431W        W31240  15.612   9.878   0.513 -0.1405 -0.2653  0.3407
15432W        W31241   0.366  12.542   3.672 -0.0087 -0.3516  0.1016
15433W        W31242  14.069  12.593  13.025  0.0219  0.0936 -0.2873
15434W        W31243   3.273  11.075   3.919 -0.3168 -0.1326  0.0552
15435W        W31244   4.466  14.573   3.544 -0.3146 -0.0312 -0.1656
15436W        W31245  17.017   3.947  11.316  0.0603 -0.0141 -0.4031
15437W        W31246  10.864   0.953  14.851  0.3077  0.0310  0.0198
15438W        W31247   6.167   7.205   1.965  0.0334  0.0010 -0.0559
15439W        W31248   7.986   9.154  13.278 -0.0855  0.0143 -0.0839
15440W        W31249   0.188  15.349   5.828 -0.0707 -0.0619  0.2196
15441W        W31250  18.016  10.907  11.448  0.1123  0.1629  0.3496
15442W        W31251   5.741   4.369  11.943 -0.1770 -0.1229  0.0834
15443W        W31252  14.063   5.566   6.229 -0.1829  0.1883  0.3391
15444W        W31253  10.438   8.875  10.973 -0.1748 -0.1148  0.1015
15445W        W31254  11.355   0.538  13.947 -0.1961 -0.0370  0.2058
15446W        W31255  15.057   3.175   2.663  0.0301  0.1430 -0.2140
15447W        W31256  16.760   3.276   1.212  0.0443  0.0316 -0.0794
15448W        W31257   3.218  17.887  11.845 -0.0100 -0.0375 -0.1405
15449W        W31258   6.728   1.279   4.626 -0.1259 -0.0255  0.1767
15450W        W31259   5.495  14.557  13.191  0.0376  0.2433  0.1534
15451W        W31260  13.550   5.796   0.252 -0.1577 -0.1889  0.1153
15452W        W31261   5.219   1.241   3.371  0.1393 -0.1534  0.0382
15453W        W31262  14.981  16.995  15.623  0.4957 -0.1922  0.0102
15454W        W31263   3.299  10.892  10.249  0.1440 -0.3327 -0.0417
15455W        W31264  14.203  12.452   0.762 -0.0249 -0.1739 -0.0114
15456W        W31265   1.400  16.698   4.746  0.0891  0.3577 -0.2163
15457W        W31266   7.347   0.820   5.491 -0.1172 -0.2084  0.1198
15458W        W31267   6.268  16.507  15.207 -0.0281 -0.0675  0.0357
15459W        W31268   8.726  15.932   4.912 -0.1894 -0.1864 -0.0848
15460W        W31269  17.606   5.774   1.514  0.0199  0.1791 -0.0241
15461W        W31270   3.717   9.039  11.680  0.2946 -0.0204 -0.0348
15462W        W31271   2.358   5.474   0.810 -0.1844  0.0012 -0.2489
15463W        W31272   3.211  17.913   5.213 -0.0509  0.1585 -0.1247
15464W        W31273  10.285  17.173   5.305  0.1121  0.0007  0.1709
15465W        W31274  15.035   9.267   1.469  0.0180 -0.1121 -0.0002
15466W        W31275   6.271   7.829   3.863 -0.1772  0.0588 -0.2349
15467W        W31276  15.305   4.024   1.358 -0.3002  0.1366  0.2144
15468W        W31277  11.599  10.163   5.588  0.0003  0.1192 -0.0124
15469W        W31278   0.821  12.009  12.890  0.2880  0.0133  0.0101
15470W        W31279   2.106  14.036   3.956 -0.3495  0.3095 -0.0316
15471W        W31280  14.595   7.346  14.881  0.0365  0.1890 -0.0662
15472W        W31281  11.526  12.405   0.745 -0.0542 -0.0286 -0.3047
15473W        W31282  14.576   2.734   5.019 -0.0354  0.2810 -0.0737
15474W        W31283   6.454   0.725   2.422 -0.0688 -0.0235  0.0139
15475W        W31284  15.230  15.024   4.790 -0.1584 -0.0393  0.1804
15476W        W31285   1.581   2.938  11.768 -0.1869 -0.0038  0.0284
15477W        W31286   8.499  17.032  11.202 -0.0426 -0.2090 -0.2445
15478W        W31287  15.936   1.290   0.047 -0.2010  0.2228  0.0219
15479W        W31288   5.941   1.937   0.602 -0.0920  0.0892  0.0051
15480W        W31289  15.655  11.040   3.399 -0.0086 -0.1401 -0.0675
15481W        W31290  13.041  15.743  12.326  0.1972 -0.1280 -0.0984
15482W        W31291  15.397  12.761   4.695 -0.0491  0.2719 -0.1196
15483W        W31292   6.300   3.349   4.223 -0.0408  0.0450 -0.2332
15484W        W31293   1.806  16.229   4.969  0.0195  0.1266  0.0668
15485W        W31294   0.603   2.066   0.126  0.1600 -0.0759 -0.1430
15486W        W31295   2.460   2.299  11.392 -0.2240 -0.1600 -0.0860
15487W        W31296   7.972  15.945   4.514 -0.2706 -0.1271  0.1476
15488W        W31297   1.938  16.518  16.027 -0.0378  0.0997  0.0233
15489W        W31298   5.224   8.810  12.858  0.0743  0.0506 -0.0434
15490W        W31299   5.810   0.098  14.417  0.2306 -0.1200 -0.0289
15491W        W31300   0.962  17.965  11.455 -0.2457 -0.1473  0.1388
15492W        W31301  14.250  13.144  11.201  0.2042  0.1032 -0.2979
15493W        W31302   9.721  17.385   2.287  0.2719  0.0114  0.0516
15494W        W31303   8.183   8.595   0.696 -0.0916  0.0324  0.4211
15495W        W31304  16.879   6.028   5.233  0.1658  0.0162  0.0321
15496W        W31305   8.830   1.149  12.363 -0.0506 -0.0831  0.0757
15497W        W31306  15.015   3.812  12.675 -0.2520  0.0231 -0.2991
15498W        W31307   8.807   4.375  13.700  0.0085  0.0677  0.1279
15499W        W31308   0.211  14.674  14.743 -0.0449 -0.1682 -0.3993
15500W        W31309  11.391   6.556   2.112 -0.2805 -0.0789 -0.1340
15501W        W31310  15.879   1.229  15.210  0.1201 -0.0551 -0.2410
15502W        W31311   5.437  13.658   1.225 -0.0896 -0.1678  0.0852
15503W        W31312   2.157   3.145   4.953 -0.4292 -0.0981  0.2235
15504W        W31313   1.112  10.039  15.600  0.1440  0.1570 -0.1269
15505W        W31314   3.815   6.468  11.587 -0.1791  0.0705 -0.0310
15506W        W31315   0.800  16.173  11.371 -0.1195 -0.4124  0.3441
15507W        W31316   3.669   8.793  11.205 -0.1155 -0.1264  0.3038
15508W        W31317   9.707   9.353   4.241  0.0796  0.1777 -0.1774
15509W        W31318  14.997   1.506   3.641  0.1551 -0.1836 -0.0421
15510W        W31319  14.167  17.408   0.555 -0.1640  0.1922  0.0525
15511W        W31320  12.395   6.346   0.459 -0.0248  0.2453  0.0339
15512W        W31321  16.853   5.681  13.593 -0.2483 -0.0614  0.0325
15513W        W31322  12.418   6.066  13.736  0.1029 -0.0693  0.0788
15514W        W31323   3.158  15.430  11.398  0.1255  0.0742 -0.1229
15515W        W31324   2.849  17.095  15.437  0.0733 -0.0948  0.0105
15516W        W31325  14.427  18.229  12.023  0.1887  0.1269 -0.4562
15517W        W31326   0.920   9.164  13.144 -0.1041 -0.2300 -0.1528
15518W        W31327   1.601   4.461  11.602 -0.2621  0.0759 -0.0243
15519W        W31328  16.040  17.688   5.005 -0.0868  0.0593  0.2826
15520W        W31329   6.445   2.678  10.103 -0.0480  0.3295  0.1487
15521W        W31330  11.498   4.793   2.253  0.1478  0.1814 -0.0023
15522W        W31331   8.820  16.975  15.620  0.1956 -0.2063 -0.2089
15523W        W31332   0.224  14.767   2.876 -0.2225 -0.2080  0.0993
15524W        W31333   5.170   7.750   4.447 -0.1341  0.1501 -0.0025
15525W        W31334  17.632  12.265   1.054 -0.3756  0.3017  0.0968
15526W        W31335  15.276   0.618  13.730 -0.4950  0.0110  0.3557
15527W        W31336   8.882  17.663  12.173  0.2986  0.4744 -0.1021
15528W        W31337   0.183  11.488  11.485  0.0792 -0.1920 -0.3119
15529W        W31338  17.024   0.681  14.744 -0.0511  0.1224  0.1102
15530W        W31339   8.059   3.151   3.530  0.1571 -0.0923  0.4056
15531W        W31340  10.153  17.733  12.735 -0.1849  0.2584 -0.0768
15532W        W31341  14.099   2.774  15.222 -0.3615  0.0304 -0.1792
15533W        W31342   9.177   9.419  15.962  0.0005  0.1944 -0.0370
15534W        W31343   7.640  14.558  15.248  0.1140  0.2594  0.1129
15535W        W31344   1.070  16.956  12.119  0.1388  0.0952 -0.0536
15536W        W31345   8.813  10.958   5.317 -0.2259  0.0924 -0.1085
15537W        W31346   9.327   2.425   2.846  0.2217  0.2406  0.1769
15538W        W31347   1.366   3.007  15.452  0.3191  0.0559 -0.1320
15539W        W31348   6.410  13.944   3.399 -0.1808  0.1205 -0.1289
15540W        W31349   1.369   4.023  11.486 -0.0499 -0.1621  0.0755
15541W        W31350   4.237   3.484   5.351 -0.0937 -0.4833  0.2943
15542W        W31351   0.962  12.243  13.772  0.0139  0.1137 -0.0972
15543W        W31352   0.130   5.997   5.812  0.0016  0.1595  0.0066
15544W        W31353  14.420  13.839  14.621 -0.1065  0.0684 -0.1631
15545W        W31354   3.663   7.412  12.211  0.0578  0.1290 -0.1310
15546W        W31355   2.784   1.899   4.812  0.1974 -0.0207  0.0836
15547W        W31356   1.784   3.661  11.369  0.0626 -0.2072 -0.1290
15548W        W31357   0.082  10.649   4.310 -0.2074  0.1279 -0.1030
15549W        W31358  11.177   6.209   1.477  0.0827  0.1131 -0.0117
15550W        W31359   2.410   7.781  11.052 -0.1701 -0.1194  0.0098
15551W        W31360  10.646  15.143  11.922  0.0162  0.0184  0.0827
15552W        W31361  16.756   7.671  15.353 -0.0784 -0.1954 -0.0550
15553W        W31362   8.418   4.726  12.020 -0.1275  0.1092  0.0347
15554W        W31363   1.095  10.865   3.978  0.0524 -0.1013  0.2610
15555W        W31364   7.253   6.387   3.868  0.1064 -0.2591  0.0805
15556W        W31365   8.434   7.659   2.096 -0.1200 -0.1095 -0.2327
15557W        W31366   8.751  14.954   0.113  0.1446  0.0601  0.1395
15558W        W31367   4.806   5.887   4.921  0.2296  0.2647  0.1517
15559W        W31368   8.404  18.139   5.455 -0.1243  0.0602 -0.1492
15560W        W31369  16.114  11.825  15.054  0.0897  0.3961  0.0250
15561W        W31370  10.727   3.594   1.063  0.1309  0.1559  0.1502
15562W        W31371  12.320   9.099  11.915 -0.2975  0.2368  0.1016
15563W        W31372  16.218  14.586  12.894  0.3294  0.0208  0.2562
15564W        W31373   8.554  10.070  15.809  0.0176 -0.1170  0.1922
15565W        W31374  12.804   4.123   1.102  0.1655  0.0480 -0.1470
15566W        W31375  13.051  13.045   1.024  0.2194  0.2035 -0.0434
15567W        W31376  15.379   8.903   1.026  0.2507 -0.2794 -0.0908
15568W        W31377  16.202   2.045   0.367  0.3948 -0.2159  0.0288
15569W        W31378  17.629   8.857   3.820  0.0727  0.2183 -0.1299
15570W        W31379   7.592   5.090   2.213  0.1024  0.4121 -0.2451
15571W        W31380  10.581   3.564   3.048  0.1613 -0.0683 -0.4250
15572W        W31381   5.305  10.584  11.139 -0.3879 -0.1021 -0.1023
15573W        W31382  11.893  15.659   1.068 -0.1467 -0.0755 -0.3027
15574W        W31383   3.782   7.167   4.053  0.0606  0.0131 -0.3320
15575W        W31384   0.511   1.409   5.546  0.1488  0.0537  0.0981
15576W        W31385   9.576  10.340   1.137 -0.2016  0.3702  0.0922
15577W        W31386   3.792  16.663   0.448  0.0152  0.2000  0.0510
15578W        W31387   6.701  17.647   4.621 -0.3733 -0.0493 -0.0257
15579W        W31388   8.659  11.136  14.239  0.0257  0.2167 -0.1883
15580W        W31389   9.435  16.268   4.317 -0.2895  0.1756 -0.1238
15581W        W31390  15.418  11.846  13.528 -0.1024 -0.0656  0.3065
15582W        W31391   6.579  15.201   1.370 -0.0110 -0.2609  0.0145
15583W        W31392  10.509   0.131  12.437 -0.2021 -0.1936  0.1902
15584W        W31393   6.443  12.699   1.635 -0.2134  0.1816  0.2451
15585W        W31394  16.980  14.046  10.104  0.0368 -0.0340 -0.1535
15586W        W31395   0.300   4.314  11.459  0.3031  0.0572  0.0511
15587W        W31396  14.970   5.014   0.071  0.2032 -0.0548 -0.1260
15588W        W31397   1.936   2.412  12.191  0.0136  0.1914  0.1291
15589W        W31398   5.627   0.169  15.945  0.0545  0.0618 -0.0391
15590W        W31399  15.211  10.296   4.918  0.3052 -0.0471  0.0816
15591W        W31400   2.582  14.556   5.420 -0.0541  0.1297  0.1195
15592W        W31401   0.576   7.037   3.332 -0.3067  0.0419  0.1671
15593W        W31402   3.057   4.520   0.499  0.4501 -0.1356  0.0964
15594W        W31403  17.998  17.405   2.355  0.0237 -0.0742  0.0788
15595W        W31404  13.760   4.630   0.064 -0.1320  0.0582 -0.0153
15596W        W31405   7.222   1.999  16.045  0.0502 -0.1146  0.1059
15597W        W31406   9.872  14.467  15.410 -0.1691 -0.0344  0.0087
15598W        W31407   6.389   0.069  15.036 -0.1304  0.0793 -0.3062
15599W        W31408   8.702  12.520  12.429 -0.2356  0.0004 -0.1488
15600W        W31409   9.174  10.756   3.321  0.2240  0.1821  0.2054
15601W        W31410  13.074   4.891  15.336  0.2123 -0.2280 -0.4100
15602W        W31411   9.958   1.662   5.396  0.0065  0.3667  0.4052
15603W        W31412  10.752   9.710  15.864  0.1721 -0.1994  0.0636
15604W        W31413  16.227   8.889  15.464  0.0422  0.1661  0.1714
15605W        W31414   6.202   9.136   4.134 -0.0141  0.1897 -0.2140
15606W        W31415  16.982  12.587  13.007  0.4879  0.0300 -0.1943
15607W        W31416   5.987  12.873  15.058  0.0203 -0.0981  0.1692
15608W        W31417   6.585   1.684   1.161  0.2638  0.2641 -0.1786
15609W        W31418   6.584   4.670   4.452 -0.1821 -0.0141 -0.0437
15610W        W31419   5.975   5.335   2.610 -0.2320 -0.1664 -0.2394
15611W        W31420  16.407   8.168  14.149  0.1218  0.0267 -0.3759
15612W        W31421   3.130   4.815  14.456 -0.2388  0.1587 -0.0042
15613W        W31422  15.848   7.640   2.204 -0.1595  0.3082 -0.1275
15614W        W31423  17.818  11.777   3.721 -0.0071  0.0227  0.0948
15615W        W31424   2.474   2.416  14.168 -0.2218  0.1960  0.0714
15616W        W31425   8.416   8.313  13.035  0.2196  0.2526  0.0052
15617W        W31426  14.618  11.552   1.585 -0.0948 -0.1463  0.0947
15618W        W31427  14.576   1.974  13.417 -0.1265 -0.1046  0.0121
15619W        W31428   9.604  17.566   4.981  0.0984  0.0475  0.1460
15620W        W31429   3.184  12.738  10.879 -0.1180  0.0379  0.1133
15621W        W31430  11.015   6.802  11.437 -0.0024 -0.2067  0.0427
15622W        W31431  10.390  12.119  15.384  0.2363 -0.0229 -0.2158
15623W        W31432   8.493   0.451   3.327  0.1368  0.1132  0.2503
15624W        W31433   8.412  15.205  12.437 -0.0054  0.2240  0.2867
15625W        W31434  15.479  16.551  14.133 -0.1543  0.0675 -0.0678
15626W        W31435  10.479   7.533  11.994  0.2208  0.1053 -0.3276
15627W        W31436   4.140   4.220   3.182 -0.0014  0.2747  0.0091
15628W        W31437  10.989   3.277   2.233  0.0269 -0.0607 -0.0588
15629W        W31438   2.455  14.342  13.727  0.0109 -0.1011 -0.2177
15630W        W31439  15.104  11.020   0.875  0.1682 -0.2073 -0.1971
15631W        W31440  11.972   1.668  12.552  0.1889 -0.1663 -0.0745
15632W        W31441   6.078   8.396  11.743 -0.0888 -0.1031 -0.2653
15633W        W31442   3.478   3.792   4.861  0.1333  0.0637 -0.0132
15634W        W31443   1.281   5.311   1.809 -0.3399  0.0606  0.2274
15635W        W31444  13.527  14.517   5.102  0.1204  0.2363  0.1207
15636W        W31445   3.026  14.309   1.736  0.0227 -0.0574 -0.0517
15637W        W31446  14.483  10.394  11.752  0.0323 -0.2123  0.0884
15638W        W31447  13.796  10.733  15.759  0.0646  0.1233 -0.0600
15639W        W31448   2.476   4.328   2.415 -0.0387 -0.2396  0.1603
15640W        W31449  18.196   0.483   3.961 -0.1891  0.1794  0.3050
15641W        W31450   5.174   3.725   2.157 -0.0493 -0.0221  0.3836
15642W        W31451  14.542  16.606  14.667  0.1667 -0.1017  0.1402
15643W        W31452   2.290  16.418  13.595 -0.0346 -0.0420  0.0906
15644W        W31453  13.872   1.022  10.422  0.0612  0.2840 -0.1185
15645W        W31454  17.210   4.367  14.433 -0.1518  0.2575  0.0994
15646W        W31455   7.811  16.566   2.250 -0.1862 -0.0936  0.4402
15647W        W31456   7.977   4.167   4.235  0.0214 -0.0634 -0.2740
15648W        W31457   8.433   7.355   0.167  0.0694 -0.0425  0.0071
15649W        W31458   4.128  15.448   3.777 -0.0129  0.0646  0.1559
15650W        W31459   7.449   7.891   3.773  0.2884 -0.0309  0.3016
15651W        W31460   1.188   8.685  10.498  0.0346 -0.2353 -0.1605
15652W        W31461   9.663  11.050  13.701 -0.1263  0.0651  0.0352
15653W        W31462   0.641   8.960   1.872 -0.0011 -0.2393  0.2246
15654W        W31463   8.215  14.330   4.717 -0.0206  0.2015 -0.1871
15655W        W31464   2.573  13.392   0.965  0.1759  0.0102 -0.2130
15656W        W31465  17.229  14.293   2.811  0.1570  0.3415  0.1216
15657W        W31466   6.279   6.555   0.757 -0.0344  0.0262 -0.0719
15658W        W31467   9.082   1.014   1.306  0.1584 -0.1951 -0.1630
15659W        W31468   1.092  14.696   2.537 -0.0738 -0.0484 -0.0672
15660W        W31469   2.404   9.654   0.451 -0.1719 -0.0545 -0.0430
15661W        W31470  15.348  10.196   1.912 -0.1970  0.4285 -0.5358
15662W        W31471   1.270   2.455   1.456  0.0940  0.0641  0.1521
15663W        W31472   3.155  16.174  15.275  0.3237  0.1686  0.0693
15664W        W31473   7.377  10.025  12.380 -0.0398 -0.4628 -0.2935
15665W        W31474  14.975  11.956  10.918  0.0518  0.1173 -0.0774
15666W        W31475   2.316  14.899   5.251  0.0179 -0.0463 -0.0876
15667W        W31476   4.324   5.890   3.962  0.1507 -0.1318  0.1893
15668W        W31477  12.662  14.893  14.632  0.0548  0.2295  0.0705
15669W        W31478  16.144   5.875   2.725 -0.2694  0.0170  0.2123
15670W        W31479  12.496   2.381  14.707 -0.1726 -0.1650 -0.1023
15671W        W31480   5.468   2.527  12.609 -0.1680 -0.0998  0.0378
15672W        W31481  10.274   9.588  15.987 -0.1650 -0.2625  0.1729
15673W        W31482  12.031  10.969   2.424 -0.0473  0.2212  0.1665
15674W        W31483  15.406  13.232  14.363  0.1633  0.1164  0.2570
15675W        W31484   4.789  13.096   2.699 -0.1415  0.2738  0.3230
15676W        W31485   4.201   5.419   2.419 -0.1680 -0.3496  0.0535
15677W        W31486  11.976   9.530   0.859  0.0168  0.0140 -0.1212
15678W        W31487  10.226  14.006   0.535 -0.0278  0.3466 -0.1501
15679W        W31488   0.476  12.317   4.693 -0.1472 -0.0806 -0.0822
15680W        W31489   3.954   5.240  10.972  0.2488  0.0188 -0.4541
15681W        W31490   9.272   0.642   0.068 -0.1141 -0.2254  0.1136
15682W        W31491   4.815   9.872   2.520 -0.0420  0.1417  0.2506
15683W        W31492  11.859  11.430   2.563  0.0381 -0.2195  0.0276
15684W        W31493   4.958  13.860   0.325 -0.1853 -0.2408  0.1167
15685W        W31494  16.671   0.232  12.232 -0.0889 -0.2159 -0.2673
15686W        W31495   3.407  16.252  11.202  0.2411 -0.1143 -0.1253
15687W        W31496  15.571   2.547  12.764 -0.1436  0.0525 -0.2384
15688W        W31497  17.520   2.907  13.997 -0.0254  0.2953  0.1126
15689W        W31498  10.167   2.442   5.628 -0.0737 -0.0006 -0.0384
15690W        W31499   0.095   7.806  13.283 -0.1237 -0.0098  0.2071
15691W        W31500   1.571   5.311  15.419  0.1268 -0.1106 -0.0996
15692W        W31501   2.817   5.194   2.444  0.3260  0.0392  0.1182
15693W        W31502   3.699  13.341   3.997 -0.0916  0.1822  0.0652
15694W        W31503  13.896  13.438  11.371  0.0639  0.1326 -0.0805
15695W        W31504   9.483   7.427  13.423 -0.0605 -0.2906 -0.4587
15696W        W31505  16.519  13.513   0.336 -0.4146  0.0543 -0.1357
15697W        W31506  13.471   6.351  14.518 -0.0709 -0.0669 -0.2949
15698W        W31507  15.111  16.701  11.800 -0.3007  0.1825  0.3809
15699W        W31508  14.804   0.503  16.026  0.0636  0.0310 -0.0379
15700W        W31509   6.464   4.390  15.248 -0.1028  0.1501 -0.2601
15701W        W31510   8.259  12.219   3.421  0.1397  0.1152 -0.0750
15702W        W31511   5.593   6.036   0.510 -0.0270  0.0976 -0.2700
15703W        W31512  11.877   2.911  11.047 -0.0717  0.0275 -0.2875
15704W        W31513  17.434   4.695   4.546  0.1340  0.1653 -0.2427
15705W        W31514  10.809   0.230  13.789  0.2729  0.0842 -0.0746
15706W        W31515  13.738   1.716  15.500  0.0494 -0.1651 -0.2149
15707W        W31516   1.604  11.918  12.698 -0.0023  0.0313 -0.1466
15708W        W31517  11.965   8.023   3.883  0.2293  0.2280  0.0290
15709W        W31518   6.633   3.400   1.236 -0.0396 -0.0530  0.2830
15710W        W31519   6.388   2.956  14.902 -0.2445  0.0143 -0.0458
15711W        W31520  16.147   1.275   3.326 -0.0690 -0.0153 -0.3082
15712W        W31521  11.621   2.743   1.975 -0.0023 -0.0115 -0.0188
15713W        W31522  10.562  11.030  13.973  0.0656  0.0731 -0.1334
15714W        W31523   6.629   6.281   4.234  0.1562  0.0044  0.1287
15715W        W31524  15.755   5.188  11.148  0.0499 -0.0172 -0.1873
15716W        W31525  13.135  13.403  11.883  0.0326 -0.2143  0.0421
15717W        W31526  13.951   2.183   0.307 -0.3515  0.1813  0.1380
15718W        W31527  16.569   7.678  15.909  0.0447  0.1106  0.0413
15719W        W31528   6.237   1.685   2.798  0.1441 -0.2079  0.1225
15720W        W31529  15.269   0.282   1.494 -0.1053  0.0097  0.1530
15721W        W31530  12.689  13.657  12.874  0.1799  0.1276  0.0981
15722W        W31531  17.519   8.382   2.573  0.1377  0.0316 -0.3321
15723W        W31532  16.097   7.989  11.739  0.2587  0.1906 -0.5093
15724W        W31533   1.372  15.269  15.580 -0.2466  0.0842  0.0033
15725W        W31534   9.366  11.199   1.237 -0.4973 -0.0010  0.0111
15726W        W31535   3.363  15.011   2.985  0.0336 -0.0709  0.0214
15727W        W31536  10.944  16.186   2.002  0.0994  0.2716  0.0947
15728W        W31537  15.840   1.849   3.995  0.0480 -0.1681 -0.0400
15729W        W31538  10.808  10.561   4.935 -0.0903  0.1445  0.0918
15730W        W31539  11.999   6.097   0.865  0.1606  0.0621  0.0107
15731W        W31540  18.099   4.966   2.823  0.0732  0.0868  0.1432
15732W        W31541   4.102  11.064   0.188  0.1726  0.0539 -0.0424
15733W        W31542  14.864  10.367  10.110  0.1257  0.3292 -0.1269
15734W        W31543  11.732   1.490  14.673 -0.2633  0.2797 -0.0366
15735W        W31544   6.204  16.468  13.404  0.0432 -0.0083 -0.1088
15736W        W31545   3.288   3.170  13.076 -0.1467  0.3050  0.0596
15737W        W31546   3.896  13.273  15.132 -0.0168  0.1350 -0.0629
15738W        W31547   1.393   5.569   4.640 -0.0102 -0.0312 -0.2651
15739W        W31548  15.251   3.033  11.522 -0.2038  0.0903 -0.0267
15740W        W31549  13.361  12.033   3.206  0.2834 -0.1335  0.1951
15741W        W31550  10.777  15.518  12.312  0.0550 -0.1606  0.1305
15742W        W31551  14.474  17.366   2.461  0.0678  0.0766  0.3205
15743W        W31552   8.001   4.828   4.503 -0.1590 -0.4182  0.0616
15744W        W31553   2.468  10.974  14.676 -0.0706 -0.2535  0.0691
15745W        W31554  14.831  13.328   2.854 -0.1066  0.0905 -0.0037
15746W        W31555   2.290   9.355  13.473  0.3217 -0.0588 -0.1011
15747W        W31556  12.391  11.553   1.877 -0.3418  0.0005  0.0522
15748W        W31557   0.233  16.845  15.457 -0.0952  0.0755  0.0344
15749W        W31558   7.028  11.870   2.699 -0.2427  0.1459 -0.0927
15750W        W31559   4.319  13.432  15.379 -0.1615 -0.2962 -0.3035
15751W        W31560   2.452  11.743   1.520 -0.1898 -0.0185  0.1395
15752W        W31561  17.183  12.841   0.094  0.0652  0.1697 -0.0170
15753W        W31562  12.895  17.404   3.248 -0.3095 -0.1386 -0.1380
15754W        W31563   7.094  16.528   3.371 -0.2529  0.1858  0.0849
15755W        W31564   3.699   7.952  14.785 -0.0570  0.1220  0.2221
15756W        W31565  17.903   0.394  14.813 -0.1012  0.2713 -0.2106
15757W        W31566  11.913  11.898   2.749  0.3279 -0.0114  0.2104
15758W        W31567  12.106   0.898   4.636  0.1920  0.0406  0.2040
15759W        W31568  16.260   4.803   2.095  0.2587 -0.0494 -0.1249
15760W        W31569   4.452   1.100  13.097  0.2692  0.2451  0.1148
15761W        W31570   0.428   2.854   3.429  0.0858 -0.1412 -0.0445
15762W        W31571   3.401  16.741  15.508 -0.0530 -0.1884  0.0944
15763W        W31572   0.550  11.146  15.191 -0.2020 -0.1916 -0.1430
15764W        W31573  13.476  17.764  13.160 -0.2789 -0.0704 -0.1036
15765W        W31574  12.314  15.193   3.975 -0.0115  0.3218  0.2004
15766W        W31575   7.973   5.867  11.308  0.2459 -0.0611  0.0725
15767W        W31576   1.450   3.891  10.940 -0.0922  0.0488 -0.1145
15768W        W31577   7.790  16.268   0.769  0.3418  0.1414  0.0452
15769W        W31578   8.048  17.902   5.091  0.0074  0.3464  0.0235
15770W        W31579   8.303   0.345  14.113 -0.1144  0.0875 -0.2749
15771W        W31580   9.987  13.363  15.998  0.2568  0.0094  0.2387
15772W        W31581   6.687   3.273   3.334 -0.0683  0.1242  0.3551
15773W        W31582   1.199   7.942  15.464  0.1440  0.2538  0.0257
15774W        W31583   8.745   8.411  12.076 -0.0141  0.1717 -0.1354
15775W        W31584   6.025   3.806   2.935 -0.1532 -0.2304 -0.1726
15776W        W31585  15.360   0.123  11.968  0.3684 -0.0622 -0.0216
15777W        W31586  15.986  17.792  11.939 -0.2479  0.0487  0.1071
15778W        W31587   0.330   3.562  14.402 -0.2860  0.1625  0.0785
15779W        W31588   7.181   3.788  14.337  0.0164 -0.0887 -0.0691
15780W        W31589   1.465   7.588  14.219  0.1440 -0.2573 -0.2385
15781W        W31590   8.650   3.483  13.503 -0.2752  0.1867 -0.1981
15782W        W31591  17.458  12.750   1.738 -0.0696 -0.0138  0.0106
15783W        W31592   8.046   3.166   3.009  0.0340  0.2540 -0.0378
15784W        W31593  13.707  13.307  13.526  0.0108 -0.0973 -0.0300
15785W        W31594  15.839   3.097  12.352 -0.1206 -0.1264  0.0197
15786W        W31595  12.495  15.986   1.638 -0.2351  0.0297 -0.0963
15787W        W31596  12.414  14.884  15.616  0.1500  0.0311  0.3240
15788W        W31597   4.571  16.365   4.035  0.1114  0.1340  0.0120
15789W        W31598   8.583   1.263   1.150  0.0669 -0.2163 -0.0800
15790W        W31599   4.146   4.886   0.791  0.1055 -0.2097  0.1571
15791W        W31600   7.158  10.423   3.718 -0.2748  0.0689 -0.1556
15792W        W31601   6.989  16.150  10.106 -0.4162  0.2749  0.0456
15793W        W31602   9.795  17.279   5.344 -0.2086  0.1274  0.2916
15794W        W31603  17.832   1.248   0.127  0.1520  0.2590 -0.0135
15795W        W31604  17.519   8.409   0.178  0.0922 -0.1868 -0.0894
15796W        W31605   4.451   6.968   1.892  0.0941  0.1689  0.0081
15797W        W31606   1.112   0.925   3.308 -0.0043  0.1372 -0.2308
15798W        W31607  16.615  15.750  15.546  0.0900  0.1553 -0.0111
15799W        W31608   4.845  14.727  13.836 -0.5028  0.2070  0.0190
15800W        W31609   4.409   8.592   1.350 -0.3796 -0.0930  0.2446
15801W        W31610  17.234   5.954  12.341 -0.0770  0.0080  0.0263
15802W        W31611   0.832   3.814  14.292  0.0892 -0.2143  0.3177
15803W        W31612  14.669  16.516   2.080 -0.1590 -0.0524  0.0838
15804W        W31613  11.019   7.570   3.961 -0.0887 -0.0213 -0.1024
15805W        W31614  12.506  15.378   4.590 -0.0639  0.0102  0.0179
15806W        W31615   7.895   0.227  10.704 -0.0263  0.0949 -0.1931
15807W        W31616   8.659   7.280   2.736 -0.2979  0.1176  0.1586
15808W        W31617  11.163   9.010   0.305 -0.2723 -0.3247  0.1684
15809W        W31618  12.444   9.415   0.945 -0.0774  0.3580 -0.1210
15810W        W31619  14.545   5.652  14.501 -0.0761  0.0575  0.0848
15811W        W31620   5.533  16.862   4.804  0.1377  0.0920 -0.1157
15812W        W31621  12.123  17.012   3.946  0.3124 -0.0073 -0.0211
15813W        W31622   7.611  17.896   2.849  0.0787  0.0467  0.0361
15814W        W31623  10.824   7.919   5.666  0.0709  0.0872 -0.0496
15815W        W31624  11.938   4.811  14.068  0.0500  0.2245 -0.2291
15816W        W31625  12.019   4.799   4.333  0.0866 -0.0933  0.3347
15817W        W31626   0.440  18.058   3.482 -0.1561  0.1014 -0.0573
15818W        W31627  17.930  16.368   4.024  0.1261  0.0179  0.0908
15819W        W31628   5.436  16.780   1.823  0.2123 -0.2023  0.2534
15820W        W31629  11.351  17.490  11.450  0.2252 -0.0235 -0.1800
15821W        W31630   6.145   1.816  12.397 -0.0375  0.1878 -0.0053
15822W        W31631   3.735   6.209  14.661 -0.0262  0.1044  0.0711
15823W        W31632  13.765   7.694  15.116 -0.1033  0.0061  0.1265
15824W        W31633   2.157  12.339   2.323  0.0569  0.2557  0.2086
15825W        W31634   0.601  16.266   0.645 -0.2935 -0.0685 -0.1267
15826W        W31635  13.941   4.796   1.892 -0.1098  0.1594 -0.0959
15827W        W31636   1.023   5.034   3.066 -0.2330 -0.2126 -0.1393
15828W        W31637   7.684  17.573   5.006  0.1085  0.0390  0.1368
15829W        W31638   5.032  15.400   0.337  0.0923 -0.0496  0.2208
15830W        W31639  15.217  18.028  15.002 -0.0203 -0.2554 -0.0126
15831W        W31640  13.145   7.443  12.072 -0.0416 -0.4096 -0.3017
15832W        W31641   8.436  15.130   2.740 -0.1632 -0.1345 -0.2897
15833W        W31642  13.423   8.918  12.555  0.2479  0.1312  0.1246
15834W        W31643   7.666  11.760   1.237 -0.3648  0.0175 -0.4211
15835W        W31644   3.418  18.166  11.507 -0.3401  0.0788 -0.1344
15836W        W31645   2.295  17.138   4.864  0.1308  0.0813 -0.0525
15837W        W31646  15.373   8.361  14.779 -0.0034  0.2755  0.2202
15838W        W31647  15.298  12.513   5.178 -0.1430 -0.3477 -0.0143
15839W        W31648   1.672  18.159   4.084  0.0835 -0.2361 -0.2148
15840W        W31649  10.010  10.561  12.457  0.1281 -0.1894  0.1594
15841W        W31650  16.229   0.764  13.449 -0.0190  0.0952  0.0324
15842W        W31651   4.352   5.568  15.047  0.0835 -0.2051 -0.0154
15843W        W31652   9.501   1.572  11.628 -0.2936  0.0540 -0.2509
15844W        W31653   0.721  10.258  11.740 -0.1583 -0.0632  0.0639
15845W        W31654  13.945   1.290  13.564  0.0543 -0.2696  0.1605
15846W        W31655  17.388   0.634  15.577 -0.0649 -0.0729  0.1061
15847W        W31656  16.346   6.949   3.670  0.0943 -0.1060 -0.3134
15848W        W31657   7.499   5.671   4.505  0.4437  0.0408 -0.0959
15849W        W31658  12.610   5.596  13.559 -0.2057 -0.0594  0.4582
15850W        W31659   2.669   1.734  10.353  0.1480  0.0831  0.1454
15851W        W31660  14.720  18.124  12.676  0.2897 -0.1865 -0.2053
15852W        W31661   8.228  10.356  14.565 -0.0013 -0.0807 -0.5222
15853W        W31662  10.697  11.807  13.305 -0.2670 -0.1205  0.0689
15854W        W31663   2.264  18.060  12.895  0.0701 -0.1377  0.0350
15855W        W31664   9.946   4.416  12.085  0.0584  0.1604  0.3754
15856W        W31665   5.377   6.632   3.218 -0.1198  0.0782  0.0482
15857W        W31666   2.025  13.858  15.068 -0.1348 -0.0861  0.1608
15858W        W31667  14.663  10.307  15.359  0.0018 -0.2374  0.1031
15859W        W31668  17.266  13.758  14.089 -0.0771  0.0279 -0.0062
15860W        W31669  15.116   7.192  12.652  0.1056 -0.1337  0.2914
15861W        W31670   3.994   0.995  11.645  0.0330  0.0925 -0.1722
15862W        W31671  10.796  13.822   0.490  0.0947 -0.1803 -0.0468
15863W        W31672   3.618   2.832  14.924 -0.2023  0.1588  0.0078
15864W        W31673   0.095  12.737   4.520  0.0175  0.0513  0.1396
15865W        W31674  14.978   6.177   2.110 -0.3117 -0.0843  0.1532
15866W        W31675  17.255   0.829  10.413  0.2103 -0.1486  0.0517
15867W        W31676  16.047  13.485  13.666  0.0123  0.1689 -0.0513
15868W        W31677  12.280  11.051   5.346  0.0751 -0.1658 -0.1316
15869W        W31678  15.368   1.475  13.342 -0.0619 -0.2245  0.0125
15870W        W31679   4.977   7.972   2.704  0.0485 -0.0059 -0.0678
15871W        W31680   5.901  12.406   4.380  0.0503 -0.1739 -0.2675
15872W        W31681  12.358  15.562  15.946  0.4100 -0.2611 -0.1567
15873W        W31682   9.958   6.898   0.170  0.0750  0.0206 -0.1740
15874W        W31683  10.062   7.664  13.731 -0.0159 -0.0364 -0.0344
15875W        W31684   6.399   9.450  11.665  0.0044 -0.1401 -0.2003
15876W        W31685   5.538   2.661   0.314  0.1136  0.2449 -0.4732
15877W        W31686  14.305   6.694   0.603  0.1878  0.3125 -0.0207
15878W        W31687   3.683   2.366   4.037  0.3629 -0.0594  0.1989
15879W        W31688   9.098  11.248   4.121  0.3235 -0.0819  0.0944
15880W        W31689   5.074  14.017  15.221 -0.1949  0.1783  0.0549
15881W        W31690  17.755   1.716  14.602  0.0134 -0.3419  0.0595
15882W        W31691  15.892   0.930  15.739  0.2221 -0.1892 -0.0591
15883W        W31692   2.327  14.310   4.663  0.0353 -0.2806 -0.0527
15884W        W31693  17.718   2.761   3.517 -0.1772  0.1606  0.1543
15885W        W31694   6.028   8.643  11.295 -0.3043 -0.0110 -0.1545
15886W        W31695  10.934  14.327   1.674  0.0401  0.1074 -0.2070
15887W        W31696   8.411  16.428   0.792 -0.1154 -0.2031 -0.0421
15888W        W31697   7.892  10.191   4.636  0.0105  0.1873  0.1972
15889W        W31698  10.776  15.070   5.428 -0.0328 -0.0605 -0.0102
15890W        W31699   1.438  10.485   4.042  0.0504 -0.0414 -0.1989
15891W        W31700   0.988   0.779  13.050 -0.4320 -0.2126 -0.3628
15892W        W31701  14.363   8.273  13.476 -0.6604  0.1499  0.1708
15893W        W31702  12.194   7.216   5.504 -0.1900 -0.2879  0.0286
15894W        W31703   4.961  14.345   0.114  0.2477 -0.3753 -0.1088
15895W        W31704  11.260  16.620   1.968 -0.2814  0.1315  0.0075
15896W        W31705  16.711  11.468  13.779  0.2778  0.0874  0.0989
15897W        W31706  17.275   8.377   1.728  0.0197 -0.0028 -0.0734
15898W        W31707  13.202   6.365  12.333 -0.0633 -0.0140  0.1320
15899W        W31708   6.857  13.885   5.115 -0.1689  0.2991 -0.3060
15900W        W31709  17.360  11.968   1.522 -0.2945 -0.0018  0.1073
15901W        W31710   9.770  12.520  14.679  0.1511  0.0645 -0.1895
15902W        W31711  11.823   8.889   0.251 -0.0253  0.0475  0.0154
15903W        W31712  16.959   0.318  15.714  0.0123 -0.0109 -0.2982
15904W        W31713   8.465  17.285  14.846 -0.2032  0.3136 -0.0069
15905W        W31714   0.603   9.118  12.082 -0.0944  0.0669  0.0442
15906W        W31715   7.681  14.303   5.582 -0.0187 -0.0841  0.0440
15907W        W31716  10.859   8.033   3.974  0.1010 -0.1658  0.1270
15908W        W31717   2.552   0.260  14.529 -0.0245  0.0307 -0.1561
15909W        W31718   3.013  14.720  10.191 -0.1409  0.1492 -0.0820
15910W        W31719   7.141   4.610  13.689 -0.2738  0.0860 -0.0287
15911W        W31720   5.134   7.826  14.736  0.0446 -0.0261 -0.1406
15912W        W31721   0.706  11.168   3.855  0.1075  0.2345 -0.1531
15913W        W31722   4.315  15.264  10.768  0.0152  0.0839  0.0524
15914W        W31723   3.479   5.419   3.906  0.0161  0.0190  0.0430
15915W        W31724   0.078   9.869   3.306  0.0703 -0.1368  0.0444
15916W        W31725  10.088   1.058  15.958  0.0497 -0.1281  0.1287
15917W        W31726  14.311   5.430   1.341 -0.1802 -0.0475 -0.1408
15918W        W31727  16.731  10.202   9.971 -0.0159  0.0592 -0.1632
15919W        W31728  12.396  14.875   0.845  0.3877 -0.0405 -0.0110
15920W        W31729   2.767   5.653   3.323  0.0131 -0.0937 -0.0320
15921W        W31730  12.997   9.861   3.689  0.0222  0.0705  0.1203
15922W        W31731   1.179  11.102  11.318  0.3846  0.1758  0.3617
15923W        W31732  10.975   2.607  14.787 -0.1415  0.1045  0.1412
15924W        W31733  16.052   7.141  12.652 -0.1162  0.0686  0.1922
15925W        W31734  12.573   3.364  10.714  0.0837 -0.2351  0.0988
15926W        W31735   1.135  11.830  15.255 -0.2376 -0.3513 -0.0032
15927W        W31736   8.282   3.520  11.246  0.2267  0.1700 -0.2539
15928W        W31737   9.001   8.807  13.558 -0.0266 -0.2102 -0.3699
15929W        W31738  13.502   7.868   3.706 -0.1903 -0.0515  0.1763
15930W        W31739   3.982  16.259   3.073  0.0079  0.1269  0.1939
15931W        W31740   3.090   2.817  12.700  0.2519 -0.0770 -0.2443
15932W        W31741  14.541  10.214  11.213  0.0336 -0.1506 -0.3377
15933W        W31742   5.986   2.285  12.225 -0.0822 -0.3198  0.0135
15934W        W31743   1.361   9.656  12.011 -0.2211  0.1572 -0.1120
15935W        W31744   9.522   8.985  15.152  0.0701 -0.0326 -0.0071
15936W        W31745   7.348   5.666   1.323 -0.0900 -0.3407  0.1639
15937W        W31746   1.181  11.899  14.176 -0.0067  0.2366  0.2306
15938W        W31747   7.177   1.847  12.050  0.2532 -0.0023  0.1471
15939W        W31748   5.028  11.978   2.911 -0.0145  0.1473 -0.2292
15940W        W31749   7.667   0.785  12.381  0.0556 -0.0745  0.3164
15941W        W31750   4.897   0.914   0.982 -0.1868 -0.1043  0.1631
15942W        W31751  11.327  11.561  15.829 -0.0022  0.0330  0.1736
15943W        W31752  18.149   7.850  12.161  0.4367  0.1024 -0.0744
15944W        W31753  14.559  12.226   4.781  0.0566  0.1145  0.2830
15945W        W31754   9.978  13.307  12.652 -0.1099 -0.1763  0.0104
15946W        W31755  18.143   9.262  14.482  0.0197  0.3671 -0.1774
15947W        W31756  13.405   0.857   0.114  0.1827 -0.1196  0.2946
15948W        W31757   8.955   0.408  12.763  0.1510  0.2089 -0.0817
15949W        W31758   0.347   1.860  13.207  0.1502  0.0649  0.0086
15950W        W31759  12.607   0.010   2.791 -0.0017  0.0624  0.1373
15951W        W31760  15.915   7.046  12.044 -0.1932 -0.2607 -0.0107
15952W        W31761   9.916   8.367  14.514 -0.0395 -0.0145  0.0469
15953W        W31762   7.219   9.291  12.732 -0.4358 -0.2274  0.0479
15954W        W31763   6.783   8.157   2.666 -0.1916  0.0119 -0.1046
15955W        W31764  17.659  12.666  12.057  0.1350 -0.1070  0.1131
15956W        W31765  11.155   5.547  15.096 -0.2307 -0.0823  0.1297
15957W        W31766   4.714  18.121   0.871 -0.0925 -0.0449 -0.0509
15958W        W31767  12.560  10.358   2.083  0.1505  0.2822  0.0460
15959W        W31768   2.554  16.224  14.520  0.4342  0.2791  0.3548
15960W        W31769  17.295  10.462   3.755  0.1350  0.1274 -0.2517
15961W        W31770   6.941   8.855  12.871  0.2495 -0.1975  0.1497
15962W        W31771   7.238   7.100   4.267  0.2574 -0.3371  0.1054
15963W        W31772  14.903   8.235  14.826  0.1939 -0.1503  0.2984
15964W        W31773  17.119  11.006   5.475  0.2173 -0.0014  0.0709
15965W        W31774   6.805   8.369   4.350  0.3222 -0.0334 -0.0760
15966W        W31775  10.476  10.238  10.018  0.4368  0.1827  0.2309
15967W        W31776   2.208  12.777   0.476 -0.0556  0.2681 -0.2527
15968W        W31777  11.255   3.461   1.334  0.1232  0.2498  0.2063
15969W        W31778  12.839  11.026   0.148  0.1961  0.1771 -0.1698
15970W        W31779  12.202  15.830   0.743 -0.4114 -0.2611  0.0970
15971W        W31780   5.562  11.586  14.092  0.0507  0.2215 -0.1765
15972W        W31781  16.239   0.982   3.752  0.0860  0.0250 -0.3242
15973W        W31782   4.672   4.689   5.520  0.1365 -0.1455 -0.0162
15974W        W31783  11.008   5.771  12.890 -0.1009 -0.1612 -0.1295
15975W        W31784   6.826  17.918  13.461 -0.0950  0.0025  0.1320
15976W        W31785  16.952  10.525  14.974 -0.1947  0.0501  0.0429
15977W        W31786   5.308  16.566   3.112  0.0786  0.0980  0.1113
15978W        W31787  14.673   9.885   0.109  0.1856  0.3164 -0.1225
15979W        W31788  13.286   2.209  15.781 -0.2761 -0.0621 -0.0499
15980W        W31789  15.191   0.583  11.863 -0.0518  0.1578  0.0716
15981W        W31790   3.251  12.696   2.357  0.0799 -0.1898 -0.0366
15982W        W31791  10.907  17.502   4.981 -0.1883  0.0530  0.2181
15983W        W31792  13.091  12.443  12.410  0.3756 -0.3540 -0.0654
15984W        W31793   8.273   8.008  14.912 -0.2375 -0.0853 -0.1190
15985W        W31794   9.064  15.763   0.241  0.0075  0.1045  0.0727
15986W        W31795  10.758   1.722   4.414  0.2590  0.3114 -0.0209
15987W        W31796  16.713  13.290   0.850 -0.2700 -0.0941  0.1069
15988W        W31797   0.597  11.527  13.016  0.1848 -0.0759  0.3972
15989W        W31798  17.772  18.004  12.789 -0.0665  0.0828 -0.0763
15990W        W31799  14.367  10.445  13.616  0.0716  0.1305 -0.2288
15991W        W31800   1.106  15.566  10.632 -0.2135  0.2826  0.2438
15992W        W31801   4.970   1.743  12.042  0.1365 -0.1295  0.2573
15993W        W31802   0.242   0.927   4.760  0.0316 -0.1116  0.1830
15994W        W31803  13.608  11.701   0.164 -0.1567 -0.0913  0.1481
15995W        W31804  17.904  12.118  10.263  0.1926 -0.1850  0.1191
15996W        W31805  16.624   3.559  14.218  0.0206 -0.0320 -0.0572
15997W        W31806   6.500   8.560   1.221 -0.0460 -0.1402  0.3923
15998W        W31807   4.434   8.322  12.684  0.1816 -0.1263  0.0093
15999W        W31808   9.950  16.717   3.574  0.2950  0.3340 -0.1978
16000W        W31809   5.926   2.034   3.734 -0.0324  0.0667  0.0118
16001W        W31810   2.794  10.622   2.372 -0.0598 -0.0874  0.3070
16002W        W31811   2.982  10.026   4.539  0.0596 -0.2041  0.0660
16003W        W31812  10.054  15.022  13.467 -0.2053 -0.2502 -0.2827
16004W        W31813   2.425   1.508   5.504 -0.1680  0.0680 -0.0801
16005W        W31814  13.872  16.725   2.295  0.1150 -0.2698  0.1929
16006W        W31815   6.069   3.484  12.834  0.0317  0.1629 -0.2563
16007W        W31816  16.673   5.484  15.031  0.2934 -0.1317 -0.1642
16008W        W31817  12.609  17.301  14.360 -0.0299  0.0178  0.1535
16009W        W31818   5.441  14.808   1.199 -0.0779  0.2438 -0.2347
16010W        W31819   0.326   4.515   0.866 -0.2113  0.2201 -0.2782
16011W        W31820  16.107   8.142   4.449  0.1192 -0.0593  0.2588
16012W        W31821  13.006   8.567   1.267  0.2063 -0.1781 -0.2800
16013W        W31822   4.856   8.122   5.292  0.0064 -0.0647 -0.0169
16014W        W31823   3.233  15.128   2.084 -0.1086 -0.0397 -0.0423
16015W        W31824   4.674   1.176  10.786 -0.1250  0.1623 -0.3703
16016W        W31825  16.243  11.459  11.244 -0.0629  0.2044 -0.1272
16017W        W31826   6.016  17.023  14.807 -0.2883  0.1596  0.3718
16018W        W31827   5.684  12.069   2.157 -0.0063  0.1813  0.4028
16019W        W31828  11.975  11.989   1.013  0.1733  0.0336  0.2237
16020W        W31829   1.414  11.537  10.080 -0.0677  0.1594 -0.1638
16021W        W31830  17.763   3.241   5.322 -0.1668  0.0291  0.2085
16022W        W31831  14.161  12.844   0.405  0.0856  0.4295  0.0826
16023W        W31832  15.706   8.028  15.082 -0.0471 -0.1912  0.0699
16024W        W31833   9.808   3.650   4.925 -0.1375 -0.1427  0.1502
16025W        W31834  15.443  16.031   3.651 -0.2162 -0.1970  0.1930
16026W        W31835   2.662   8.111   2.144 -0.0427  0.0935  0.0554
16027W        W31836   5.508   2.333  14.103  0.0281 -0.0869 -0.2113
16028W        W31837  11.681   4.304   3.117 -0.2850  0.1192 -0.0414
16029W        W31838   1.741  11.125   4.560  0.1216  0.0547  0.3527
16030W        W31839  13.319  13.911   2.244  0.0092  0.2448  0.2542
16031W        W31840   2.565  15.508  13.757 -0.0199  0.1485  0.1258
16032W        W31841  10.246   8.444  15.548  0.1413  0.2583  0.0750
16033W        W31842  15.648   6.036  14.669  0.1518  0.1771  0.4950
16034W        W31843   7.463   7.844  14.625  0.0189  0.0357 -0.0198
16035W        W31844  14.911  15.628   4.824 -0.2931 -0.1329 -0.0761
16036W        W31845   2.400   6.373   1.600  0.3687 -0.1563 -0.1585
16037W        W31846   7.711   3.602   3.978 -0.1157 -0.1739  0.1467
16038W        W31847   6.994   0.244  14.908  0.0067 -0.1875  0.1019
16039W        W31848   4.017  15.098  15.129 -0.1910  0.3706  0.0505
16040W        W31849  12.005  18.255   1.060  0.0583 -0.0447  0.2988
16041W        W31850  11.954  13.503  12.573 -0.1167  0.2108  0.1456
16042W        W31851   6.401  17.181  13.053 -0.2948 -0.0905 -0.0225
16043W        W31852   4.065  18.033  13.293  0.0321  0.0367 -0.2490
16044W        W31853  15.970   0.700  11.265  0.3221 -0.1015 -0.0628
16045W        W31854   4.806   6.743   1.515  0.0424  0.1089  0.1443
16046W        W31855   4.083   0.427  14.474  0.0124  0.0778  0.2347
16047W        W31856   1.338   8.454   3.628  0.0625 -0.3527 -0.1360
16048W        W31857  13.281   7.441   3.644 -0.0711  0.1066  0.0904
16049W        W31858  14.934   1.352   3.120 -0.2845  0.0314  0.2392
16050W        W31859  16.068   7.031   4.156 -0.1887 -0.0781  0.0760
16051W        W31860  15.107  16.182  11.775  0.2283  0.0008 -0.0799
16052W        W31861  16.971  14.488   4.676  0.2108 -0.1969  0.0148
16053W        W31862  12.722  17.439   2.703  0.0283  0.2704 -0.1903
16054W        W31863   6.324  15.980  16.060 -0.1126  0.1539  0.1377
16055W        W31864   3.885   4.470  13.302  0.0826  0.2533  0.1108
16056W        W31865  11.805   1.981  15.255  0.0388  0.0687  0.1056
16057W        W31866  10.418  14.554   5.977  0.3095  0.2903  0.1186
16058W        W31867  10.069   1.986  14.110 -0.0460  0.2419 -0.0773
16059W        W31868  10.023   5.911   5.379  0.3975  0.0081 -0.0674
16060W        W31869   3.339  15.373  10.508 -0.1739 -0.2873  0.0925
16061W        W31870  15.675  10.148  12.136  0.2135 -0.2594  0.0832
16062W        W31871   7.485   4.236  13.689 -0.0302  0.0039 -0.2961
16063W        W31872  12.374   3.289   2.554 -0.0281  0.2885  0.0338
16064W        W31873   5.768   9.952   4.218  0.0266  0.0954  0.1174
16065W        W31874   1.070  13.867  13.104  0.1156  0.1416 -0.0055
16066W        W31875  15.695   3.504  12.078  0.3476  0.2605  0.2071
16067W        W31876  11.383  13.119   1.808 -0.0603  0.0600 -0.1069
16068W        W31877   5.973   1.363  15.627  0.3364  0.0433  0.3231
16069W        W31878   1.524   8.309   4.063 -0.0375 -0.0892 -0.2766
16070W        W31879  15.830  16.736   4.023  0.1913 -0.0247 -0.0707
16071W        W31880   9.958   0.823   4.033 -0.0705  0.0451  0.3706
16072W        W31881  16.224   7.720  11.239 -0.2333 -0.2261 -0.2443
16073W        W31882  11.090   0.195   5.381  0.2040  0.0190  0.0732
16074W        W31883  16.323  17.174   3.439 -0.1107  0.0351 -0.1840
16075W        W31884  14.980   6.747  12.813  0.2148 -0.3519  0.1329
16076W        W31885  14.904   4.193   1.582  0.0581  0.1059 -0.0365
16077W        W31886  11.025  15.166   1.567 -0.2581  0.1759 -0.1522
16078W        W31887  14.129   7.711   2.877 -0.0481  0.0894 -0.1427
16079W        W31888   4.013  11.207  11.564  0.2006 -0.0830 -0.0528
16080W        W31889   0.918   1.847  13.032 -0.0656  0.1329  0.0660
16081W        W31890   1.777  17.672  12.692 -0.0471 -0.0098  0.0771
16082W        W31891   2.735   9.061  14.316 -0.0714  0.1533 -0.2528
16083W        W31892  17.719   1.044  13.123 -0.1175 -0.0921  0.0866
16084W        W31893   3.337   0.466   2.777 -0.0529  0.1048 -0.0319
16085W        W31894   0.616   2.657   5.275  0.0280 -0.1588  0.0082
16086W        W31895  15.918   8.126   2.098 -0.3606  0.0769  0.2686
16087W        W31896   7.874   3.142   1.150  0.3492  0.1341 -0.1929
16088W        W31897   4.093   0.515  11.416  0.0250 -0.0086 -0.2143
16089W        W31898  12.244  18.043   4.004 -0.0088  0.2474 -0.1018
16090W        W31899   0.731   6.662  12.029  0.1755  0.0024  0.1837
16091W        W31900   8.789   2.182  15.687  0.0211 -0.0071  0.1346
16092W        W31901   7.574  15.447   4.001 -0.1894  0.2139  0.2614
16093W        W31902  18.198   4.715   1.839 -0.3112 -0.0093  0.0630
16094W        W31903   7.838  17.914   3.362  0.0542  0.1532 -0.1394
16095W        W31904   8.919  11.484  11.633  0.2633 -0.0736  0.0302
16096W        W31905   0.516  10.904   1.996 -0.1277  0.2108 -0.0675
16097W        W31906  12.085   6.579  12.304  0.3151  0.2197 -0.0254
16098W        W31907   8.759  10.480   4.204 -0.3066  0.0270  0.3617
16099W        W31908   0.341  17.552  12.893 -0.1727  0.2110 -0.2443
16100W        W31909   7.987  13.105   0.732 -0.0443  0.0367 -0.3135
16101W        W31910   8.474   5.925   3.595  0.1235 -0.1708 -0.4453
16102W        W31911  14.597  13.473  14.185 -0.1061  0.0171 -0.0388
16103W        W31912  10.395   5.265  15.632  0.0859  0.3969 -0.0773
16104W        W31913  12.280  16.255  15.084  0.2321 -0.1595 -0.0363
16105W        W31914  17.934  14.106  13.525 -0.1231  0.2175  0.0601
16106W        W31915  14.697   6.054   1.548 -0.1041 -0.0834 -0.2911
16107W        W31916  11.271  14.717  14.379  0.2536  0.0612 -0.4429
16108W        W31917   8.113  17.287  14.308 -0.0112  0.2493 -0.4011
16109W        W31918  13.082   2.034   2.592 -0.1359  0.0849  0.0022
16110W        W31919   2.137  13.207   2.205  0.1238  0.0528 -0.0327
16111W        W31920  15.090   0.654  12.472  0.1183  0.0906  0.2029
16112W        W31921  14.974   6.755  15.977 -0.2527  0.0864  0.0717
16113W        W31922  17.235  10.785   4.969  0.1946 -0.1693 -0.2664
16114W        W31923  10.786   2.326   1.252 -0.1980  0.1264 -0.1322
16115W        W31924  12.453  10.342  14.296 -0.2076 -0.1890 -0.1802
16116W        W31925   0.334   1.360  13.204  0.0572  0.0581  0.0928
16117W        W31926   1.164  11.385   3.972  0.0012  0.0010 -0.1266
16118W        W31927  10.851   1.857   0.311  0.1613  0.3430 -0.1039
16119W        W31928  16.508  17.482   3.819  0.1265  0.2874 -0.0200
16120W        W31929  15.854   4.337  13.149 -0.0827 -0.1331 -0.2281
16121W        W31930   1.388  11.412  13.552  0.0007 -0.1333  0.0089
16122W        W31931   8.890   9.912   3.210  0.1165 -0.1767  0.0148
16123W        W31932   9.649   1.573   4.492 -0.3187  0.2780 -0.1331
16124W        W31933   6.646   8.085  14.595 -0.2696  0.0272 -0.0645
16125W        W31934  10.949   5.564   0.819  0.0204 -0.1936 -0.0609
16126W        W31935   0.506  18.069  10.182  0.0426  0.2543  0.2833
16127W        W31936  10.230   0.456  16.068  0.1755  0.1513  0.2402
16128W        W31937   3.239   0.988   1.017  0.0839  0.0585 -0.0038
16129W        W31938  15.511  10.936  12.454 -0.0104 -0.2920  0.2602
16130W        W31939   2.128  16.147   5.745 -0.0610 -0.1804  0.0335
16131W        W31940  14.414   9.873   1.026  0.0058  0.3005 -0.0733
16132W        W31941   0.060   3.689  14.883  0.2859  0.1558  0.0412
16133W        W31942   4.309  10.823  15.615 -0.1438 -0.1451 -0.0381
16134W        W31943   8.907  14.722   4.905 -0.0905 -0.3924  0.3696
16135W        W31944   3.459   9.652  11.022  0.0106  0.2713 -0.5146
16136W        W31945   3.092  18.158   3.357  0.0625  0.1652  0.0232
16137W        W31946   5.272   9.686   0.839 -0.1924 -0.1119 -0.0806
16138W        W31947  12.481   3.816  13.381  0.1693  0.0189 -0.0525
16139W        W31948   2.436   1.585  15.259  0.0668  0.1122  0.1230
16140W        W31949  14.466  12.192   3.012  0.2632 -0.1750 -0.0651
16141W        W31950  16.372   8.947  14.462 -0.0073  0.1204 -0.3748
16142W        W31951  14.997  10.668  12.472 -0.0490 -0.2288 -0.0339
16143W        W31952   1.500   1.187   4.065  0.1709  0.3145  0.3303
16144W        W31953   4.617   2.771   1.592 -0.1866 -0.1359 -0.4910
16145W        W31954  10.948  17.343  13.264  0.1379 -0.1235 -0.2699
16146W        W31955   2.214  11.137   4.868 -0.0530 -0.1648 -0.1460
16147W        W31956   7.917  15.111   3.176 -0.1033  0.2407 -0.3422
16148W        W31957   7.633   4.915  15.079 -0.2885  0.2023  0.1554
16149W        W31958   2.644   2.382   4.993  0.2062  0.3825 -0.0991
16150W        W31959   7.779  11.410   2.340  0.2813 -0.3642 -0.2949
16151W        W31960  11.502  17.880   6.373  0.1268  0.2402  0.1724
16152W        W31961  11.091  10.975  11.506  0.1521 -0.1544 -0.2233
16153W        W31962  14.240  15.544   3.217 -0.2267  0.0071 -0.0199
16154W        W31963   5.738   5.125  13.115 -0.0568  0.0947 -0.1147
16155W        W31964   8.474  10.401  12.478  0.3899 -0.1807 -0.0097
16156W        W31965  13.479   8.360   1.869  0.2932  0.0887  0.0825
16157W        W31966  12.113   0.472   0.012 -0.0486  0.0808  0.0127
16158W        W31967   5.974   7.896  15.841  0.2126  0.0911 -0.0627
16159W        W31968   3.093   4.994   4.676 -0.0137  0.0533 -0.3257
16160W        W31969  15.194   3.758   0.105  0.0362 -0.0832  0.4447
16161W        W31970  16.261  15.459   0.897  0.0180 -0.0290  0.0102
16162W        W31971   0.342   1.417   6.007 -0.2762 -0.1170 -0.3723
16163W        W31972  16.490   0.689  12.026  0.0137 -0.1887  0.1858
16164W        W31973   3.287  13.338   9.934 -0.2117 -0.2308 -0.0742
16165W        W31974  11.554   8.029   4.553 -0.2142  0.1250 -0.0030
16166W        W31975   0.544   5.515   2.428  0.1249 -0.2807 -0.0191
16167W        W31976   6.911   6.835  13.307  0.0531  0.1084  0.2337
16168W        W31977  15.288   0.973  13.289 -0.0904 -0.1527 -0.2932
16169W        W31978   4.269  12.143  11.391 -0.1784 -0.4812 -0.3059
16170W        W31979   1.674   9.123   5.276  0.1424 -0.1181 -0.1215
16171W        W31980  11.413   0.317  14.436  0.1358  0.1333  0.2770
16172W        W31981  15.749  15.503   0.800 -0.0372  0.3798  0.2657
16173W        W31982  17.846  15.918  12.518 -0.0198  0.0601 -0.2973
16174W        W31983   7.859  15.689  13.504  0.1929 -0.1198  0.2354
16175W        W31984   0.150  15.849   0.664 -0.1603 -0.0880 -0.1098
16176W        W31985   3.767  13.625   0.907  0.0974 -0.0334  0.0891
16177W        W31986   1.901   7.724   2.755  0.0604  0.0990 -0.1013
16178W        W31987  12.309   2.800  15.924 -0.0379  0.1633  0.0242
16179W        W31988   0.103   1.433   3.636 -0.1110  0.1042 -0.2930
16180W        W31989   0.965   5.441  14.301 -0.0995  0.1352  0.0092
16181W        W31990   2.267  12.880   4.720  0.2698  0.2763 -0.2773
16182W        W31991  17.405  12.479   4.506  0.2047  0.0256 -0.0309
16183W        W31992   5.803   9.201   5.976 -0.2346  0.0389  0.2194
16184W        W31993  10.306   3.118   2.960  0.2542 -0.3088 -0.1807
16185W        W31994   2.323   3.264  14.233  0.4523 -0.0157  0.0767
16186W        W31995  11.500   2.723   0.530  0.1583  0.1448  0.2530
16187W        W31996   3.658   4.141  11.452 -0.0099  0.2703 -0.0588
16188W        W31997   9.362  13.759  10.885 -0.0654  0.1190 -0.1631
16189W        W31998  11.524   8.197   5.052  0.2123  0.0621  0.0048
16190W        W31999  12.811  13.338  16.030  0.0138  0.1124  0.1934
16191W        W32000   3.705   5.800   0.952  0.1604  0.0968  0.1844
16192W        W32001   0.031   6.060  13.794  0.0674 -0.0282 -0.0889
16193W        W32002   0.416   7.363   1.406 -0.2033  0.1691  0.0602
16194W        W32003   5.814  11.432  15.359  0.1107  0.1959  0.4210
16195W        W32004   0.084   9.162  10.757  0.0383 -0.0524  0.0533
16196W        W32005   2.244   1.059   1.105  0.1139 -0.1516  0.1680
16197W        W32006   6.942  17.558   1.444  0.2511 -0.1079  0.2075
16198W        W32007  13.596   8.547  10.926 -0.2726  0.2220  0.3145
16199W        W32008  13.487  14.156   3.418 -0.0732  0.0015 -0.0236
16200W        W32009   6.887   0.665  15.291 -0.1428  0.2468  0.0613
16201W        W32010  15.737  10.515   4.136 -0.0301 -0.1657 -0.1781
16202W        W32011  15.882  17.984   1.682 -0.4924 -0.0781  0.1254
16203W        W32012   3.552  13.572  15.348 -0.1591 -0.0798 -0.0768
16204W        W32013   8.276  13.868   2.929  0.2380  0.2901 -0.0891
16205W        W32014   1.751  12.294  15.638 -0.0811  0.0185  0.0857
16206W        W32015   3.321   0.005   0.192 -0.1386  0.3016  0.0417
16207W        W32016   6.457   9.580   5.797  0.0719  0.1929  0.2588
16208W        W32017   2.035   5.834   0.014 -0.2438 -0.0651 -0.2975
16209W        W32018   6.499   5.542   0.892  0.1147  0.0081  0.1430
16210W        W32019  14.666  16.433  11.976 -0.4527  0.0499  0.1026
16211W        W32020  17.685  13.303  11.950  0.0362 -0.0611  0.3284
16212W        W32021  11.018   0.523   6.122 -0.0951 -0.2643  0.1288
16213W        W32022   7.053   6.900   2.637 -0.2355 -0.0046 -0.0076
16214W        W32023   1.096   4.555   4.498 -0.0425  0.3349  0.2949
16215W        W32024  12.143  14.108   2.290 -0.3553  0.1364  0.1026
16216W        W32025   0.853   3.695   4.089  0.1109 -0.2991 -0.1010
16217W        W32026   9.060   6.294  15.297 -0.0732 -0.0346 -0.0006
16218W        W32027  14.730  13.790   3.217 -0.0301  0.1974  0.2244
16219W        W32028   6.629  12.551  13.538  0.2308 -0.0422 -0.4335
16220W        W32029  13.885  18.221   1.511  0.1783 -0.0035 -0.0129
16221W        W32030   0.312  12.156   0.715 -0.4255  0.1228 -0.0877
16222W        W32031   1.294  13.475   9.854  0.2694 -0.2466  0.2114
16223W        W32032  14.075   1.346  15.761 -0.1406 -0.2972 -0.0846
16224W        W32033   7.358  16.841   5.666 -0.0949  0.0070  0.2305
16225W        W32034   3.811  15.876  13.329 -0.2982  0.1614  0.1020
16226W        W32035   4.973   8.534  11.977  0.0514  0.1941  0.3303
16227W        W32036  17.895  11.210   2.964 -0.1594  0.4299 -0.1428
16228W        W32037  16.732  13.048   3.610  0.2127 -0.0774 -0.1050
16229W        W32038  13.946   5.141  14.875  0.1107 -0.0299  0.1398
16230W        W32039   7.935   4.767   2.335 -0.2546  0.1559 -0.0787
16231W        W32040  13.207  12.253   2.751  0.0245 -0.0060 -0.1098
16232W        W32041   5.803   8.263   2.870 -0.4473  0.1640 -0.0307
16233W        W32042   5.928   7.811  14.071  0.0460 -0.0026  0.0236
16234W        W32043   1.625   1.981   4.642  0.0887  0.2209  0.0589
16235W        W32044   6.280  17.773  12.997 -0.0129  0.0387 -0.0998
16236W        W32045   9.115   7.047   3.075 -0.2292  0.1762 -0.0959
16237W        W32046   7.768  14.035  10.173 -0.4461 -0.0464 -0.0431
16238W        W32047   8.868   8.696   2.968  0.0099 -0.1667  0.0595
16239W        W32048  11.783  17.848   0.245 -0.2115  0.1519 -0.2597
16240W        W32049   4.853  15.411  11.438  0.1454  0.3359  0.0034
16241W        W32050  11.487  16.777   0.217  0.1468  0.2334 -0.1568
16242W        W32051  11.782   9.797  12.044 -0.1525  0.3328  0.2308
16243W        W32052   0.783   1.790  15.405 -0.0928  0.1700  0.1932
16244W        W32053   2.485  10.726  13.679  0.3910 -0.0220  0.0119
16245W        W32054  17.008  12.512  14.940  0.0962  0.0411 -0.1748
16246W        W32055   4.544   9.399   0.735  0.2149  0.1435 -0.1180
16247W        W32056  16.246  14.665   4.010  0.2300 -0.2724 -0.1230
16248W        W32057   0.356   4.750   0.437  0.1723 -0.3045 -0.3729
16249W        W32058  14.597  13.161   4.927 -0.2810 -0.5116  0.1401
16250W        W32059   1.812   8.412  11.129  0.3616  0.1214  0.0530
16251W        W32060   5.187   4.491  14.786  0.2192 -0.2364  0.0730
16252W        W32061  17.378   7.577   1.424  0.0813 -0.0780 -0.1267
16253W        W32062  15.277  11.632   0.038  0.0704  0.0283 -0.0107
16254W        W32063   5.225   5.360  14.308 -0.1643 -0.1632  0.2138
16255W        W32064   3.621  10.713   0.995  0.1772 -0.1472 -0.1403
16256W        W32065  14.586  16.267  13.046  0.1573 -0.1705 -0.3013
16257W        W32066   8.557  17.493   5.820 -0.1755  0.4901  0.0578
16258W        W32067   7.057   8.819   4.161 -0.0059 -0.0147  0.2697
16259W        W32068   0.552   9.536   0.141  0.1981 -0.2880  0.0680
16260W        W32069   3.931  14.455   3.494  0.0704  0.0480  0.0653
16261W        W32070  13.956  13.110  10.647 -0.4534  0.0201  0.1353
16262W        W32071   9.731   5.763  13.401 -0.2533  0.1876  0.0498
16263W        W32072  13.099  11.346  11.757  0.2953 -0.2619  0.2384
16264W        W32073  13.068   2.727  11.917 -0.1214  0.0337 -0.2255
16265W        W32074  11.099  13.264  15.689  0.3936 -0.0174  0.1860
16266W        W32075  15.378  17.029   2.078 -0.1439  0.1068  0.1934
16267W        W32076   7.296  16.717  12.273  0.1002  0.3403  0.2909
16268W        W32077  13.874  11.210   3.089 -0.0053  0.0882  0.1973
16269W        W32078   8.968   6.838  14.728 -0.0431  0.0190 -0.0657
16270W        W32079  15.528  11.164  12.971 -0.2427  0.3184 -0.2636
16271W        W32080  17.907   8.829  14.168 -0.1359 -0.3256 -0.0609
16272W        W32081   2.845  12.457   2.157 -0.1498  0.0923 -0.0956
16273W        W32082  10.349  10.036   0.420 -0.0258 -0.0232  0.3477
16274W        W32083   8.286   0.978  14.176  0.0243  0.1194  0.0518
16275W        W32084   7.080   1.255  14.658 -0.2008  0.1558 -0.2684
16276W        W32085   9.654   5.395  12.066 -0.0472 -0.0842  0.1797
16277W        W32086   6.624   2.737   3.447  0.0316  0.2126  0.0772
16278W        W32087   7.497   0.443  15.164 -0.0640  0.1890  0.0302
16279W        W32088  13.426   0.630   0.603 -0.1326  0.0137  0.0185
16280W        W32089  10.354   4.381   0.128  0.0263  0.0109 -0.0481
16281W        W32090  13.370  10.547  15.135 -0.0647 -0.1337  0.1950
16282W        W32091  12.437   1.174  12.004  0.1484  0.0799  0.0856
16283W        W32092  14.085  16.054  16.046 -0.3948 -0.1560  0.0362
16284W        W32093  10.188   3.056   1.097  0.0123 -0.1650  0.3036
16285W        W32094   4.589  17.500  12.004 -0.1614  0.0567  0.0754
16286W        W32095  16.595  14.176   4.315 -0.2018  0.3743 -0.1559
16287W        W32096   9.926   7.438   2.075 -0.2327  0.0937  0.2363
16288W        W32097   0.644  10.987  15.651 -0.0297  0.1400  0.2077
16289W        W32098  12.077  13.151  13.927 -0.1121 -0.1094 -0.1351
16290W        W32099   8.844   4.469   4.498 -0.2164  0.1313  0.0182
16291W        W32100  12.244   1.815   1.966 -0.1916  0.0937  0.2440
16292W        W32101   9.922   6.054   1.248  0.0862  0.2896 -0.0668
16293W        W32102   1.584  13.095  13.407 -0.2044 -0.1118  0.2576
16294W        W32103   2.219  11.833   9.977  0.1711  0.2317  0.0773
16295W        W32104   0.220   7.202   4.049  0.1211  0.0233  0.0050
16296W        W32105   4.164   7.039   3.265 -0.0319  0.1544 -0.0809
16297W        W32106  14.781  16.285   3.362  0.2006 -0.0303  0.0673
16298W        W32107  15.891  15.088   2.667  0.0569 -0.2552 -0.0240
16299W        W32108  11.289   4.170  13.900 -0.0234  0.1496  0.1797
16300W        W32109  15.970  13.183  11.488 -0.0156 -0.4096  0.3004
16301W        W32110  12.270   4.476  10.951  0.1221 -0.0700 -0.0294
16302W        W32111  14.415   0.024   1.620 -0.0808 -0.0685  0.2173
16303W        W32112   6.491  17.734  12.133  0.2688  0.0467 -0.2685
16304W        W32113  10.307  10.265  12.157 -0.1749  0.0759 -0.0575
16305W        W32114  15.845  15.952  14.762 -0.2525  0.0726 -0.1804
16306W        W32115  10.518   8.089   2.602  0.1506  0.0908  0.2795
16307W        W32116   5.492  10.263  15.991  0.0733  0.0945  0.2819
16308W        W32117   0.227   9.152   0.464  0.0619  0.1243  0.1261
16309W        W32118  10.788  17.812  13.322  0.1074 -0.0751  0.0401
16310W        W32119   5.603   4.675  13.242  0.1626 -0.1997 -0.0481
16311W        W32120   5.191  14.762   0.266  0.0393 -0.0298  0.1683
16312W        W32121   1.555   5.601  12.410 -0.2114 -0.2338  0.0960
16313W        W32122  16.602   8.899  12.819 -0.0648 -0.0669  0.1791
16314W        W32123   0.230   5.654   0.891  0.3537 -0.2442  0.3940
16315W        W32124  11.068   9.681   4.632 -0.0434 -0.2008 -0.0569
16316W        W32125   7.150  11.291   3.180  0.0220  0.1298 -0.1407
16317W        W32126  15.930   3.548  12.859 -0.1509  0.1755  0.1034
16318W        W32127   3.929   3.498   4.486  0.3426  0.0571 -0.0833
16319W        W32128   2.411   1.043  11.385  0.2898  0.0509  0.1592
16320W        W32129  15.046   6.499   1.186 -0.0810 -0.0497  0.2516
16321W        W32130   7.152   7.782   2.693 -0.2217  0.2812  0.3040
16322W        W32131  11.786  15.263  12.690 -0.2738 -0.1628 -0.0944
16323W        W32132   3.356   6.413   2.807  0.2438 -0.0322 -0.1612
16324W        W32133  12.891  10.538   3.344 -0.0681 -0.1983 -0.0868
16325W        W32134   9.556   9.379   3.270 -0.0475 -0.2218  0.1894
16326W        W32135  16.144  17.444   5.450 -0.0986  0.1440 -0.0891
16327W        W32136   7.242  17.150  12.010  0.0811 -0.1123  0.2524
16328W        W32137  11.510   5.118  11.085  0.0141  0.1594 -0.1345
16329W        W32138  16.868   4.993   5.214 -0.0442  0.1844  0.0743
16330W        W32139  17.241  15.179   2.743 -0.0129  0.0391 -0.0332
16331W        W32140  16.165   6.754  14.675  0.0195  0.2336  0.2073
16332W        W32141  15.855   2.599   5.141  0.3740  0.0670 -0.0275
16333W        W32142  17.902  14.171  16.015 -0.2462 -0.2920 -0.5009
16334W        W32143   9.549   5.554   0.620 -0.0262 -0.1404  0.0838
16335W        W32144  17.841  12.850   2.744  0.0411 -0.3672 -0.2775
16336W        W32145  14.456   6.445  15.948 -0.1192  0.2227 -0.1295
16337W        W32146   4.294   6.180  15.826  0.1634 -0.1364  0.0595
16338W        W32147  15.248   0.496   0.983 -0.0733  0.0148  0.1161
16339W        W32148   1.208   0.292   1.828  0.0342 -0.1952  0.1852
16340W        W32149   1.925  14.645  12.176 -0.1821 -0.2076  0.0713
16341W        W32150  17.311  17.528   3.165  0.3453  0.1529  0.0172
16342W        W32151  17.394  11.550   0.574  0.1414  0.3481  0.1917
16343W        W32152   2.773   8.577   1.930 -0.1420 -0.3528 -0.2251
16344W        W32153  10.061   6.688   0.612  0.0933  0.1934 -0.1888
16345W        W32154   6.217  14.132   5.691 -0.1847 -0.0424 -0.2355
16346W        W32155  12.561  11.842   2.270 -0.1756 -0.3778 -0.0195
16347W        W32156  15.658  17.323   2.586 -0.0752  0.2093 -0.0280
16348W        W32157   2.278   3.877  12.318 -0.1406  0.0203 -0.1982
16349W        W32158   3.558   6.815   2.582  0.4062  0.0941  0.2663
16350W        W32159   2.910  11.060   3.613 -0.0326  0.1277 -0.1084
16351W        W32160   5.118  14.386  15.526 -0.0459  0.0848  0.1769
16352W        W32161  17.333   9.283   2.513  0.1419  0.1512  0.3318
16353W        W32162   9.862  17.400  10.985  0.0005 -0.1652 -0.1615
16354W        W32163   5.321   5.250  11.914  0.1399  0.1360 -0.0521
16355W        W32164  13.933   6.744   3.350  0.4816 -0.1428 -0.1992
16356W        W32165  11.661  16.446   3.311 -0.0848  0.0938 -0.0660
16357W        W32166  15.515   4.713  11.436 -0.1818 -0.1601  0.0337
16358W        W32167   4.261   2.520   5.338  0.2180 -0.2520 -0.2661
16359W        W32168  12.183  15.596  12.725  0.0714 -0.0588 -0.0858
16360W        W32169   8.279  15.698  12.259 -0.0333 -0.1527 -0.7987
16361W        W32170   5.711  15.890   2.697 -0.0043 -0.0561 -0.0209
16362W        W32171  15.495   1.517   3.756  0.2157  0.0788  0.2959
16363W        W32172  17.846   8.932  12.868 -0.0569 -0.0439 -0.1671
16364W        W32173  13.601   1.886  13.088 -0.1651  0.2960  0.0507
16365W        W32174  12.728  12.857  13.278  0.0142  0.1077  0.1591
16366W        W32175   6.253  11.294   1.153 -0.1097 -0.2474 -0.1880
16367W        W32176  10.016   4.947   4.303 -0.3567 -0.2481  0.0067
16368W        W32177   9.950  17.793   3.505 -0.3438  0.2715 -0.0253
16369W        W32178  14.951  12.217   2.734  0.3629 -0.1389  0.0757
16370W        W32179   6.056  14.146  15.099  0.1262 -0.1178 -0.1638
16371W        W32180  15.794   6.545  11.920 -0.1270  0.3551 -0.1171
16372W        W32181   6.890   3.177  11.694 -0.1134  0.2106  0.1711
16373W        W32182   8.364  18.200  14.896 -0.0887 -0.2247 -0.0084
16374W        W32183  14.131   7.915  10.592 -0.0503 -0.1466  0.0294
16375W        W32184   0.138   4.972  14.100 -0.0782  0.0122 -0.1103
16376W        W32185   3.719  16.231  14.614 -0.1492  0.2430  0.0127
16377W        W32186   5.895   3.484   0.668  0.1162  0.2038  0.4674
16378W        W32187   3.098   1.172  15.026 -0.1344  0.1184  0.0719
16379W        W32188  18.222  12.899   3.694  0.0610 -0.3921 -0.0635
16380W        W32189  15.281   3.723  12.225 -0.2608  0.0504 -0.1278
16381W        W32190   2.171  15.901  14.413 -0.1479  0.0314 -0.4044
16382W        W32191   6.458   6.384   1.263 -0.1453  0.0553 -0.0086
16383W        W32192  16.647   8.182   0.152 -0.1794  0.1953 -0.0026
16384W        W32193  15.054   7.647  15.588 -0.0305 -0.0313  0.1101
16385W        W32194  14.349   6.283  10.536  0.1376 -0.1696  0.0568
16386W        W32195   7.153  12.402   3.708 -0.0298  0.3935 -0.0436
16387W        W32196  15.318   5.685   2.597  0.1083 -0.0908  0.0275
16388W        W32197  16.114  10.341   4.388 -0.1286  0.1823 -0.2222
16389W        W32198   8.661   4.279   0.868 -0.0317 -0.1274  0.2161
16390W        W32199   7.592   1.922  11.695 -0.1313  0.1554  0.0126
16391W        W32200   0.653   7.993   3.069 -0.0946 -0.1579  0.0532
16392W        W32201   6.582  14.304   0.224  0.1668  0.0627  0.2094
16393W        W32202   0.577   7.342   0.777  0.1367  0.0049  0.1237
16394W        W32203  15.642  17.529   5.263 -0.1769  0.0870  0.0584
16395W        W32204   5.596   4.961  12.193 -0.1286  0.1069 -0.0707
16396W        W32205   6.443  13.131   1.931 -0.0203 -0.2612  0.3292
16397W        W32206  15.440   0.756  11.316 -0.0413  0.3906  0.0289
16398W        W32207  10.474  11.906   5.130 -0.1480 -0.2557 -0.0026
16399W        W32208  11.584   4.030   3.540  0.3999  0.2644  0.2050
16400W        W32209   3.558  16.852  12.604  0.2553 -0.1144 -0.2134
16401W        W32210  16.299   2.712   3.070  0.1847 -0.0585 -0.0098
16402W        W32211   9.394  16.609   2.243  0.1853  0.1309  0.1455
16403W        W32212   5.830   5.789   1.780  0.1351 -0.0185  0.2040
16404W        W32213  11.795  11.737  12.322  0.1309 -0.0051  0.1201
16405W        W32214  15.645  16.785   4.722 -0.3329 -0.0515 -0.1585
16406W        W32215   5.887  17.133   0.765 -0.0374 -0.1346  0.2797
16407W        W32216   8.000  12.458  14.138  0.2474  0.1615  0.0273
16408W        W32217  17.836  16.572  14.832 -0.0990 -0.3792 -0.2485
16409W        W32218  16.557   4.604   3.537  0.1005 -0.3947  0.3083
16410W        W32219   4.011   9.442   4.082 -0.0734  0.1076 -0.0002
16411W        W32220   3.674   9.967  15.716 -0.0030 -0.3361 -0.2177
16412W        W32221  16.462   4.219  11.900  0.2225  0.0837 -0.2010
16413W        W32222   9.010   5.478   3.475  0.2016 -0.0314 -0.0549
16414W        W32223  16.731   2.863  16.056  0.1696  0.0820 -0.0371
16415W        W32224  17.025  14.202   0.489 -0.2897  0.1404 -0.3871
16416W        W32225   0.148   3.403  12.268 -0.0044 -0.1736  0.0037
16417W        W32226   9.222  10.951  13.227 -0.1313  0.2925 -0.0957
16418W        W32227   2.234   4.201   3.429  0.3538 -0.1076  0.0802
16419W        W32228   1.630   5.697  12.988  0.0408  0.1413  0.0083
16420W        W32229  10.432  17.768   4.877  0.0487  0.4327  0.1891
16421W        W32230   4.633   2.195  14.805  0.0210 -0.1864  0.0798
16422W        W32231   7.698   6.043  11.868  0.0710 -0.0711  0.0261
16423W        W32232  17.157   7.395   0.613  0.2332 -0.2772  0.1854
16424W        W32233  15.154   9.002  13.566 -0.1188 -0.0391  0.0783
16425W        W32234  11.815   1.981  11.688  0.0200  0.0635 -0.1274
16426W        W32235  10.420   6.259   0.343 -0.0976 -0.2290  0.1536
16427W        W32236   4.178   4.976   2.235 -0.0386  0.0849 -0.1596
16428W        W32237  13.812  14.646   1.137  0.2550  0.1039 -0.2451
16429W        W32238   9.132   6.776  15.287  0.2258  0.0078  0.1704
16430W        W32239  14.497  11.469  11.507 -0.0864 -0.3549 -0.2421
16431W        W32240  15.633   4.385   2.747  0.1155 -0.1450  0.0110
16432W        W32241  12.501  17.834  13.674 -0.0898  0.1279  0.0349
16433W        W32242   7.892  14.769  15.635 -0.0287  0.1080  0.0692
16434W        W32243  18.164   0.878  15.967  0.1351  0.1191 -0.1701
16435W        W32244  11.313   2.716   2.874  0.1427  0.0182  0.1194
16436W        W32245   9.314   9.868   1.893  0.0287 -0.0762  0.1605
16437W        W32246   4.476   6.021  10.946 -0.1675 -0.2123  0.0793
16438W        W32247  13.404   9.108   1.177 -0.1477 -0.0629  0.3182
16439W        W32248   5.324   4.261   2.101  0.0013  0.2910  0.2016
16440W        W32249  15.816  14.901   3.962  0.1818  0.1790  0.0878
16441W        W32250  13.828  11.669  15.795 -0.5014  0.1249 -0.0686
16442W        W32251  15.236   3.483  15.277 -0.2403 -0.2452 -0.1971
16443W        W32252   5.816  12.862  13.666  0.1036 -0.2045 -0.1231
16444W        W32253  14.624  10.329   1.328  0.1525  0.2039 -0.2988
16445W        W32254   9.315   2.016  10.575 -0.1104  0.1847 -0.2228
16446W        W32255  13.096  11.031  12.335 -0.2936  0.0461 -0.1255
16447W        W32256  11.905  11.206  14.041  0.2033  0.2225 -0.2291
16448W        W32257   9.681  11.601  13.666  0.2152  0.0609 -0.0189
16449W        W32258  15.099  14.639  12.052 -0.0077  0.0610 -0.3420
16450W        W32259  18.038  16.914   0.610 -0.2950 -0.1307 -0.0749
16451W        W32260  11.190  13.353   0.519  0.1314  0.1141  0.0308
16452W        W32261   8.868   2.480   3.681  0.2302  0.0536 -0.1044
16453W        W32262   7.510   0.283  13.658  0.1467 -0.2467  0.2682
16454W        W32263   2.822   8.501   4.845  0.1638  0.3045  0.1264
16455W        W32264   6.728   5.186  15.500 -0.3754  0.1682 -0.0017
16456W        W32265   1.049  15.237   1.507 -0.2116  0.0157 -0.1111
16457W        W32266   0.399  15.497  12.687 -0.1978  0.0345 -0.2626
16458W        W32267  15.971   5.013   2.441 -0.2399  0.2346  0.3230
16459W        W32268  14.620   9.552   3.773  0.3002 -0.1713  0.2447
16460W        W32269  11.870   1.395   4.515 -0.2217 -0.0466  0.3281
16461W        W32270  12.033  14.167   0.939 -0.3484  0.2204  0.4322
16462W        W32271   5.929  10.908   3.641  0.0490  0.0467  0.0829
16463W        W32272   7.160  13.533   4.027 -0.3053  0.0939 -0.2677
16464W        W32273  10.444  12.013  14.298  0.0672  0.1706 -0.1333
16465W        W32274  11.711   0.451  13.544  0.1222 -0.1787  0.3257
16466W        W32275   0.713  16.914  11.075 -0.2170  0.1338 -0.1219
16467W        W32276  17.172   0.653  16.031  0.0575 -0.3167 -0.0458
16468W        W32277  14.374  12.821  13.952 -0.4213  0.0747 -0.0843
16469W        W32278  11.762   4.564  14.722 -0.0633  0.0125 -0.0266
16470W        W32279   7.071  14.158   0.500  0.1716 -0.0957  0.0463
16471W        W32280   2.620   4.376  11.314 -0.0531  0.3197  0.1421
16472W        W32281   0.932   8.168  11.104 -0.1459  0.2400  0.0920
16473W        W32282  13.839   4.243  12.245  0.0784  0.0438 -0.1383
16474W        W32283   4.833   2.192   2.708  0.0521 -0.3057 -0.0647
16475W        W32284  12.421  17.881   2.629  0.0183  0.3438 -0.0789
16476W        W32285   0.207  16.776  12.314  0.3804  0.0088 -0.2954
16477W        W32286   9.997  14.770   2.802 -0.0288  0.2579 -0.0274
16478W        W32287   2.468   7.744   4.316 -0.0289  0.1085  0.2470
16479W        W32288  15.430   4.387  14.455 -0.1753  0.3111  0.1582
16480W        W32289  12.928  14.528  14.402 -0.0082  0.1046  0.0388
16481W        W32290  11.355   4.248  14.650 -0.2871  0.3506  0.0090
16482W        W32291   1.864   9.303  12.736 -0.3543 -0.2253 -0.2506
16483W        W32292   6.157   3.010   3.485  0.3045 -0.2084 -0.0305
16484W        W32293   4.376   0.074   0.552 -0.3126 -0.2514  0.2620
16485W        W32294  12.392  14.665  13.754  0.0841  0.2337 -0.2293
16486W        W32295   2.166  13.904   5.016  0.1990  0.1850 -0.2641
16487W        W32296  12.477  15.400  14.530 -0.2346  0.0669  0.1282
16488W        W32297   1.837   8.353   2.029 -0.1344  0.2735  0.1860
16489W        W32298   9.717  11.496  15.004 -0.3073 -0.0194  0.0275
16490W        W32299   7.761  15.517  15.838  0.1617  0.2957 -0.0163
16491W        W32300   0.082   1.652  12.840  0.0289  0.0788 -0.1564
16492W        W32301  17.899   1.835   4.350  0.0024  0.2552  0.0594
16493W        W32302   2.710  17.498   3.296 -0.0175  0.0051 -0.1251
16494W        W32303  12.210   9.517  11.225 -0.2804 -0.2153 -0.1728
16495W        W32304   7.384  13.579  15.796  0.1914  0.2287  0.0375
16496W        W32305  10.073   7.633  11.306  0.1637  0.0657  0.0230
16497W        W32306  15.016  12.538  11.833 -0.0238  0.1825 -0.0696
16498W        W32307   1.845   8.358   5.017  0.0122 -0.0408 -0.1140
16499W        W32308   5.333   5.879  12.642 -0.0689 -0.1530 -0.2907
16500W        W32309  11.753  11.550   1.204  0.4039 -0.3019 -0.2241
16501W        W32310   4.185   8.590   1.807  0.0573  0.0394 -0.0057
16502W        W32311  12.624   9.825  14.357  0.4078 -0.1847  0.0577
16503W        W32312   6.862   0.704   3.820  0.3421 -0.0014  0.2594
16504W        W32313   2.059   9.344   1.771 -0.2213  0.0582 -0.0098
16505W        W32314   9.467  12.167   3.539  0.0443 -0.4230  0.1231
16506W        W32315  14.696   2.668  11.403 -0.0814 -0.0328 -0.0405
16507W        W32316  13.497   3.650  15.602  0.0865  0.0418 -0.2945
16508W        W32317   7.350  13.211  15.058  0.0975  0.1746  0.2087
16509W        W32318  14.632  13.928   2.261 -0.0431  0.0167 -0.0482
16510W        W32319  17.071  15.029  14.733  0.1777 -0.1849  0.0100
16511W        W32320   3.558  13.993   0.059 -0.2228 -0.1310 -0.0062
16512W        W32321  11.996  15.849  14.295  0.0968  0.0285 -0.0036
16513W        W32322   8.492   9.011  10.066 -0.3090 -0.1987 -0.1976
16514W        W32323   0.503   2.598  15.432  0.0497  0.0655  0.0113
16515W        W32324   2.603   1.593  12.398 -0.1671  0.1982 -0.2381
16516W        W32325  18.084  16.781   4.887  0.2196 -0.0504  0.0085
16517W        W32326   7.134  16.352   1.303 -0.2201 -0.1969  0.5054
16518W        W32327   7.124  11.831  13.792  0.4670 -0.2192 -0.3564
16519W        W32328   1.400   1.605   0.080 -0.2000  0.0598  0.0644
16520W        W32329   1.800   6.447   0.837 -0.2434 -0.0192  0.0645
16521W        W32330   4.832  17.158   3.926 -0.0112  0.0956  0.2152
16522W        W32331   4.870  10.427  13.061 -0.3450 -0.2044  0.1750
16523W        W32332  15.803  15.653  14.327  0.0992 -0.0222  0.0447
16524W        W32333   2.676   4.319  13.227  0.0957  0.0346 -0.1876
16525W        W32334  17.453   7.213  14.197  0.0847 -0.2091  0.0225
16526W        W32335   6.405   0.636  15.390  0.1999  0.0872  0.1901
16527W        W32336  11.322   4.112   3.969  0.0495  0.5131  0.1818
16528W        W32337  17.688  15.671   5.347 -0.2846 -0.1711  0.0315
16529W        W32338   9.202   5.637   4.943 -0.5246  0.1579 -0.0263
16530W        W32339   7.567  14.141   2.066  0.1047  0.1949  0.1392
16531W        W32340  13.163   2.223   5.217  0.0232 -0.2208  0.0430
16532W        W32341  10.533   7.578  11.527  0.1527  0.0683 -0.1158
16533W        W32342   1.113   5.020   5.447 -0.0487  0.0612  0.0332
16534W        W32343  15.532   0.966   3.997  0.2040 -0.2153  0.2856
16535W        W32344   6.599  10.024   1.045 -0.0744 -0.0457 -0.0094
16536W        W32345  17.823  11.336   2.038  0.1155 -0.1178 -0.0626
16537W        W32346  12.717  15.908  15.773  0.0947 -0.1005  0.0628
16538W        W32347  13.404  16.058  11.106 -0.1489 -0.1235 -0.1188
16539W        W32348   4.447   4.951  12.965 -0.1860 -0.4032  0.1310
16540W        W32349   1.442  18.063   0.923  0.2593 -0.1882  0.0232
16541W        W32350   4.705  16.837   3.468  0.0824  0.1028 -0.1473
16542W        W32351   6.654  12.575   0.362  0.0048  0.1744 -0.1752
16543W        W32352  12.948   3.790   5.157 -0.0696 -0.2201 -0.2929
16544W        W32353   9.510   8.695   3.350 -0.4399  0.0620  0.1618
16545W        W32354   8.647   3.795  13.068 -0.2701  0.1814  0.0024
16546W        W32355   6.929   9.776   3.217 -0.1256  0.0721  0.0878
16547W        W32356   2.911   8.309   0.702  0.0350 -0.1918 -0.0505
16548W        W32357   8.518  13.321   0.810 -0.2187 -0.0672  0.2637
16549W        W32358  14.270  14.407   1.130 -0.0414  0.2521  0.2454
16550W        W32359   5.819   6.527  16.061 -0.3619 -0.0834  0.2686
16551W        W32360   1.304   8.835  13.241 -0.1325 -0.1337  0.1107
16552W        W32361  14.680  16.506   4.886 -0.2087 -0.0155  0.0336
16553W        W32362   1.492   2.843  10.469 -0.2677  0.1278 -0.0956
16554W        W32363   1.273   8.498  14.494  0.1100  0.2111  0.0984
16555W        W32364  16.272  14.475  14.534 -0.0698 -0.1706 -0.4478
16556W        W32365  14.022  17.036   3.705 -0.1906 -0.0533  0.4125
16557W        W32366   9.492   8.607   4.628 -0.2440 -0.2438 -0.0410
16558W        W32367   7.823  12.943   1.636 -0.1245 -0.0760 -0.1309
16559W        W32368  14.784   3.721  15.390  0.0534  0.1011 -0.0705
16560W        W32369  15.538   9.966  13.827  0.0184  0.1446  0.3062
16561W        W32370   6.892   1.318  11.707 -0.2156  0.0638 -0.4931
16562W        W32371  12.372  14.135   5.337 -0.2291  0.1110  0.0799
16563W        W32372   4.499   4.799   4.922  0.2118  0.0629 -0.2144
16564W        W32373   7.514  12.049  12.133  0.1000 -0.0560 -0.0548
16565W        W32374   0.598  13.867   6.334  0.1075  0.0982  0.1495
16566W        W32375   6.354   6.287  11.056  0.0594 -0.1145  0.1780
16567W        W32376  11.589   7.244  11.274 -0.1314 -0.3820  0.1364
16568W        W32377  12.591  11.627   0.619  0.2865 -0.0490  0.1498
16569W        W32378  15.431   2.537  15.849 -0.0807 -0.2749  0.1260
16570W        W32379   9.610   7.115  12.011  0.1737 -0.0290 -0.1045
16571W        W32380  15.995  18.128   2.777  0.0864  0.0052  0.0602
16572W        W32381  14.627   6.873  14.506 -0.1798 -0.1125 -0.2635
16573W        W32382  16.742   9.988   2.022 -0.0437  0.0420  0.1406
16574W        W32383   9.169   9.313   2.716  0.1368  0.0753 -0.1496
16575W        W32384   8.294  13.577  12.408 -0.0853  0.0184  0.0170
16576W        W32385   0.636  10.223  10.000  0.0790  0.3243 -0.1009
16577W        W32386   7.902  12.282  11.878  0.1899 -0.0378  0.1403
16578W        W32387  12.529   2.614   1.242  0.1835 -0.2959 -0.1831
16579W        W32388  14.767  13.051  15.268  0.0424  0.0740 -0.0170
16580W        W32389   8.765   9.678  15.699 -0.1138 -0.1890 -0.0274
16581W        W32390  10.307   2.384   1.423  0.0614  0.0124  0.1744
16582W        W32391  17.161   9.845  12.883  0.1788 -0.3768 -0.1447
16583W        W32392  11.577  15.552   2.128  0.4362 -0.0896 -0.2946
16584W        W32393  14.557  13.019  12.437 -0.0142  0.0079  0.0532
16585W        W32394   9.704  17.962   0.149 -0.0425 -0.1197 -0.1727
16586W        W32395   0.815   0.768  15.397 -0.1889  0.0579  0.2029
16587W        W32396  11.978  13.179   0.047  0.1962  0.1074  0.1801
16588W        W32397  14.702  11.490  11.023  0.0461 -0.1877 -0.0887
16589W        W32398   6.149  12.135  11.895  0.4448  0.1394  0.1129
16590W        W32399  16.951  14.063  15.542 -0.1186  0.0830  0.0548
16591W        W32400   8.241  17.691  13.822  0.1158 -0.0266  0.0783
16592W        W32401   9.929  13.219  13.869 -0.1035 -0.3177  0.4400
16593W        W32402   7.790   0.237  10.216 -0.0052  0.2384 -0.1072
16594W        W32403  15.824   8.098   4.902 -0.2304  0.0486 -0.1044
16595W        W32404   5.749  13.408   2.411 -0.1305  0.0823  0.1669
16596W        W32405   8.719  14.541  11.019  0.0011  0.0438  0.1027
16597W        W32406  17.604  17.331  15.880  0.2420 -0.0760 -0.0129
16598W        W32407   4.532  16.954   0.061  0.3947 -0.1248  0.0986
16599W        W32408   8.058   9.098   0.714  0.1712 -0.0712 -0.1588
16600W        W32409  10.703  13.339  15.963 -0.0614  0.0007 -0.0614
16601W        W32410   4.555   9.000  15.348  0.2333  0.0196  0.3007
16602W        W32411  10.468  17.323   1.374  0.3813  0.1672  0.0644
16603W        W32412   7.129   5.039  14.334  0.1049  0.0070 -0.0483
16604W        W32413   9.008   0.276   1.670 -0.0681 -0.1764  0.0711
16605W        W32414  13.961  17.061   0.033  0.1750  0.0148  0.0411
16606W        W32415  17.584   0.761   2.573 -0.0549  0.2476  0.2408
16607W        W32416  17.154   2.137  10.973  0.1071  0.1574 -0.1105
16608W        W32417   0.593  14.784   0.110 -0.0666  0.1246 -0.1407
16609W        W32418  15.898   8.994  14.807  0.2831  0.1105 -0.0970
16610W        W32419   2.114  14.298   3.498 -0.0623  0.0534  0.1199
16611W        W32420  16.037   5.007  14.464  0.0998 -0.0079  0.0780
16612W        W32421  17.506   6.036  15.499  0.1190 -0.2421  0.1629
16613W        W32422  15.359   3.145  12.222 -0.1818  0.1366  0.4218
16614W        W32423  12.975  17.354   1.495  0.1785  0.4798 -0.1169
16615W        W32424  15.645  17.026  11.713  0.0929  0.0562 -0.0691
16616W        W32425   8.765  17.339   3.286 -0.1701  0.0203 -0.2687
16617W        W32426   8.500  11.730  15.627  0.2653  0.0154  0.3192
16618W        W32427  12.076   2.617   2.032  0.2157  0.0319 -0.0101
16619W        W32428   9.684   2.693   2.620  0.1577 -0.0755 -0.1542
16620W        W32429  17.740  10.463   3.988  0.1321  0.1073 -0.1065
16621W        W32430  11.667   8.060   0.566  0.0234 -0.2775  0.0399
16622W        W32431   0.134   1.745   1.996  0.0304  0.0511  0.2046
16623W        W32432  14.983  16.386   5.324  0.1562 -0.2039  0.2648
16624W        W32433   5.162  13.753  11.879  0.0453  0.1196  0.0740
16625W        W32434  15.738   9.943   2.679  0.0382 -0.2349 -0.0118
16626W        W32435  12.940  16.874  13.967 -0.0272 -0.0533  0.1085
16627W        W32436  15.514   0.282   5.600  0.0568 -0.0290  0.0047
16628W        W32437  18.083  16.416   3.525  0.3775  0.0202 -0.0821
16629W        W32438  10.406   3.230  15.830 -0.1596 -0.3549 -0.0670
16630W        W32439   9.166   1.388  12.619  0.0628  0.2737  0.3612
16631W        W32440  12.841   6.411  13.073 -0.1197 -0.1946 -0.2314
16632W        W32441   7.123  12.600   4.188  0.0167 -0.0942 -0.0193
16633W        W32442   2.325   7.331  14.074 -0.4836  0.0146  0.0194
16634W        W32443  17.837  11.806   1.860 -0.1387 -0.0622  0.1149
16635W        W32444   2.282   9.697   2.566  0.2234  0.0455 -0.0379
16636W        W32445  16.309  13.555  13.065  0.0204  0.0780 -0.0004
16637W        W32446  10.680  16.303   3.903  0.0561 -0.0389  0.2069
16638W        W32447  11.127   4.658   2.603 -0.0149 -0.1082 -0.1691
16639W        W32448  14.369   8.789  15.907  0.0895  0.0833 -0.3704
16640W        W32449  10.220  11.818   1.626 -0.0655 -0.2703 -0.1950
16641W        W32450  14.222   5.470   5.298 -0.0916  0.1063 -0.0732
16642W        W32451   4.332   2.005  11.842  0.0129 -0.0775  0.0220
16643W        W32452   7.434   7.550   5.093  0.1759 -0.4011  0.3670
16644W        W32453   8.080   0.143   5.092  0.0476 -0.3611  0.0255
16645W        W32454   6.533   7.055   3.429  0.4274  0.0587  0.1758
16646W        W32455  10.840  11.670  15.984 -0.0543  0.2052 -0.0733
16647W        W32456   7.686  17.349  13.154 -0.0657 -0.0263 -0.0117
16648W        W32457  16.806   2.596  14.063 -0.1004 -0.2318  0.0787
16649W        W32458   5.371   0.152   0.497 -0.1209 -0.3882  0.3165
16650W        W32459   9.433  11.350  12.667 -0.1115  0.0430  0.2433
16651W        W32460   8.543   9.148  13.590 -0.2449 -0.0426  0.0007
16652W        W32461   7.269  12.136  14.615 -0.1106 -0.0559  0.0984
16653W        W32462   7.553  12.912  15.519  0.0906 -0.0809 -0.2310
16654W        W32463  16.881  11.907   1.778  0.1819  0.0470 -0.0423
16655W        W32464  11.090   3.922   5.166 -0.1828 -0.0790  0.1429
16656W        W32465   4.304   5.571  11.209  0.0937  0.0391  0.1093
16657W        W32466   4.514   7.510  12.083  0.2415  0.0124 -0.1540
16658W        W32467   6.874   6.925   3.111 -0.0628  0.0145 -0.3220
16659W        W32468  15.806   9.136   0.276 -0.2756  0.1663  0.1989
16660W        W32469   2.714  15.311  12.262 -0.0155  0.2217  0.0267
16661W        W32470  13.725  15.370  15.032  0.2446  0.0498  0.2114
16662W        W32471  15.369   7.434   2.675 -0.1778 -0.0894  0.1514
16663W        W32472  17.883  13.926   0.429 -0.0867  0.0692 -0.2349
16664W        W32473   8.347  17.729   0.889 -0.0630 -0.0054  0.0095
16665W        W32474   7.079  13.958  12.370  0.0925  0.1460  0.2365
16666W        W32475   7.830  15.153   3.696  0.0872  0.0076  0.0090
16667W        W32476  12.692   7.438   3.079  0.2735  0.1962  0.0279
16668W        W32477  12.907  14.990   0.857 -0.0398  0.0677  0.1115
16669W        W32478   4.431   3.111   0.765 -0.4096 -0.0881 -0.3185
16670W        W32479  10.177   6.344  13.877  0.1191 -0.0173 -0.1206
16671W        W32480  16.775   5.425  14.160 -0.2537 -0.3923  0.1386
16672W        W32481   1.652   0.151  14.878  0.0566  0.3154  0.3203
16673W        W32482   6.753  10.907   4.490  0.2120  0.1552  0.5170
16674W        W32483  12.983   3.759  11.978 -0.1487  0.0310  0.2613
16675W        W32484  14.337   4.535  15.461 -0.2251 -0.1743 -0.0420
16676W        W32485   8.759   9.715   0.596  0.0488  0.1915  0.2269
16677W        W32486  16.861  11.056  14.980  0.0405  0.3408  0.0699
16678W        W32487   4.976   7.317   4.658  0.0810 -0.2570  0.0948
16679W        W32488  13.226   1.047  10.190 -0.2132  0.0808  0.0856
16680W        W32489   5.689   9.505  13.452 -0.0021 -0.1917 -0.1721
16681W        W32490  16.510  15.996  11.765 -0.1487  0.1774 -0.0650
16682W        W32491   1.308   0.057   1.367  0.1290  0.2166  0.1285
16683W        W32492   6.123  14.093  12.428 -0.1596  0.2378 -0.2842
16684W        W32493  14.911  17.488  15.535  0.0127 -0.1335 -0.1617
16685W        W32494  11.288  13.450  10.982 -0.0618 -0.0602  0.0142
16686W        W32495   5.845  15.143   3.697  0.0516  0.1532  0.0975
16687W        W32496   2.008   3.411  13.582  0.3485 -0.2346 -0.0719
16688W        W32497   1.705  11.355  14.811  0.0383  0.1301  0.0334
16689W        W32498   8.485  12.221  15.621 -0.0663 -0.1678 -0.0479
16690W        W32499  16.970  16.924  14.703  0.0267 -0.0324 -0.0596
16691W        W32500  18.266   4.195   0.658  0.0684  0.4896 -0.2185
16692W        W32501  16.607  15.711   1.107 -0.1128  0.2870 -0.1029
16693W        W32502   9.692  17.393   2.929  0.1198 -0.0554 -0.1713
16694W        W32503  12.372   1.877  14.698  0.0277 -0.1165 -0.2174
16695W        W32504   4.915  17.143  14.944 -0.2213 -0.1600 -0.0119
16696W        W32505  17.964  13.044   5.377  0.2352 -0.4042  0.3386
16697W        W32506  16.262   4.621   1.384 -0.0548 -0.0159  0.0501
16698W        W32507   0.607   1.199   4.532 -0.0463  0.0598  0.0210
16699W        W32508  10.191   8.268   1.284  0.1606  0.1367  0.1394
16700W        W32509   3.568   1.058   0.639 -0.0269 -0.0381  0.1080
16701W        W32510  10.232   3.665  13.202 -0.0586 -0.1183 -0.0079
16702W        W32511  14.733   9.834  15.564  0.0396  0.3663  0.1312
16703W        W32512  10.353   2.789  13.802 -0.0716 -0.1747 -0.2303
16704W        W32513   2.069   1.742   2.605  0.1417  0.0891 -0.2342
16705W        W32514   5.430   7.109   0.240 -0.1501 -0.1705  0.2930
16706W        W32515   9.755   4.169  11.608  0.2519 -0.1230  0.0371
16707W        W32516   6.743   7.096  12.085 -0.1724  0.0293  0.1035
16708W        W32517   8.319   5.904   1.579 -0.1125  0.1601  0.0874
16709W        W32518   5.400   8.190  14.974  0.0083 -0.0259 -0.0923
16710W        W32519   2.490  12.316  13.887  0.0174  0.1351  0.1895
16711W        W32520   7.455  17.694   3.675 -0.0538 -0.1518  0.3802
16712W        W32521   5.382   7.262  15.737 -0.2002  0.2433  0.2434
16713W        W32522   6.499  10.671  12.376 -0.3890 -0.1638 -0.1478
16714W        W32523  10.813  13.558  14.883  0.0265  0.0118 -0.2819
16715W        W32524   3.701   1.339  10.462 -0.0750  0.0076 -0.2086
16716W        W32525   1.426  13.441   1.228  0.1442  0.4511 -0.2323
16717W        W32526   7.044   3.338  13.913  0.0714 -0.0421  0.0761
16718W        W32527   1.936   0.508  13.308  0.1840 -0.2710 -0.2412
16719W        W32528   8.349  10.350  11.796  0.0092  0.0624 -0.1975
16720W        W32529  10.069  11.186   6.082  0.1836  0.4484  0.2817
16721W        W32530  17.507   4.128   1.648 -0.0064  0.1153 -0.1251
16722W        W32531  17.957   6.283   0.498  0.3488 -0.1567  0.0058
16723W        W32532  15.122   9.148  14.892  0.0760 -0.1220  0.5967
16724W        W32533  12.155  10.424  16.059 -0.2306 -0.2485  0.2354
16725W        W32534   0.015   8.399  11.964  0.1485  0.1926 -0.2053
16726W        W32535   7.784   9.575  11.696 -0.1368  0.1969 -0.1756
16727W        W32536   9.232   2.115  12.079 -0.2342 -0.0549 -0.1502
16728W        W32537   7.429   3.773   5.029 -0.1138  0.0288 -0.2715
16729W        W32538  10.220  16.943  15.251 -0.6070  0.0333 -0.0709
16730W        W32539   2.721  10.022  15.585  0.4230 -0.1269 -0.0376
16731W        W32540   4.905  16.879  13.626 -0.1888  0.1254 -0.0755
16732W        W32541   5.067  10.386   2.711  0.2260  0.0154  0.0586
16733W        W32542   1.071   2.658   5.443 -0.3496 -0.0782  0.1157
16734W        W32543  10.738   9.976   4.329 -0.1728  0.0341  0.3077
16735W        W32544  15.300  15.596   3.935 -0.1725  0.1492 -0.2746
16736W        W32545  16.261   4.578   4.438  0.1235 -0.1840 -0.1129
16737W        W32546  15.479   4.828   2.591  0.2263  0.2913 -0.0005
16738W        W32547   0.865   0.331  12.191  0.0495  0.1710 -0.0029
16739W        W32548  15.999   9.800   1.857  0.0143 -0.0084 -0.1884
16740W        W32549   5.802  16.736  11.758  0.2673  0.0891  0.2140
16741W        W32550  18.053   7.819  13.789  0.3964 -0.0451  0.0240
16742W        W32551  10.505   9.589   3.685  0.0645 -0.0299  0.0904
16743W        W32552   4.862  16.891  14.334  0.1525  0.2612  0.2245
16744W        W32553  17.663  17.303   1.125  0.2547  0.0637 -0.1433
16745W        W32554   9.521   5.922  11.651 -0.0148 -0.1708  0.3791
16746W        W32555   0.536   2.371   1.042  0.0654  0.2569 -0.0232
16747W        W32556   9.785   7.809  15.964 -0.1062 -0.0703  0.0875
16748W        W32557   3.652   2.076  15.491  0.0961  0.2016 -0.1477
16749W        W32558   7.339  15.356  12.499 -0.3648 -0.3434  0.3087
16750W        W32559  13.285  13.045   5.015 -0.3765 -0.2063  0.3740
16751W        W32560  10.447   3.432  13.672 -0.1776 -0.1016 -0.0937
16752W        W32561   1.470   8.806   0.921  0.1073  0.1640  0.0803
16753W        W32562  18.140   0.819   2.900 -0.0248 -0.0059  0.1799
16754W        W32563  11.642  10.351   0.010  0.0294 -0.1833 -0.1700
16755W        W32564   9.159   2.761   4.849 -0.2826  0.0801 -0.0527
16756W        W32565   0.580   5.256   2.856  0.4619  0.0681 -0.1304
16757W        W32566  15.712   1.415  15.630 -0.0299 -0.1133  0.0827
16758W        W32567  14.622  10.354  15.860 -0.0392  0.1857 -0.0046
16759W        W32568   2.072  11.543  13.992  0.0966 -0.2640  0.1464
16760W        W32569   1.984   7.655   0.973 -0.2357 -0.2783  0.0694
16761W        W32570   2.697  16.773   3.509  0.0492 -0.4760  0.1943
16762W        W32571  13.730  14.023  11.993  0.0721  0.2234 -0.0212
16763W        W32572   3.252   1.702   4.908 -0.1700  0.0662 -0.2239
16764W        W32573   9.085  10.728   2.795  0.0043 -0.0416  0.2951
16765W        W32574   4.042   1.476   2.650  0.4357 -0.2023 -0.3744
16766W        W32575   9.941   3.384  15.240 -0.0260  0.1449 -0.2533
16767W        W32576   0.644   0.253  11.081 -0.0483  0.1308 -0.2227
16768W        W32577  10.827   7.227  11.854  0.0695 -0.0443  0.3240
16769W        W32578   8.276   7.697  15.843  0.2378  0.1793  0.1938
16770W        W32579  12.641  11.945   3.403 -0.2198 -0.0899  0.1417
16771W        W32580   7.626  13.765   0.254 -0.4959 -0.3658 -0.2066
16772W        W32581   2.036   4.557  11.426  0.2073 -0.2293 -0.3035
16773W        W32582   4.108  17.654  12.362 -0.2529 -0.0226 -0.0260
16774W        W32583  17.467   3.550  12.131 -0.1624 -0.2217  0.1666
16775W        W32584  17.348  13.882   2.000 -0.0322  0.0024  0.0953
16776W        W32585   5.120  11.088  13.859 -0.2127 -0.0770 -0.3095
16777W        W32586   0.031   3.679  15.463 -0.1222  0.3576 -0.2167
16778W        W32587  12.858   9.207  13.449  0.2258 -0.0043  0.1509
16779W        W32588  14.645  17.541   0.536 -0.0913 -0.0225 -0.1818
16780W        W32589   3.757  17.356  12.552 -0.1103 -0.0489 -0.2284
16781W        W32590   1.104  15.890   1.367  0.2065  0.2403  0.0946
16782W        W32591  15.268  11.323   3.606 -0.1251  0.1710 -0.1628
16783W        W32592  17.080  13.288  14.389 -0.1259 -0.3486  0.2447
16784W        W32593  15.824   1.464   1.604 -0.0970  0.1883  0.0583
16785W        W32594  12.895   4.975   4.207  0.2170  0.2943  0.4301
16786W        W32595  17.539  11.439  12.192  0.0030  0.0978 -0.3292
16787W        W32596  16.998  16.872  12.396 -0.1269  0.1687  0.1616
16788W        W32597   4.396   2.782  12.258 -0.4475 -0.3631  0.0654
16789W        W32598   1.542   2.740  13.582  0.0763 -0.0458 -0.1046
16790W        W32599  13.298   6.736   4.708 -0.0963 -0.2148 -0.0033
16791W        W32600   5.397  14.295   1.052 -0.2541 -0.0167  0.0795
16792W        W32601   4.560  16.108  14.164  0.1221  0.0262 -0.3037
16793W        W32602   4.251  11.716  14.227 -0.0197 -0.4267 -0.0433
16794W        W32603  10.516  13.958  14.780  0.0859  0.0434 -0.0893
16795W        W32604  10.247  13.368  10.967 -0.1152 -0.2029 -0.0109
16796W        W32605  16.267   9.821   9.886 -0.1016 -0.0841 -0.0060
16797W        W32606  14.440   9.338   3.305  0.1009  0.3093 -0.2428
16798W        W32607  13.181   4.460  14.892 -0.0010 -0.0827  0.1831
16799W        W32608   7.150  13.868   0.110  0.0355 -0.0863  0.0795
16800W        W32609  16.025   1.940   2.607 -0.1064  0.2129 -0.2134
16801W        W32610  15.536   7.931  13.345 -0.1613 -0.1437 -0.0612
16802W        W32611   3.501  12.226   1.512  0.0037  0.0388  0.1407
16803W        W32612   5.057  17.197  13.963  0.1692  0.0884 -0.1342
16804W        W32613  14.298  12.202   1.234  0.0845  0.0054 -0.2331
16805W        W32614  11.906  16.100  12.716  0.1648 -0.1432 -0.2271
16806W        W32615  11.227   4.489  15.471  0.0306  0.0266 -0.2205
16807W        W32616  10.065   4.825   3.045 -0.0179 -0.1936 -0.0270
16808W        W32617  16.606  13.336  15.213 -0.0149  0.3472  0.2484
16809W        W32618  15.186   4.659   4.578  0.1062  0.1838 -0.1943
16810W        W32619   2.165   4.424   2.806  0.1184 -0.1409 -0.3026
16811W        W32620   6.247  12.017   3.903 -0.0304 -0.3027 -0.1840
16812W        W32621  14.455  10.556   2.160 -0.1655 -0.1389 -0.0057
16813W        W32622   3.923  13.849   3.420 -0.3141  0.1604 -0.0998
16814W        W32623   5.828  15.950   5.859  0.1860  0.1926  0.0236
16815W        W32624   7.697  15.042  13.731 -0.0561  0.0205  0.1344
16816W        W32625  11.853  17.558  11.839  0.2566 -0.0329 -0.1118
16817W        W32626  14.620  14.189  12.919  0.2260  0.0319 -0.2456
16818W        W32627   5.050   6.534   3.613 -0.2401 -0.0264 -0.1180
16819W        W32628   3.915  11.679  15.905  0.1214 -0.1472  0.1303
16820W        W32629   2.156   3.977   5.204  0.1380 -0.2810 -0.2733
16821W        W32630   7.937  17.974  15.022 -0.0341  0.1840  0.3485
16822W        W32631   9.803  13.477  15.570 -0.0276 -0.0609 -0.1182
16823W        W32632  11.899  10.580   0.858 -0.0894 -0.2675  0.2088
16824W        W32633   1.149   9.006  11.379  0.3069 -0.1552 -0.2556
16825W        W32634   3.049   6.708   3.684  0.1672  0.1940  0.1617
16826W        W32635   4.398   1.719   0.961 -0.1300 -0.1571  0.0699
16827W        W32636  12.787  13.902  12.394  0.0348 -0.0263  0.0349
16828W        W32637   5.081   1.966   1.187 -0.3991 -0.0702  0.0716
16829W        W32638  16.620  10.636   0.095 -0.2491  0.0600  0.3693
16830W        W32639  14.563  12.637   0.208 -0.0601 -0.0300 -0.0908
16831W        W32640   9.202   5.502  12.676 -0.1036  0.1310  0.0375
16832W        W32641  12.676   3.400   5.224 -0.0911 -0.0847  0.1082
16833W        W32642   3.800  17.533  15.074  0.1329  0.1998 -0.0400
16834W        W32643  14.680   7.483   1.439 -0.3463 -0.2727 -0.0166
16835W        W32644   9.718  10.292  12.760 -0.1043 -0.0929  0.0209
16836W        W32645   9.942   0.113   0.953  0.0002  0.0911 -0.1916
16837W        W32646   1.380  11.630  11.295 -0.2566 -0.2845  0.0004
16838W        W32647  13.550  15.837   5.014  0.0207  0.2248  0.2798
16839W        W32648   6.383  16.357   0.292  0.2178 -0.0611 -0.2136
16840W        W32649  16.426  17.798   4.703 -0.1020  0.1540 -0.0662
16841W        W32650  13.881   0.981  11.612 -0.2434 -0.1388 -0.1484
16842W        W32651  17.006  13.390   3.219  0.0412 -0.1339 -0.0763
16843W        W32652   0.846   7.774  14.839 -0.0393  0.0417 -0.5061
16844W        W32653  11.131  11.288   9.804  0.2258  0.0396  0.1750
16845W        W32654   6.114   7.555   1.673  0.1603 -0.0703  0.0023
16846W        W32655   5.208  10.344   1.841  0.1033  0.0763  0.0231
16847W        W32656  18.173   1.703  12.307 -0.1647 -0.0555 -0.0387
16848W        W32657   1.261  17.330   3.164 -0.0245 -0.1590 -0.1475
16849W        W32658   7.569   1.677   2.478 -0.0797 -0.2859 -0.1224
16850W        W32659  16.462  14.058   3.330 -0.0198 -0.1140  0.1953
16851W        W32660  15.252   8.982   0.514 -0.0168 -0.0116 -0.2462
16852W        W32661   8.386   1.291   4.031 -0.3718 -0.0062 -0.0521
16853W        W32662  17.119  13.179   4.736 -0.0027 -0.1481  0.0247
16854W        W32663   6.017   8.007   9.625  0.1386  0.0180 -0.0592
16855W        W32664   7.976   5.689  14.789  0.0653  0.0069  0.1710
16856W        W32665  13.923   8.513   4.144 -0.3058 -0.1983  0.2422
16857W        W32666  14.240   6.739  12.044  0.2974 -0.0951  0.0963
16858W        W32667   8.738   4.022  11.396  0.0121 -0.1363  0.1319
16859W        W32668   0.948  10.234  14.160  0.0595 -0.0240 -0.2426
16860W        W32669   1.405   0.697   4.156 -0.0185 -0.0484 -0.0149
16861W        W32670   7.559  14.119  15.862  0.1471  0.0460 -0.1135
16862W        W32671   2.824   7.204   0.770  0.0361  0.1365  0.2849
16863W        W32672   6.021  11.006   4.122  0.2014 -0.0057 -0.0201
16864W        W32673   9.226   8.357  12.202 -0.4169 -0.4793  0.0559
16865W        W32674  15.092   6.411   5.023  0.0372  0.1306  0.1321
16866W        W32675   6.181   6.861  15.121  0.0218 -0.0083  0.2445
16867W        W32676   7.395  11.890  11.663 -0.4967  0.3687 -0.0689
16868W        W32677  16.029  13.012   2.033 -0.0078  0.0601  0.4615
16869W        W32678   2.639   1.711   4.389  0.0330  0.0027  0.0627
16870W        W32679   9.463   7.968   4.053 -0.0105  0.1133 -0.1082
16871W        W32680   0.801  13.155   4.776 -0.2478 -0.1532 -0.2493
16872W        W32681   6.807   7.050   4.473  0.0425 -0.0231 -0.2636
16873W        W32682   5.681   7.765   4.473  0.4293 -0.1476 -0.1877
16874W        W32683   8.420   4.601   4.261 -0.0179 -0.0195  0.0655
16875W        W32684  12.783  15.550   4.076  0.0743 -0.1119 -0.0208
16876W        W32685   3.462  18.106   3.710 -0.0534  0.3376 -0.0279
16877W        W32686  17.855   9.353   3.918 -0.1102  0.0112 -0.1330
16878W        W32687  17.216   6.909  12.519  0.1836  0.1883 -0.0398
16879W        W32688   6.430   8.175  11.361 -0.1798  0.0307  0.1477
16880W        W32689   8.355  14.993   2.081 -0.2360 -0.1080  0.2152
16881W        W32690  13.133   6.853   3.773 -0.1685 -0.3847  0.2162
16882W        W32691   2.192   5.036  11.661  0.0257 -0.0933 -0.0682
16883W        W32692   4.977   0.860  13.117 -0.2452  0.0518 -0.2953
16884W        W32693   3.083   6.130  15.330  0.0542  0.0083  0.1935
16885W        W32694   8.237   1.497   1.910 -0.0135  0.1504 -0.2232
16886W        W32695  14.957  13.052  12.109 -0.0918 -0.1845  0.2386
16887W        W32696  11.906   4.326  15.990  0.1303  0.3762 -0.0860
16888W        W32697   5.952  15.194  14.841 -0.0608  0.2211 -0.0691
16889W        W32698  14.265   7.610  15.129 -0.1704 -0.3343 -0.1144
16890W        W32699   8.956  11.546  12.114 -0.0417 -0.0691 -0.0438
16891W        W32700   0.581   8.757   1.272  0.1660 -0.4587 -0.2194
16892W        W32701   2.458   9.056   3.630  0.0131 -0.1050 -0.2360
16893W        W32702  10.676   6.905  14.107  0.1112 -0.0308 -0.0270
16894W        W32703   0.431  14.309  12.461 -0.1364 -0.0101 -0.0077
16895W        W32704  15.292   7.502  11.256 -0.0052  0.0628 -0.2498
16896W        W32705   8.764  10.204   0.556 -0.3215  0.0879 -0.0713
16897W        W32706  17.278   8.343  15.046 -0.0629  0.1901 -0.0073
16898W        W32707   9.926  10.513  11.087  0.0073  0.3464  0.0295
16899W        W32708   9.612   3.145   2.311 -0.1939  0.2678 -0.1272
16900W        W32709   5.413  15.042   4.544 -0.2085 -0.1754  0.0332
16901W        W32710   8.797  13.131   4.274  0.1373 -0.0733 -0.0645
16902W        W32711   3.490   4.513  15.454 -0.1798 -0.0364  0.0439
16903W        W32712   4.148  14.454   0.906 -0.0158 -0.1552  0.0721
16904W        W32713   9.964   7.111  15.741  0.2552  0.1209 -0.2064
16905W        W32714   6.106  14.067   1.526 -0.1698 -0.1366 -0.0957
16906W        W32715   7.328   3.869   3.042  0.0144  0.1457  0.2446
16907W        W32716   4.270   2.032   4.602  0.2600  0.0125 -0.2198
16908W        W32717   8.580   8.248   4.529 -0.0642 -0.2178 -0.2088
16909W        W32718   4.421   9.573   2.485 -0.0797  0.2635  0.2620
16910W        W32719   3.576   1.599  13.406 -0.2812  0.1398  0.0585
16911W        W32720   0.387   7.970  12.172  0.0014 -0.1385  0.1265
16912W        W32721   9.968   1.326   0.308  0.0659 -0.2320 -0.1220
16913W        W32722  13.600  12.176  11.648  0.5002  0.1504 -0.1831
16914W        W32723   9.711   2.174   3.122  0.0859 -0.0303  0.3096
16915W        W32724  18.028   9.890  15.078  0.0897 -0.1055  0.0046
16916W        W32725   8.668   2.007   3.676 -0.3812  0.0846 -0.0080
16917W        W32726  12.331   0.813   3.898 -0.0413 -0.0212 -0.0705
16918W        W32727   1.990   2.973   0.358  0.0329 -0.0895  0.2583
16919W        W32728  11.122   2.297  11.133  0.2888 -0.0492  0.1957
16920W        W32729   9.374   8.390   3.794  0.1747  0.1757  0.0566
16921W        W32730   2.126   9.640   4.283 -0.1248  0.0000  0.0869
16922W        W32731   2.817  12.919   5.786  0.1659 -0.1421 -0.0987
16923W        W32732  15.186  14.200  13.563  0.2352 -0.1362 -0.1819
16924W        W32733   7.197   4.156  14.060  0.2612 -0.1411 -0.2850
16925W        W32734  14.124   6.715   0.092 -0.1589 -0.0707 -0.0058
16926W        W32735   1.206  16.968   3.544 -0.2515  0.0576 -0.0608
16927W        W32736   0.161   1.172  13.637  0.0315  0.1996  0.0776
16928W        W32737   4.190   8.970   3.052  0.0020  0.1628  0.2673
16929W        W32738   1.935  10.931  12.952 -0.0950  0.0347 -0.1392
16930W        W32739   9.306   0.639   4.618  0.2743 -0.0819  0.1742
16931W        W32740  14.579  12.688  12.836 -0.2171  0.0404 -0.0600
16932W        W32741   8.395   1.135  11.433 -0.3186  0.0686 -0.2369
16933W        W32742  13.228  11.677   2.747 -0.0400  0.1093  0.0142
16934W        W32743  14.208   2.879  12.573 -0.1424  0.0973  0.1427
16935W        W32744   3.782  15.564   5.603  0.0235  0.1516 -0.2172
16936W        W32745   0.554  15.573   3.449 -0.2195 -0.2563  0.1835
16937W        W32746   8.901  10.106  14.850  0.1997 -0.0305 -0.1482
16938W        W32747   2.435  16.600   5.564  0.0603 -0.1800 -0.0323
16939W        W32748   3.132  16.197   4.810  0.2526  0.1582  0.2118
16940W        W32749  12.208  14.924  15.181 -0.0957  0.2788  0.3368
16941W        W32750  11.132  15.238  14.431  0.0676 -0.1601  0.0604
16942W        W32751   3.414   9.829   1.462 -0.1713 -0.0740  0.1105
16943W        W32752  12.806  16.788   4.443 -0.0038  0.0320 -0.2472
16944W        W32753   5.146   9.123   2.885 -0.0921 -0.3025 -0.1808
16945W        W32754  15.946  12.346  14.213 -0.2858 -0.1281 -0.1896
16946W        W32755  10.002  15.348  15.946  0.1380 -0.2430  0.1629
16947W        W32756   2.178  12.929  11.754 -0.0711 -0.0805  0.0713
16948W        W32757  18.097   1.620   3.275 -0.1982  0.1362  0.0016
16949W        W32758  12.443   5.149  13.747 -0.0369 -0.3525 -0.0851
16950W        W32759   9.608   8.870  12.775 -0.0360  0.1047  0.0550
16951W        W32760   7.358   2.739   4.308  0.0734 -0.1087  0.1938
16952W        W32761   3.319   6.808   4.169  0.2762 -0.3189 -0.0175
16953W        W32762   3.834   2.012   2.990  0.1484  0.0149 -0.0126
16954W        W32763   4.134  13.784  15.012  0.2031  0.2565  0.0768
16955W        W32764  11.724  12.919  15.068 -0.2976 -0.0990 -0.1474
16956W        W32765  14.011  11.481  12.638 -0.2768 -0.2906  0.0993
16957W        W32766  15.628   8.746   1.452 -0.3267 -0.3506  0.1750
16958W        W32767  11.935  16.684  11.849 -0.4313 -0.1419  0.1188
16959W        W32768  11.958   3.908  12.138  0.1016  0.1920 -0.0487
16960W        W32769  13.845   7.309  15.362  0.2103  0.1444 -0.0121
16961W        W32770   3.834  14.897  12.895  0.0485  0.2000  0.2207
16962W        W32771   2.292   6.989  13.684 -0.1156 -0.0455 -0.0195
16963W        W32772   7.002   0.356   2.285 -0.1866  0.1200 -0.0205
16964W        W32773  11.230   1.142   3.147  0.2923 -0.2056  0.0485
16965W        W32774   5.029   7.556   3.034 -0.1120  0.0022 -0.0593
16966W        W32775   9.299  12.168   0.327  0.2025 -0.1236 -0.3114
16967W        W32776  12.313  16.786   4.432  0.0811 -0.0653  0.0414
16968W        W32777   0.324  10.942  10.632  0.0633  0.1438 -0.0081
16969W        W32778   7.819  14.850   0.971  0.0521 -0.3276 -0.0260
16970W        W32779  15.900   0.795   0.205  0.2504  0.1482  0.2567
16971W        W32780  16.337   4.483  12.580 -0.2644 -0.1158  0.0234
16972W        W32781   7.852  13.329   1.934  0.0705  0.1171  0.0491
16973W        W32782  16.383   3.194   2.914 -0.1988 -0.0360  0.0836
16974W        W32783  13.385  12.615  15.394  0.0964  0.3330 -0.0930
16975W        W32784  13.450   8.485  16.047  0.0755 -0.0927  0.3608
16976W        W32785   7.082  13.065  11.446  0.1173  0.4409  0.0373
16977W        W32786   9.114   7.323   4.570  0.0106 -0.0768 -0.1598
16978W        W32787   7.332  11.832   3.085 -0.1824 -0.2380  0.2165
16979W        W32788  15.875  10.114   3.529  0.0148  0.3355 -0.0238
16980W        W32789  16.382   8.491   3.998  0.0957 -0.0498 -0.2677
16981W        W32790   9.089   9.633   9.826 -0.1610 -0.1582  0.0442
16982W        W32791   1.904  11.360  13.557  0.2058 -0.1554  0.0713
16983W        W32792  17.813  11.613  10.230  0.2544  0.1392  0.2615
16984W        W32793   3.679  12.815  11.642  0.3086 -0.0366  0.1342
16985W        W32794   2.709   5.996  14.925 -0.0317  0.0473 -0.1306
16986W        W32795  14.145   8.259  12.188  0.0545  0.0075 -0.3217
16987W        W32796   6.264   5.502  15.845 -0.1004 -0.2233  0.4100
16988W        W32797   1.678  17.468   0.031 -0.1527  0.1658  0.0244
16989W        W32798  10.411  16.231  10.912  0.0865 -0.0496  0.0159
16990W        W32799  10.801  15.358   4.172 -0.4109 -0.3052 -0.1641
16991W        W32800   2.248  13.468   2.661  0.0014 -0.1587 -0.1202
16992W        W32801   7.439   8.025  11.943  0.3646  0.0292 -0.1172
16993W        W32802  17.869  18.193  15.050  0.1965  0.3269  0.2824
16994W        W32803   5.509   2.185   0.386 -0.1428 -0.1150 -0.4739
16995W        W32804  15.237  17.092  15.156 -0.0719  0.3293 -0.0654
16996W        W32805  13.543   5.870  14.519 -0.0181  0.1425 -0.0740
16997W        W32806  15.859   2.482   0.815  0.0663  0.1189  0.2005
16998W        W32807   6.115   7.834  11.523  0.0002  0.0256 -0.1222
16999W        W32808   1.871  17.506  11.326  0.1907  0.0995  0.0344
17000W        W32809  16.921   3.432   4.261  0.1135 -0.0680  0.3299
17001W        W32810   6.909   7.876   9.495  0.2496  0.0719 -0.0937
17002W        W32811  18.131  13.440  14.231  0.1598 -0.0727 -0.1304
17003W        W32812   7.203  14.829  15.335 -0.0328 -0.0126 -0.1735
17004W        W32813   3.013   6.755  15.537 -0.0789 -0.2136  0.0023
17005W        W32814   6.978  16.850   1.257 -0.2233 -0.2324  0.3776
17006W        W32815   0.293  14.169   1.291 -0.3508  0.2398  0.0096
17007W        W32816   0.103   5.695   2.248  0.0281 -0.1762  0.1811
17008W        W32817  11.062   8.135   2.734  0.0511 -0.0318  0.1214
17009W        W32818  12.027   1.101   4.146 -0.2443  0.3095  0.0260
17010W        W32819   9.399   5.949  12.780  0.0935 -0.1531  0.0358
17011W        W32820   7.366  17.787  14.440  0.0397 -0.1540 -0.1202
17012W        W32821   3.533   5.826  14.361 -0.0677  0.5271  0.3585
17013W        W32822   7.814  15.689   6.292 -0.0692 -0.2156  0.1761
17014W        W32823  11.581  14.801   2.775  0.3993  0.2178  0.3761
17015W        W32824   0.199   0.219  11.299 -0.0560  0.1307 -0.1879
17016W        W32825   5.194  16.081   5.068  0.0307  0.0476 -0.2619
17017W        W32826   8.450  17.448   4.128  0.1213 -0.0323 -0.1073
17018W        W32827  16.700   9.724  15.392 -0.0407 -0.0034 -0.1740
17019W        W32828   9.504  16.947   2.855  0.1428  0.2887  0.3818
17020W        W32829   7.115  11.392  15.347 -0.2233  0.1282  0.4647
17021W        W32830  10.729   4.398  13.310  0.0676  0.0939  0.1717
17022W        W32831   5.294  14.112  13.018 -0.0002 -0.3729  0.2080
17023W        W32832   1.710   9.295  13.533  0.1114  0.1360 -0.0011
17024W        W32833   1.174  14.224  10.820  0.1656  0.1289  0.3472
17025W        W32834  15.212   9.121  11.335 -0.3311 -0.4624 -0.0582
17026W        W32835   4.124   8.065   2.559  0.1015 -0.1503  0.0818
17027W        W32836   0.737  16.782   9.960 -0.0743  0.0234  0.0135
17028W        W32837   5.208   4.063   5.254  0.3116  0.4956  0.1967
17029W        W32838   0.104   9.233  15.447 -0.3215  0.1384  0.0159
17030W        W32839  12.038   5.568   6.188 -0.1653  0.2626 -0.3212
17031W        W32840   4.782  11.409  11.756  0.2030  0.0629  0.0448
17032W        W32841  12.191  17.754   0.716  0.0309 -0.2316 -0.2879
17033W        W32842   4.225   2.913  10.817 -0.0258  0.0592  0.1080
17034W        W32843   7.802   1.162  12.675  0.0721 -0.0397  0.1283
17035W        W32844   8.252   8.158  11.968 -0.2044 -0.0198 -0.1176
17036W        W32845   2.149  11.758   2.010  0.3255 -0.1572 -0.1559
17037W        W32846  10.140  14.196  12.428 -0.0482 -0.1648 -0.0771
17038W        W32847  11.192   7.059  11.048  0.3741 -0.1442 -0.4212
17039W        W32848  15.302   5.811  14.982 -0.0027  0.1009  0.0540
17040W        W32849  15.043  11.825   1.066 -0.0927  0.0714  0.0771
17041W        W32850  13.407  15.419   0.782  0.0671  0.0067 -0.3887
17042W        W32851  16.793   8.115   1.777  0.2303 -0.0618  0.0046
17043W        W32852   2.113   8.236   2.479 -0.1539  0.1078  0.3378
17044W        W32853  17.964   6.172  14.685  0.2730 -0.0430  0.0507
17045W        W32854  16.040  15.719  15.179 -0.1560 -0.0442 -0.0999
17046W        W32855  12.169   7.750   5.439  0.1656  0.3743 -0.0706
17047W        W32856   4.796   0.959  12.641 -0.1443 -0.1740 -0.2610
17048W        W32857  11.567   9.254  11.718  0.2349  0.1420 -0.0267
17049W        W32858   8.275  14.885  11.745 -0.0935  0.0687 -0.2557
17050W        W32859   7.416  12.804   3.845  0.0305 -0.1671  0.0564
17051W        W32860   0.479  16.440  13.145  0.0114  0.0754  0.0095
17052W        W32861  11.038  12.680  14.857 -0.3635 -0.2417 -0.0811
17053W        W32862  10.272   7.165  11.413 -0.0423  0.2389 -0.1065
17054W        W32863   9.028   3.144  14.818 -0.1126  0.0182  0.1675
17055W        W32864  15.061  13.768   3.598  0.1283  0.0878  0.0001
17056W        W32865   5.850   4.751   0.582 -0.0653 -0.1092  0.1426
17057W        W32866  17.593  15.520  12.696 -0.0883  0.0070 -0.3088
17058W        W32867  12.522  10.684   5.668 -0.4620 -0.1475  0.7308
17059W        W32868   3.269  11.204   2.977  0.1842  0.3310 -0.1390
17060W        W32869   0.900   4.936  11.233  0.0734 -0.2495  0.2093
17061W        W32870  10.135   1.730   2.498 -0.5639 -0.0092  0.1275
17062W        W32871   3.117   5.363  14.266  0.3873 -0.2676  0.0610
17063W        W32872   1.875   7.071   4.947 -0.0895 -0.1436  0.0700
17064W        W32873  11.538  11.215  13.185  0.1568  0.0430  0.0617
17065W        W32874   2.046   2.079  13.614  0.0485 -0.0488  0.0952
17066W        W32875  10.292   8.516   2.703 -0.0395 -0.0808  0.1784
17067W        W32876   5.399  13.937   0.013  0.1863  0.0811  0.0625
17068W        W32877  13.375   9.390   2.469  0.1134  0.0681  0.1739
17069W        W32878   4.442   5.879  14.632  0.1655  0.1141  0.3856
17070W        W32879   0.918   7.534   1.653 -0.1077  0.1837  0.0135
17071W        W32880  14.466   3.426  12.577 -0.1331  0.0384  0.1228
17072W        W32881   1.237  16.940  12.707 -0.1020 -0.2998 -0.1555
17073W        W32882   2.957  16.748  14.555  0.0604  0.1153 -0.2304
17074W        W32883   4.356  13.425   2.736  0.1156 -0.1833 -0.1922
17075W        W32884  15.235   4.514   1.216 -0.0243  0.0870  0.1278
17076W        W32885  16.585  10.310   2.952 -0.2399  0.1833  0.0662
17077W        W32886  11.271   4.787   0.386  0.0987  0.2492 -0.0234
17078W        W32887   3.754   3.782   5.331  0.1732  0.0302 -0.1039
17079W        W32888   7.167  17.899   1.784 -0.1243  0.0205  0.2257
17080W        W32889  14.050  14.015   0.762 -0.0301 -0.0765  0.0720
17081W        W32890   5.333   8.714  14.908 -0.0671  0.0284  0.0306
17082W        W32891  17.804   2.874  15.631 -0.2863  0.0557  0.0949
17083W        W32892  17.513   3.337  12.794  0.2140 -0.0397 -0.0425
17084W        W32893   7.688   6.562  10.873 -0.0409  0.0099 -0.0601
17085W        W32894   4.500   0.268   5.384  0.0592  0.0311  0.1367
17086W        W32895  11.337   6.113  12.762  0.1153 -0.3125  0.0962
17087W        W32896  10.405  16.404  13.557  0.0353  0.1963 -0.1452
17088W        W32897   8.278   7.507  14.844  0.0143  0.1199 -0.1003
17089W        W32898  16.872   9.581   1.522  0.2424 -0.0191 -0.1597
17090W        W32899   1.669  15.361   3.161 -0.1434 -0.1318 -0.1241
17091W        W32900   9.375   5.956  15.602  0.0831  0.1644  0.3473
17092W        W32901  14.307   5.443   2.385  0.0691 -0.1201  0.3426
17093W        W32902  11.960  12.483  11.633 -0.1849 -0.2334 -0.1707
17094W        W32903  12.269   5.674   4.316  0.2796  0.0287 -0.0191
17095W        W32904  15.863   8.091  14.561  0.0299  0.1485 -0.1873
17096W        W32905  12.427  12.598   2.966  0.1153  0.0417  0.1848
17097W        W32906   3.816   6.443  15.817  0.1348 -0.0383 -0.2788
17098W        W32907   3.912  16.391   2.480  0.0273  0.0682  0.0079
17099W        W32908  12.248   2.617   4.183 -0.0268  0.0388 -0.4908
17100W        W32909   3.598   9.433  11.990 -0.0674 -0.0134  0.0603
17101W        W32910  10.467  17.877  15.120  0.1156  0.4337 -0.0924
17102W        W32911  16.659   7.690  11.521 -0.0012 -0.1152 -0.1117
17103W        W32912   3.896  12.449  13.705 -0.1670 -0.3566 -0.0988
17104W        W32913  10.989   0.650   3.417 -0.1593 -0.2081  0.0369
17105W        W32914   7.871   9.663   4.536 -0.0119  0.2561  0.0280
17106W        W32915   2.188   0.328  15.552 -0.4157  0.2316  0.1101
17107W        W32916   4.811   4.194   2.037 -0.3862  0.1460 -0.3139
17108W        W32917  11.255  10.389  13.314  0.0785  0.3948 -0.3546
17109W        W32918   8.981  16.509  14.206 -0.2426  0.1690 -0.3367
17110W        W32919   6.392  13.825  14.413  0.0736  0.3253  0.1560
17111W        W32920  16.504  15.375   2.073 -0.3693 -0.0456  0.3186
17112W        W32921   7.083   0.582  11.910  0.0162  0.0679 -0.0063
17113W        W32922   4.966  16.754   6.347 -0.0525  0.4279  0.1069
17114W        W32923  11.047  11.437  11.104  0.4269  0.0215  0.1716
17115W        W32924   3.639  11.866  13.521 -0.2969  0.0980 -0.0869
17116W        W32925   6.464   5.313  12.938 -0.0202  0.0476  0.2375
17117W        W32926  15.825   1.405  13.572 -0.2301  0.1889 -0.0050
17118W        W32927   8.313  13.435  10.980  0.2885  0.4574  0.0157
17119W        W32928  13.094  15.122  14.766 -0.1048  0.0247  0.0725
17120W        W32929   7.920   3.690   3.117  0.0660  0.0370  0.2154
17121W        W32930  12.204   5.476   1.893 -0.0909  0.1729 -0.2490
17122W        W32931   3.415  14.561   3.933  0.0254 -0.0254 -0.0455
17123W        W32932  16.258   9.886   0.394 -0.1295 -0.1630  0.2179
17124W        W32933  16.431  17.857  14.062 -0.2808 -0.1265  0.1049
17125W        W32934  12.611   0.546   2.545 -0.0215  0.3980  0.0725
17126W        W32935  11.866   4.221  11.118 -0.0309 -0.0671 -0.0250
17127W        W32936   4.099  15.334  15.588 -0.2569  0.0849  0.1523
17128W        W32937  10.041  16.893  14.156 -0.0565  0.0873  0.0871
17129W        W32938   2.761   7.524   4.726 -0.1820 -0.0397  0.0316
17130W        W32939   2.573   6.655   4.580  0.0643 -0.2589  0.0624
17131W        W32940  12.967  15.199  13.040 -0.0431  0.0203 -0.0587
17132W        W32941   9.801   9.575  13.356 -0.1618  0.2169 -0.1724
17133W        W32942   0.139  11.697   0.743  0.1583 -0.2729 -0.0255
17134W        W32943   9.469  16.046   1.110  0.0118 -0.0188  0.0126
17135W        W32944  14.166  10.823   1.794 -0.0919 -0.0920  0.0931
17136W        W32945  14.132  16.510   0.201  0.2322 -0.0930  0.0546
17137W        W32946  14.454  11.713   1.134  0.0356 -0.2017 -0.0618
17138W        W32947   3.379   8.769  13.630  0.2517 -0.0622 -0.2337
17139W        W32948   2.323   9.179   2.651 -0.1176  0.1136 -0.0360
17140W        W32949  16.818   8.339   0.978 -0.0989 -0.4112  0.0065
17141W        W32950  14.505  10.528   5.322 -0.0275  0.2213 -0.0472
17142W        W32951   4.901  10.664  12.636  0.2085  0.2218  0.1389
17143W        W32952   9.282   6.824  14.318 -0.1523  0.2034  0.1435
17144W        W32953   1.734  15.742   4.912  0.0481 -0.1400  0.2449
17145W        W32954  11.229   0.843   4.975  0.1710 -0.3737 -0.2281
17146W        W32955  17.910   4.478   3.470  0.3666 -0.3244 -0.2160
17147W        W32956   6.608  14.634  14.682 -0.1367 -0.1780  0.0843
17148W        W32957   2.223   2.952  15.915 -0.0459 -0.0247  0.0937
17149W        W32958   4.669   5.319  15.599 -0.1912 -0.0152 -0.2577
17150W        W32959   3.783  17.504   3.307 -0.0855  0.1679  0.1783
17151W        W32960   8.096  13.451   4.637 -0.0431 -0.1441  0.0216
17152W        W32961   8.194  15.359  11.319  0.0094  0.2926 -0.1343
17153W        W32962  13.183   1.844   4.938  0.0076 -0.0646  0.0933
17154W        W32963   5.484  11.100  11.178  0.0299 -0.1237  0.1396
17155W        W32964   2.156  15.960   4.152  0.0967 -0.1074 -0.0609
17156W        W32965   1.731   4.682  13.510  0.3999 -0.0137 -0.2164
17157W        W32966   7.917   0.015   2.103  0.0219 -0.0805  0.2546
17158W        W32967  10.017   3.120   0.624 -0.0781  0.1682  0.0282
17159W        W32968   7.466  18.226   4.229 -0.0978  0.0561  0.0904
17160W        W32969  16.822  16.062  14.033 -0.1008  0.1634 -0.0896
17161W        W32970  10.777   5.465   4.382 -0.2597 -0.1601  0.0929
17162W        W32971  10.308   9.560  12.454  0.1737  0.0216  0.2423
17163W        W32972  15.807   7.645   3.493 -0.0049  0.1381  0.0565
17164W        W32973  11.780  12.885   3.732  0.2225  0.0720 -0.1392
17165W        W32974   3.598  12.722   5.199 -0.0728  0.2098  0.1614
17166W        W32975  15.759  13.707   1.403 -0.2687  0.1822 -0.0152
17167W        W32976  11.947  14.053   2.778  0.0108 -0.0871 -0.1786
17168W        W32977   4.318   7.226   1.416  0.3239 -0.0332 -0.1006
17169W        W32978  17.458  14.889  14.009 -0.1282 -0.2217 -0.0461
17170W        W32979   2.438   1.904  14.890  0.0705  0.5042  0.1457
17171W        W32980  18.184  16.888   3.290  0.1551 -0.0071  0.1088
17172W        W32981   9.172  16.977  15.989  0.0568  0.0328  0.0966
17173W        W32982  10.678   8.760  14.410 -0.0408  0.2872  0.1627
17174W        W32983   7.750   0.983   2.216  0.1494 -0.1618 -0.1086
17175W        W32984   4.595   0.506  14.442 -0.0856  0.0487  0.3976
17176W        W32985   8.704  13.696  15.340  0.0246  0.1013 -0.1037
17177W        W32986  16.454   2.378   0.896  0.0891  0.0128 -0.0883
17178W        W32987   0.212   3.021  13.048 -0.1335 -0.1413 -0.2348
17179W        W32988  15.980  17.968  11.406  0.0624  0.2378 -0.0247
17180W        W32989  11.514  13.219   2.348  0.0693 -0.2298  0.0118
17181W        W32990  12.211   3.679  12.487 -0.0186  0.1588 -0.4557
17182W        W32991   6.241  10.794   0.912  0.0328  0.0936 -0.1288
17183W        W32992  13.296   3.135  14.080 -0.1696 -0.1668  0.0734
17184W        W32993  18.227  17.728  14.418  0.0262 -0.0693  0.1475
17185W        W32994   4.415  16.546  13.728  0.0020 -0.1382 -0.0567
17186W        W32995  14.993  13.422  13.389 -0.1382  0.4046 -0.1895
17187W        W32996   2.408   3.603  11.357 -0.0952 -0.3402  0.0364
17188W        W32997  10.256  10.135   1.722  0.3534  0.1967 -0.1774
17189W        W32998  13.545  15.657  15.445  0.1692  0.1208 -0.1305
17190W        W32999   7.216   7.425   3.858 -0.2356  0.1073 -0.1053
17191W        W33000  12.439   4.677  14.031  0.2466 -0.1922 -0.0587
17192W        W33001  13.075  10.649  14.048  0.3144  0.0901 -0.0711
17193W        W33002   9.417   9.803   2.509 -0.1894  0.1250 -0.2687
17194W        W33003  15.116   6.638   0.738  0.0307 -0.0207  0.0239
17195W        W33004   7.638   9.096   0.096  0.0012 -0.0138 -0.2728
17196W        W33005  11.101  15.868  13.238  0.2385 -0.3072  0.0911
17197W        W33006   9.545  18.186   5.209 -0.0790  0.0823 -0.0003
17198W        W33007  14.745  15.098   4.685 -0.0636 -0.1161 -0.0791
17199W        W33008   8.131  14.285  10.426  0.0301  0.1251  0.0498
17200W        W33009  13.408   9.599   5.566 -0.1591  0.0691 -0.1137
17201W        W33010  14.213   7.106  14.598  0.2193  0.3179 -0.4500
17202W        W33011  10.975  18.060  11.928 -0.1427  0.2057 -0.2229
17203W        W33012   9.439   8.151  15.626 -0.1443 -0.3831  0.3827
17204W        W33013  12.213  18.086   1.528  0.2646 -0.2050 -0.2145
17205W        W33014  13.515  16.911  16.028  0.1602 -0.3059 -0.1876
17206W        W33015   5.726  11.068  12.179  0.0313 -0.2402  0.4037
17207W        W33016   0.883   0.840  14.881 -0.1685  0.0513  0.1839
17208W        W33017  11.245  15.936  13.828  0.2931 -0.3087 -0.3116
17209W        W33018  17.247   4.757   5.073  0.3826  0.2080  0.3010
17210W        W33019   2.245  17.796  12.448 -0.0941 -0.1452 -0.0898
17211W        W33020   1.580   6.052   1.080  0.2060 -0.1683  0.0830
17212W        W33021  14.269  14.934   1.010 -0.0758  0.0143  0.2011
17213W        W33022   7.522   6.144   1.242 -0.1380 -0.0641 -0.1267
17214W        W33023   5.958  17.244   2.650  0.3158 -0.0919  0.0656
17215W        W33024  14.052   8.993   6.019 -0.1080 -0.1424 -0.0560
17216W        W33025  16.276  15.102  13.625 -0.1146 -0.0683 -0.0878
17217W        W33026   8.234   7.245   1.878 -0.2131  0.1208 -0.2272
17218W        W33027   5.677  17.846   2.578  0.1263 -0.3529 -0.1249
17219W        W33028   8.397   9.529  16.066 -0.0132 -0.3309 -0.3263
17220W        W33029   3.108  14.787   2.576 -0.2024  0.0839 -0.2283
17221W        W33030   6.794  12.790  13.106  0.1104  0.3840  0.0675
17222W        W33031  10.482   6.107  12.082  0.1547 -0.2490 -0.0322
17223W        W33032   1.750  16.351  12.128 -0.0512 -0.0804 -0.0798
17224W        W33033  12.563  10.860   1.976  0.2468  0.2751 -0.2298
17225W        W33034   5.347   4.993  15.155 -0.0909 -0.0354 -0.1531
17226W        W33035   8.002  16.994  12.701  0.3934 -0.2546 -0.0085
17227W        W33036   4.491  16.035  15.140 -0.0832 -0.0019 -0.0914
17228W        W33037   1.060  10.024   2.495  0.3868  0.0847  0.1605
17229W        W33038   4.199  14.121   2.237 -0.4095  0.2227  0.3140
17230W        W33039   7.101   5.165   3.156 -0.3209  0.0072  0.1475
17231W        W33040   1.120   5.853  12.594 -0.0357 -0.1016  0.0765
17232W        W33041   8.618   8.769   1.310 -0.4761 -0.0696  0.1010
17233W        W33042   7.758   5.360   0.585 -0.1690 -0.0598  0.0277
17234W        W33043   7.094   8.673  13.307  0.0572  0.1001  0.2675
17235W        W33044   1.907  12.050   3.018  0.1681  0.0769  0.0422
17236W        W33045   3.405  14.215   5.360  0.1300 -0.0730 -0.0327
17237W        W33046   7.192   1.321   2.762 -0.3077 -0.0638  0.0097
17238W        W33047  14.183  15.592   5.580 -0.1295  0.0730  0.1411
17239W        W33048  14.515  17.158  14.777  0.2121  0.2224  0.3672
17240W        W33049  17.862   5.109  15.461 -0.0405  0.2229  0.4993
17241W        W33050  13.701   6.180   5.112 -0.0858 -0.0981  0.1819
17242W        W33051   5.226   0.465   0.854 -0.3287 -0.0538 -0.2363
17243W        W33052   1.012  17.160  13.229 -0.2340 -0.0345 -0.1946
17244W        W33053  13.028   7.609  11.236  0.0782  0.1970  0.1003
17245W        W33054  16.726   1.626   2.152  0.2527 -0.2380 -0.1853
17246W        W33055   9.876  16.320  13.280  0.0872 -0.0787 -0.2970
17247W        W33056  14.251   2.379   4.403 -0.0824 -0.1128  0.3120
17248W        W33057  16.682   9.947   2.533  0.0709 -0.0784  0.0045
17249W        W33058   2.791  17.702   4.936  0.1569  0.0717 -0.0586
17250W        W33059  18.239   6.675  15.327  0.0120  0.0607 -0.2334
17251W        W33060   5.517  16.824   0.299  0.0936  0.3616 -0.1925
17252W        W33061   9.141   2.376   0.160 -0.1265  0.0954 -0.0874
17253W        W33062   8.466   1.746  14.497  0.2232 -0.0166 -0.2810
17254W        W33063   2.725  10.491   4.578  0.0082  0.2591 -0.3374
17255W        W33064  12.391   7.552   4.597  0.0159 -0.1469 -0.1235
17256W        W33065  17.442  14.113   0.177 -0.2876  0.0312 -0.0939
17257W        W33066   3.717   9.137   5.542  0.1425  0.2339  0.0883
17258W        W33067  16.904  12.084  13.687  0.1365  0.0499  0.1585
17259W        W33068  13.108  13.713   4.667  0.0134  0.1207  0.0803
17260W        W33069   3.257  15.700   4.912 -0.2095  0.2321  0.1222
17261W        W33070   4.072   1.663   3.715 -0.0447  0.2790 -0.1617
17262W        W33071  17.003   3.359  12.069  0.0707 -0.1724 -0.1039
17263W        W33072   2.950   5.890   2.268 -0.1027  0.0652  0.2297
17264W        W33073   7.759   6.429   4.681 -0.3289  0.0463 -0.0248
17265W        W33074  12.148   8.712  14.927 -0.3910 -0.1800  0.0264
17266W        W33075   1.192   8.535   2.680  0.2160 -0.0570 -0.0813
17267W        W33076  12.394  16.982  14.080  0.0107 -0.2222  0.0771
17268W        W33077   1.339  11.064   1.737  0.0436  0.2844  0.4412
17269W        W33078   8.814  14.675   3.671  0.0368 -0.3740 -0.0265
17270W        W33079   8.342   2.293   3.924  0.0744  0.2012 -0.0239
17271W        W33080   4.889   9.276  15.785 -0.1500 -0.0872  0.1463
17272W        W33081   8.987  13.587  11.959  0.1719 -0.2336  0.0413
17273W        W33082   8.369   0.558   5.273 -0.0669 -0.5030  0.1395
17274W        W33083  15.464  12.597   4.174  0.0150 -0.0815 -0.0188
17275W        W33084   8.704  17.565  12.724  0.1117  0.0368 -0.1148
17276W        W33085  17.235   7.709  14.420  0.0478 -0.1060 -0.1713
17277W        W33086   5.609   3.905  10.764  0.0524 -0.2171  0.4283
17278W        W33087   1.517  14.596  11.733 -0.1953  0.0913  0.0858
17279W        W33088   3.521  10.202   1.768  0.1780 -0.0630 -0.1188
17280W        W33089  13.794  17.608  13.818  0.1584 -0.1209 -0.0891
17281W        W33090   8.863   1.028   4.133  0.1740 -0.0937 -0.1399
17282W        W33091  17.895   0.495  15.663 -0.4177 -0.2806  0.2573
17283W        W33092  12.129   6.591   2.788  0.1513 -0.0739  0.0467
17284W        W33093   7.800   6.575  13.387  0.1228  0.0928 -0.0023
17285W        W33094  14.358  14.631   4.694 -0.0081  0.3026 -0.3796
17286W        W33095   0.926  17.303  12.435  0.0458  0.1942 -0.1401
17287W        W33096  14.906   6.394  15.319 -0.0008 -0.0314 -0.2182
17288W        W33097  16.129  13.294   1.536 -0.0478  0.1423  0.0347
17289W        W33098   3.445  16.784  16.057  0.2519  0.3351 -0.3170
17290W        W33099   5.443  17.450   2.687  0.1585 -0.1512 -0.1202
17291W        W33100  16.616  11.525   3.752 -0.2583  0.2313 -0.0942
17292W        W33101   1.878  16.335   1.104 -0.1206 -0.4518  0.0939
17293W        W33102  15.420  17.388   1.000  0.0969  0.1960 -0.1799
17294W        W33103   1.434   8.290  12.036 -0.3867 -0.1407  0.1859
17295W        W33104   7.660  13.544   3.789 -0.0915  0.0656 -0.5638
17296W        W33105   1.117   4.160  15.498 -0.0630 -0.0078  0.0760
17297W        W33106  17.348  17.722  14.571  0.0746  0.1437  0.0729
17298W        W33107   7.562  14.697  14.135  0.2320 -0.1901  0.0351
17299W        W33108  10.891  15.724   0.926 -0.1119  0.2521  0.1508
17300W        W33109  15.566  17.282   3.071 -0.2254  0.0549 -0.2789
17301W        W33110  17.358   2.128   3.058 -0.2626 -0.0107 -0.0563
17302W        W33111   0.521   6.702   0.597 -0.1689  0.1335 -0.2142
17303W        W33112  17.455   9.178   3.055 -0.1858  0.3277 -0.1641
17304W        W33113  12.083   8.324  13.159  0.1092  0.1431  0.0925
17305W        W33114  17.693  12.111   0.572 -0.0009  0.0356  0.0740
17306W        W33115   3.302   5.559   0.478  0.0305  0.1115 -0.0721
17307W        W33116  11.242   5.719   5.463 -0.1016  0.1056 -0.0975
17308W        W33117  15.035   5.599   3.509  0.0722 -0.2064  0.0737
17309W        W33118  15.229  11.486  14.519  0.1692  0.0297 -0.1628
17310W        W33119   1.875  18.125   0.686 -0.0353 -0.1636 -0.2071
17311W        W33120  11.289   9.560  10.311 -0.0715  0.2296  0.1224
17312W        W33121  13.469   0.551  11.556 -0.2384 -0.0360 -0.1090
17313W        W33122   8.554   2.072   2.889  0.2810 -0.0905 -0.0530
17314W        W33123   7.847   3.653   0.843 -0.3844  0.0342 -0.0708
17315W        W33124  17.150   8.879   4.220 -0.1598 -0.1605 -0.1112
17316W        W33125   2.967   3.791   1.168  0.1427 -0.0765 -0.0667
17317W        W33126   7.788   7.956   3.362  0.0273  0.1593  0.1305
17318W        W33127   3.462  17.585  12.215  0.3749 -0.0218 -0.0007
17319W        W33128  15.523  16.979   5.241  0.1112 -0.0678  0.0510
17320W        W33129   3.974  16.061  12.864 -0.1181  0.1564 -0.0600
17321W        W33130  15.745  12.616   2.062 -0.0374 -0.0467  0.1484
17322W        W33131  14.692  11.720   0.642 -0.0832 -0.1607 -0.0235
17323W        W33132   6.399   1.168   0.758 -0.0426 -0.1618  0.0527
17324W        W33133  10.387  13.856  12.649  0.0604 -0.0019 -0.1283
17325W        W33134   5.042  18.048   0.522 -0.2012  0.1316 -0.0407
17326W        W33135  13.750  15.762   0.738  0.1043 -0.1251  0.1245
17327W        W33136   9.546  12.006  12.557  0.2144  0.1686  0.1633
17328W        W33137  17.598   8.651  15.166 -0.1185 -0.0107 -0.1952
17329W        W33138  14.019  10.246  13.041  0.2715 -0.0516  0.1134
17330W        W33139  13.018   9.198  14.912 -0.2938  0.1939 -0.1786
17331W        W33140  11.291   4.727   1.718  0.1635  0.2175  0.0787
17332W        W33141   8.233   9.060   2.189 -0.1571 -0.1694 -0.2755
17333W        W33142  17.251   1.555  15.451  0.3127  0.1776 -0.0313
17334W        W33143   7.856   9.829  13.739 -0.1185 -0.1410 -0.0978
17335W        W33144   0.737   6.320   2.152 -0.1555  0.1192 -0.1670
17336W        W33145   0.327  15.629  14.650  0.1477  0.3344  0.1111
17337W        W33146   2.647   2.731  15.473 -0.0763 -0.1194 -0.0442
17338W        W33147  13.753  16.415  11.196  0.2590 -0.0533 -0.1495
17339W        W33148   1.114  15.746   4.978  0.0850  0.0693  0.0663
17340W        W33149  17.838   4.246   5.243  0.0206  0.1305  0.1735
17341W        W33150  18.250  15.609  13.281  0.3472 -0.1010  0.1297
17342W        W33151   9.534   2.539  15.948  0.1219 -0.3106 -0.2757
17343W        W33152   3.664   3.738   1.568  0.1224  0.0497 -0.0134
17344W        W33153   5.837   9.076  13.774 -0.0564 -0.4010 -0.0550
17345W        W33154  16.554  10.515   4.260 -0.1872 -0.0972  0.1323
17346W        W33155  12.116  15.227  11.635 -0.0568  0.1074 -0.0396
17347W        W33156   5.556  14.352  11.222 -0.0199 -0.0667  0.0745
17348W        W33157   7.732  10.937   0.709 -0.0739  0.2207  0.0627
17349W        W33158  14.194  15.872  12.919 -0.0276 -0.1826 -0.2537
17350W        W33159   0.710  13.055   3.323 -0.1392  0.1112  0.0952
17351W        W33160  12.826  16.044   2.026 -0.0173  0.1139 -0.5418
17352W        W33161   8.970   2.490  13.584 -0.1160 -0.0322  0.2539
17353W        W33162  11.459   4.350   2.046 -0.1582  0.1223  0.0793
17354W        W33163   9.027   0.323  13.384 -0.0284 -0.0119  0.0156
17355W        W33164  10.376  16.861   3.808 -0.1633  0.0964  0.0776
17356W        W33165   4.074   5.097   3.320  0.1396  0.3106 -0.1624
17357W        W33166  14.053   7.074   0.861 -0.2203 -0.0054 -0.2872
17358W        W33167   2.121   0.134   3.469 -0.0376 -0.3725 -0.0174
17359W        W33168   2.378   5.002   5.113  0.0808 -0.0111  0.0487
17360W        W33169   9.890  12.825  13.565  0.0409  0.2092 -0.2323
17361W        W33170   8.553   7.408   9.796 -0.0648 -0.0474  0.1889
17362W        W33171   2.825   3.782  14.568  0.2471  0.1897  0.1269
17363W        W33172  10.485   6.319   2.037 -0.0584 -0.3160 -0.0003
17364W        W33173   6.433   7.766  14.895  0.2396 -0.3633  0.0522
17365W        W33174   2.429   8.662  14.598  0.0441  0.2948  0.2230
17366W        W33175  10.507  12.938   2.164  0.1864 -0.1915 -0.1534
17367W        W33176  17.261   3.162  11.702 -0.0661  0.1362 -0.1045
17368W        W33177  17.099   4.203  15.585  0.3400 -0.0929 -0.2758
17369W        W33178  11.084   7.015  13.696 -0.0096 -0.2065  0.2818
17370W        W33179   8.869  17.891  13.118 -0.0051  0.0636 -0.0328
17371W        W33180   8.430   2.367   3.430  0.1500 -0.0840  0.1538
17372W        W33181   4.364   1.202   1.693 -0.2061  0.2731  0.1304
17373W        W33182  11.434   6.056   2.964 -0.0676 -0.2235 -0.3668
17374W        W33183  13.754   3.403   0.375  0.2656 -0.0014 -0.2756
17375W        W33184  12.087   6.818   0.118 -0.0028  0.1824  0.1590
17376W        W33185   1.182   4.469   1.089  0.3895  0.0162  0.1719
17377W        W33186  16.470   2.305  11.784  0.0077 -0.0312 -0.1067
17378W        W33187  17.822   9.697  14.562  0.2723  0.2490  0.2331
17379W        W33188  13.864  10.506   4.293  0.2187 -0.1125 -0.0251
17380W        W33189  14.271   5.558  14.053 -0.1818 -0.0312  0.2609
17381W        W33190   8.928   2.696  14.634 -0.0711 -0.0855 -0.1027
17382W        W33191   5.077  12.147   0.667 -0.0128 -0.0329 -0.1035
17383W        W33192  11.773   9.770   1.269 -0.0564  0.1804 -0.1468
17384W        W33193   0.552   6.362  14.448  0.0139  0.1326  0.1259
17385W        W33194  17.191  11.188  13.270 -0.2336 -0.5080  0.0568
17386W        W33195  12.208  10.331  11.270 -0.2953  0.0602 -0.1730
17387W        W33196   3.594  12.328   2.519 -0.0974 -0.0343  0.0988
17388W        W33197  10.913  15.683  11.831 -0.3084  0.0751  0.0991
17389W        W33198   9.281   7.483  12.158 -0.1291  0.1739  0.0443
17390W        W33199   9.332  12.414  14.424 -0.2478  0.0618 -0.1278
17391W        W33200   8.211   1.569   5.204 -0.1480 -0.2285 -0.0997
17392W        W33201   9.323  16.192  14.085  0.2811 -0.1449  0.0215
17393W        W33202  17.884   6.305  14.174 -0.0642  0.0372  0.0888
17394W        W33203   1.895   0.615  10.685 -0.1069 -0.1673  0.0991
17395W        W33204   7.121  16.909   0.340 -0.2152 -0.1565  0.0844
17396W        W33205  14.005   5.330   4.269 -0.0046 -0.0858 -0.0035
17397W        W33206   1.135  16.752   2.449  0.0101 -0.0164 -0.3120
17398W        W33207  17.287  16.249   0.371  0.1397  0.0162  0.0316
17399W        W33208   0.168   8.545   3.739 -0.0069  0.3220 -0.0995
17400W        W33209  10.039  15.572  14.042  0.1190 -0.0001 -0.0330
17401W        W33210  11.684   3.336  13.289 -0.2875  0.0302  0.1561
17402W        W33211   8.016   8.081   5.134 -0.2130 -0.0491 -0.0478
17403W        W33212  13.740   6.823  13.978  0.0245 -0.0593 -0.0649
17404W        W33213   0.515  14.651  14.341  0.0101 -0.1021 -0.0468
17405W        W33214  16.164  13.053  15.167  0.1847 -0.4663 -0.2335
17406W        W33215  17.557  13.706  12.253  0.2186  0.0117  0.1331
17407W        W33216   5.305  17.019  11.637  0.3194 -0.2574 -0.0997
17408W        W33217  15.929   1.399  10.931  0.1942  0.0418 -0.2219
17409W        W33218  10.728  11.421   4.878  0.0982 -0.4203  0.2770
17410W        W33219   3.231   1.197  10.449 -0.0559  0.0373  0.0311
17411W        W33220  14.860   0.605  14.308 -0.3743 -0.0402 -0.1926
17412W        W33221   2.367   8.787  15.237 -0.2242 -0.3940 -0.5187
17413W        W33222   3.611   2.956  13.442  0.0077 -0.0647 -0.1563
17414W        W33223   0.610  11.356   2.165  0.2937 -0.1778  0.2608
17415W        W33224   7.296  12.958  12.300  0.1059 -0.2874  0.0174
17416W        W33225   6.061  14.525   1.872 -0.0078 -0.1986  0.1847
17417W        W33226   5.318   2.969  12.340 -0.0604  0.2313 -0.0294
17418W        W33227   3.783  11.319  11.999 -0.0572 -0.5222  0.0329
17419W        W33228  11.731   0.784   3.886  0.0204 -0.1857 -0.1344
17420W        W33229   7.918   0.408  12.573 -0.1776  0.2297  0.0128
17421W        W33230  16.319  12.834   1.673  0.2079 -0.0720  0.2129
17422W        W33231   2.052  12.471   3.227 -0.0301 -0.2404  0.1047
17423W        W33232   6.754  14.539   4.454  0.1331 -0.1864  0.3860
17424W        W33233   1.847   8.779  12.676 -0.0986  0.2126  0.1338
17425W        W33234   0.046  14.147   0.842 -0.2646  0.0972  0.1680
17426W        W33235   5.447  17.805   0.443 -0.0656 -0.1138  0.1703
17427W        W33236  11.541   5.890  10.601 -0.1682  0.0845 -0.1099
17428W        W33237  13.716  13.831  14.661  0.1801 -0.2095  0.3086
17429W        W33238  15.752   8.270   1.650 -0.0123 -0.2976  0.0203
17430W        W33239  11.322  16.489  14.708 -0.1094 -0.2124  0.1884
17431W        W33240   8.919  17.658  15.092  0.2712 -0.2191 -0.0891
17432W        W33241  10.940   3.021  15.974 -0.2112  0.1975 -0.0297
17433W        W33242  16.736   5.874   1.908 -0.0763 -0.0816  0.1261
17434W        W33243   6.250   4.512  11.781 -0.0699 -0.1270  0.1870
17435W        W33244  14.726   8.147   2.032 -0.1363 -0.2891  0.0670
17436W        W33245  18.085   1.627  11.767 -0.1307 -0.2372  0.1446
17437W        W33246   0.288   7.854   1.605  0.1722  0.3134  0.0834
17438W        W33247   6.398   6.840   1.718  0.0526  0.2190 -0.0286
17439W        W33248   7.939   6.836  12.530 -0.2738  0.1425  0.0783
17440W        W33249   5.586   0.671   2.291 -0.4202 -0.1824 -0.1037
17441W        W33250  13.163   4.949  14.767 -0.0853 -0.3654  0.1013
17442W        W33251   5.907  13.232   5.361  0.0047  0.2181  0.0545
17443W        W33252   7.382  11.370  11.687  0.0307  0.3638  0.0561
17444W        W33253   7.183   8.982   4.601  0.0820  0.1198 -0.1472
17445W        W33254  15.913   8.217  11.368 -0.1049 -0.1963  0.0051
17446W        W33255  12.042  13.873   0.089  0.1496 -0.0458  0.1683
17447W        W33256   3.646   1.276   1.202 -0.1359  0.1655  0.2237
17448W        W33257   9.087   7.718  10.876 -0.2799  0.0592  0.0222
17449W        W33258  17.306  13.919   0.893  0.2291 -0.0242  0.3515
17450W        W33259  16.432  10.441  13.518  0.1887  0.3230 -0.1583
17451W        W33260  17.687  11.934   2.880  0.0444 -0.2144  0.0692
17452W        W33261   4.942   4.875  11.849 -0.3196  0.2094 -0.0372
17453W        W33262  12.683   4.113   3.889  0.0061 -0.0399 -0.0064
17454W        W33263  13.037   2.573  15.278  0.0445 -0.1382  0.1229
17455W        W33264  15.363   6.949  13.168 -0.1722 -0.0110 -0.2218
17456W        W33265   1.002  12.591   0.918 -0.1807 -0.2189  0.0223
17457W        W33266  12.363  16.201   2.116  0.0158  0.1855 -0.0134
17458W        W33267  11.972   2.455  15.299  0.4668  0.1236 -0.1930
17459W        W33268  13.241   7.561   2.543 -0.0055  0.0378 -0.0498
17460W        W33269  14.684   6.890  15.061 -0.1321  0.3321 -0.0673
17461W        W33270   6.962   1.048   4.177 -0.2083  0.1681  0.1009
17462W        W33271   4.812  12.466   0.933  0.1748 -0.0086  0.4531
17463W        W33272  16.627  11.951   0.701 -0.5756 -0.5451 -0.0211
17464W        W33273   0.600   4.740   1.299  0.1199 -0.1766 -0.1001
17465W        W33274   3.886   1.041   4.530  0.0225 -0.1758  0.0517
17466W        W33275   1.782   8.539   0.026 -0.2085 -0.0277  0.0636
17467W        W33276   0.404  16.136  14.422 -0.2373  0.0179 -0.1426
17468W        W33277  13.458  11.291   2.340  0.0965 -0.2839 -0.0817
17469W        W33278  16.568  12.450   1.692 -0.2473  0.1957  0.1054
17470W        W33279  16.269  10.554   5.341 -0.3923 -0.0389  0.1248
17471W        W33280  11.272   2.190   1.365 -0.1051  0.1214 -0.0014
17472W        W33281  14.895   0.147  15.103  0.1123  0.0839  0.0502
17473W        W33282  13.297   4.604   4.275 -0.1475 -0.0195 -0.0098
17474W        W33283   6.400   3.155  11.085 -0.4779 -0.4761  0.1017
17475W        W33284  16.275  13.163   3.338 -0.1839 -0.3298  0.2021
17476W        W33285   9.365   3.118   3.255  0.2949 -0.3333 -0.1864
17477W        W33286  10.257  16.636   0.512 -0.0293 -0.3695 -0.1676
17478W        W33287   8.804  15.433  11.257  0.2798 -0.3011 -0.0456
17479W        W33288   6.025   3.884   3.764  0.0948 -0.2696 -0.1857
17480W        W33289   9.349  15.245   1.561  0.3696 -0.0160 -0.2796
17481W        W33290   2.012   5.701  12.685  0.1328 -0.0905  0.0518
17482W        W33291  10.074  10.789  13.943  0.2895 -0.0054 -0.0959
17483W        W33292  14.315  14.699  14.757 -0.5351 -0.0727  0.1529
17484W        W33293   2.615  13.488  12.826 -0.0068 -0.2272  0.0668
17485W        W33294   8.396   8.477   2.338 -0.0058  0.2515  0.0500
17486W        W33295  11.148  15.199   0.559 -0.1105 -0.0056  0.0112
17487W        W33296  16.113   7.721  14.793 -0.5013  0.4187  0.0410
17488W        W33297   6.153  17.565  15.498 -0.1323 -0.1611  0.1884
17489W        W33298  17.577   9.026   1.688  0.1783  0.0336 -0.1435
17490W        W33299  15.845  18.035  13.479 -0.2592 -0.1232  0.1081
17491W        W33300   7.666  16.499   5.268  0.2275 -0.0754  0.3146
17492W        W33301   1.289   1.837  11.823  0.0711  0.1413  0.0842
17493W        W33302  17.175  17.775  15.159 -0.0347  0.0367  0.0022
17494W        W33303   2.018   0.656   0.947  0.0230 -0.1231 -0.1255
17495W        W33304  16.855   9.247   0.291 -0.0311 -0.2078 -0.0702
17496W        W33305   0.930  15.364   0.914 -0.4518  0.0556  0.0848
17497W        W33306   6.802   1.122  15.042 -0.1651 -0.0105  0.2260
17498W        W33307  16.444   3.551  11.375  0.0619 -0.0016  0.1476
17499W        W33308   1.783   6.621  14.403  0.2542  0.2188  0.0318
17500W        W33309   0.446  12.295   1.648 -0.0323 -0.1619 -0.1985
17501W        W33310   7.554   7.734  14.147 -0.1491  0.2460  0.0712
17502W        W33311  17.943   5.575   2.728 -0.0038 -0.0068 -0.1221
17503W        W33312   8.784   7.157   5.067  0.0502 -0.2087  0.3036
17504W        W33313  14.071  14.973   4.052  0.0518  0.1128  0.0352
17505W        W33314   2.000   6.168  14.368 -0.1357  0.2535 -0.0398
17506W        W33315  14.476   7.138  11.512  0.0347 -0.0558  0.0658
17507W        W33316  11.754  14.180  14.787 -0.0908  0.2213  0.0553
17508W        W33317   4.615  14.478   0.522  0.0947 -0.1474 -0.2364
17509W        W33318   1.369   9.205   4.069  0.0111  0.0399  0.0828
17510W        W33319   1.877  14.543  15.570  0.0131 -0.3229 -0.1132
17511W        W33320  13.258   4.742   5.318  0.0116  0.0713  0.0177
17512W        W33321   5.916  17.517  15.954  0.2994  0.0266 -0.2712
17513W        W33322   6.035   5.572  12.968 -0.0811  0.1286 -0.0722
17514W        W33323  14.393   1.851   4.501  0.4607 -0.1501  0.1114
17515W        W33324   2.808  13.891   1.153  0.0246 -0.5430 -0.1537
17516W        W33325  10.764   6.848  15.828  0.3366  0.1806  0.1286
17517W        W33326   3.974  14.281   0.235 -0.0265 -0.1257  0.0668
17518W        W33327   8.661  16.344   1.260 -0.1818  0.0447 -0.3066
17519W        W33328   2.198  13.831  11.581 -0.2219 -0.0804  0.0995
17520W        W33329   0.317   9.746   2.867  0.1513 -0.0028  0.1201
17521W        W33330  14.546   6.492   4.254 -0.3036 -0.2792 -0.0375
17522W        W33331  17.098  11.723   3.673  0.1109 -0.0314  0.0185
17523W        W33332   6.006   9.251  14.652 -0.0960  0.1624 -0.0729
17524W        W33333  15.293  10.527   4.510  0.2043 -0.3384  0.0121
17525W        W33334  15.846   0.433  15.938  0.0761 -0.0133  0.0173
17526W        W33335  17.876  15.401   1.491 -0.1291 -0.1172  0.0729
17527W        W33336  15.818  13.530   1.906  0.0507  0.1148 -0.1046
17528W        W33337   3.248   0.141   5.146  0.0775 -0.3050  0.3060
17529W        W33338   1.530  13.984   1.095 -0.0359  0.3845  0.2189
17530W        W33339  11.724  15.714  12.951 -0.0280 -0.1159 -0.1913
17531W        W33340   1.259   4.650  13.245 -0.0279  0.2766 -0.0932
17532W        W33341  16.883  10.622  12.138 -0.2525  0.1294  0.1892
17533W        W33342  15.400  13.477  12.811  0.2085  0.0880 -0.1905
17534W        W33343   6.261   8.184   0.125 -0.3171 -0.3300  0.1450
17535W        W33344   2.874  13.959  11.194 -0.0008 -0.0505 -0.3498
17536W        W33345  12.947   0.711  15.985 -0.0349 -0.0311  0.0248
17537W        W33346  10.784   3.022   1.697  0.0327 -0.1433  0.4673
17538W        W33347  13.636   1.221   4.254  0.1455  0.3680  0.0112
17539W        W33348  12.016   7.345  14.777 -0.1421 -0.1636 -0.0583
17540W        W33349  12.446  16.966   3.490  0.4706 -0.1559 -0.1062
17541W        W33350   8.132  12.982  15.210  0.1049  0.1144 -0.2665
17542W        W33351  12.568   1.721   1.619 -0.2369 -0.0758  0.0094
17543W        W33352  14.047  14.191   3.423 -0.1766  0.0823 -0.0163
17544W        W33353  10.728   3.276  11.799  0.3601 -0.2180 -0.1364
17545W        W33354   1.606   1.944   2.718 -0.1355 -0.0915 -0.0149
17546W        W33355  14.002   9.768   4.908  0.3821 -0.1055 -0.1500
17547W        W33356   6.045   3.483   1.954 -0.0040  0.4140 -0.3714
17548W        W33357   6.427   5.187  10.955 -0.0317 -0.0027  0.0004
17549W        W33358   9.090  13.514   3.512 -0.0290 -0.0676  0.2506
17550W        W33359  13.850   0.266  12.667  0.2658  0.0830 -0.1392
17551W        W33360  14.153  14.526   4.227  0.0064 -0.0171  0.0811
17552W        W33361   6.593  18.219  11.719 -0.0248  0.0557  0.0775
17553W        W33362  13.603  16.696  15.503  0.0738 -0.1478 -0.3360
17554W        W33363   5.810  16.722  14.025  0.0852 -0.0869  0.1271
17555W        W33364  17.598  13.952   4.822  0.1824  0.2547  0.2283
17556W        W33365   1.414   3.653   0.014  0.1697  0.2357 -0.1602
17557W        W33366   2.350  17.487  12.841 -0.2185 -0.2748 -0.1648
17558W        W33367   8.425  15.138   1.463  0.1691  0.2433 -0.1702
17559W        W33368  13.123  10.161  15.816  0.0817 -0.1371  0.0291
17560W        W33369   8.792   8.059  14.983  0.2751  0.2628 -0.0831
17561W        W33370   4.228   5.380   5.826 -0.2365  0.1198  0.2141
17562W        W33371   8.710  10.449  13.020  0.3583  0.1919  0.2754
17563W        W33372   8.494  12.507   5.512  0.1580  0.0317  0.0509
17564W        W33373  17.315   0.635  11.685  0.0524 -0.0892 -0.3248
17565W        W33374   8.270   4.727   0.078  0.1870 -0.1713 -0.0107
17566W        W33375   9.193  17.502   3.769  0.1165  0.0183  0.2445
17567W        W33376   9.058   9.644   1.017 -0.0689  0.3384 -0.0828
17568W        W33377  11.229   2.628   3.769  0.0530 -0.0548  0.0618
17569W        W33378   8.347  12.284   2.761 -0.0896 -0.1088  0.1691
17570W        W33379   7.477  15.972  11.633  0.1913 -0.3409  0.1009
17571W        W33380  12.355   3.468   5.624 -0.1893  0.0013 -0.0597
17572W        W33381   9.596   3.865   2.812 -0.1720 -0.0018 -0.1279
17573W        W33382   5.368   2.298  13.196 -0.0382  0.0360  0.2623
17574W        W33383  12.074   4.484  13.705 -0.0622 -0.1766  0.1849
17575W        W33384   4.631  14.188  10.770 -0.2223 -0.2643 -0.1351
17576W        W33385  11.605  18.087  12.693  0.1786  0.0929  0.1608
17577W        W33386   2.857   0.747   3.497  0.0226  0.0261  0.4462
17578W        W33387  14.884   9.206   3.216 -0.1865  0.0410 -0.2271
17579W        W33388  14.492  14.231   5.758  0.1485  0.0284 -0.0564
17580W        W33389   7.619   7.877   4.686  0.4466 -0.1090 -0.0935
17581W        W33390   5.199   4.925   2.810 -0.0063 -0.0983  0.1645
17582W        W33391   2.998   5.850   5.202 -0.1327  0.3198 -0.1289
17583W        W33392   3.535   1.583   4.469  0.0288  0.0294 -0.0057
17584W        W33393  12.119   8.182  14.768  0.0365  0.6087 -0.2477
17585W        W33394   3.375  11.439   0.898 -0.0078 -0.2111 -0.1226
17586W        W33395   4.075  13.875  12.651 -0.0675  0.1381 -0.2337
17587W        W33396   7.431  12.819   5.665 -0.2080  0.1908  0.1978
17588W        W33397   2.761   3.553   1.998 -0.2745  0.0108  0.3967
17589W        W33398  15.588   8.087   5.501 -0.2167 -0.2186 -0.0559
17590W        W33399  17.327   7.195   0.044  0.0227 -0.0357 -0.2121
17591W        W33400  15.417   4.913  15.460  0.2606 -0.1691  0.0396
17592W        W33401   5.175  14.256  10.939  0.4897  0.2777  0.1247
17593W        W33402  12.803  18.194  13.999  0.0372 -0.0959  0.5200
17594W        W33403   2.064  13.361   5.479  0.0878  0.2875  0.0819
17595W        W33404  17.977   2.236   3.894  0.2482 -0.0099  0.3229
17596W        W33405   5.977  10.433   2.702 -0.0891  0.1431  0.0416
17597W        W33406   8.625   9.231  10.520  0.0992  0.1604 -0.1232
17598W        W33407  12.207   1.331   5.357 -0.2068 -0.2300 -0.1978
17599W        W33408   7.662  16.186  13.592  0.1210 -0.1046 -0.2624
17600W        W33409  14.056   6.575   2.775 -0.0290 -0.3336  0.2038
17601W        W33410  12.506  15.371   0.851  0.0564  0.0886 -0.0266
17602W        W33411  13.882  16.316   1.906  0.0506  0.3991 -0.1829
17603W        W33412   7.781  14.363  13.357 -0.0392  0.2149  0.1196
17604W        W33413  13.347   7.565   0.376  0.1126  0.1388 -0.0018
17605W        W33414  17.171   7.272  14.728 -0.1244 -0.2964  0.0741
17606W        W33415   2.946  11.577   0.674 -0.4562 -0.0178 -0.2286
17607W        W33416  17.436   2.739   0.467 -0.0576 -0.0311  0.1241
17608W        W33417   1.643   5.750  14.109  0.1573 -0.1454  0.0272
17609W        W33418   4.439  17.824  15.848 -0.3180 -0.0024 -0.1688
17610W        W33419  11.725   9.790  13.884 -0.0938  0.2309 -0.3406
17611W        W33420  17.056   3.038  10.241  0.1089  0.0742  0.0308
17612W        W33421  13.855   2.437   4.145  0.3176 -0.2073  0.0118
17613W        W33422   9.379   7.834   5.505 -0.1570  0.2891  0.1063
17614W        W33423   2.295   7.172   1.156  0.0203  0.1981  0.2451
17615W        W33424  15.054  10.791   3.592  0.0303 -0.0978  0.1257
17616W        W33425  10.437   1.654   3.991 -0.0475 -0.1172  0.4867
17617W        W33426  16.946  11.909   9.955 -0.1379 -0.1169 -0.1523
17618W        W33427   9.061  16.332   5.093 -0.1188  0.0774  0.0845
17619W        W33428  14.670   2.926  12.762  0.0972 -0.0489 -0.2309
17620W        W33429   5.090   9.397   4.974 -0.0350 -0.3160  0.1070
17621W        W33430  17.246   6.824  13.058  0.2513  0.0414 -0.1790
17622W        W33431   1.933  12.076   0.889  0.1538 -0.1543  0.2616
17623W        W33432  11.411  14.968   1.910  0.2000 -0.1854 -0.0717
17624W        W33433   0.839   1.892   0.922 -0.3010 -0.0152  0.1875
17625W        W33434  13.352   7.973  15.509 -0.2908  0.1496 -0.0168
17626W        W33435  15.988   3.780  14.657  0.1642 -0.0570 -0.1344
17627W        W33436  13.772   0.284   0.636 -0.2588  0.2710 -0.2911
17628W        W33437   3.780   7.765   4.190 -0.0957  0.0340 -0.1670
17629W        W33438   4.937  13.507  14.072 -0.0586  0.0626 -0.0732
17630W        W33439  16.593  14.042   5.551 -0.2049  0.0938 -0.0977
17631W        W33440  13.689  15.508   3.999  0.0621  0.1131 -0.1053
17632W        W33441  10.979  11.217  10.646  0.1919  0.1483 -0.2005
17633W        W33442  15.521  16.791   1.064  0.2023 -0.1004 -0.0156
17634W        W33443  14.953  13.370   5.308  0.1254  0.1176  0.2433
17635W        W33444   4.258  17.368   6.301  0.0878 -0.2612 -0.0438
17636W        W33445   6.964  11.457   1.789  0.0828  0.1679  0.2021
17637W        W33446  17.029   6.071  11.859 -0.3044 -0.2646 -0.0745
17638W        W33447  12.965   0.391  13.796 -0.0096  0.2205 -0.5187
17639W        W33448  12.452  12.549  15.646  0.2491 -0.0394  0.1058
17640W        W33449  15.083  16.547   6.629  0.0276 -0.0864 -0.0449
17641W        W33450  12.369  16.010  13.044 -0.1986  0.1183  0.2025
17642W        W33451  16.726   5.244  10.752 -0.0186 -0.0320  0.2588
17643W        W33452  12.138   5.260  15.283 -0.2121 -0.1260  0.0629
17644W        W33453  11.054   9.669  12.615  0.0569  0.0059 -0.3985
17645W        W33454  11.950   9.921   0.007  0.0113  0.0432 -0.0684
17646W        W33455   7.336   4.799  11.505 -0.1126  0.0639 -0.1016
17647W        W33456   5.751  11.623   3.960  0.1845  0.0225  0.0077
17648W        W33457   5.344  17.522   5.484 -0.0430 -0.1000 -0.4929
17649W        W33458   8.999   3.583   0.500  0.2200 -0.1541 -0.0583
17650W        W33459  15.358  12.263   0.920  0.1478 -0.5750  0.2678
17651W        W33460  13.059   5.973   2.047  0.3508  0.2283 -0.2943
17652W        W33461   7.928   1.696  14.793  0.2281  0.0106 -0.2833
17653W        W33462   9.660  12.143  11.420  0.1578  0.2864  0.1580
17654W        W33463  12.160   2.798  11.919 -0.0526 -0.0140  0.1342
17655W        W33464  10.961  15.431   3.667  0.1038 -0.0710  0.2912
17656W        W33465   4.463   0.548  12.397 -0.0835  0.1426  0.0695
17657W        W33466   2.906   8.517   2.456  0.3022  0.1613  0.2543
17658W        W33467   0.266  15.932  13.037 -0.2394  0.0844 -0.0954
17659W        W33468   0.165   0.479   1.930 -0.2077 -0.1743 -0.0661
17660W        W33469   1.897   6.680  11.024  0.2288 -0.3749 -0.1754
17661W        W33470   1.490   4.723  15.282  0.0479  0.0534  0.1642
17662W        W33471  11.521  12.079   3.640  0.2252 -0.2770  0.0384
17663W        W33472   8.300   3.179  11.635 -0.1612 -0.1119 -0.4610
17664W        W33473  12.337  15.926  14.660 -0.0608 -0.1103 -0.1261
17665W        W33474  17.604  14.552  13.606  0.0168 -0.1451 -0.1142
17666W        W33475   3.607   6.790   1.081  0.3018  0.0882  0.2219
17667W        W33476  15.651  12.300   4.614 -0.0293  0.2171  0.0598
17668W        W33477  16.200  12.476   2.037 -0.0031  0.3768  0.2674
17669W        W33478   1.986   8.200   0.970 -0.0159 -0.1344  0.0239
17670W        W33479   7.317   2.841  11.489  0.0534 -0.1655  0.1092
17671W        W33480   9.620   8.755  12.258 -0.2639  0.0460 -0.0757
17672W        W33481  17.334  17.965   0.910  0.1900  0.3203  0.0682
17673W        W33482  14.509   9.109   0.232 -0.1337  0.1095  0.2506
17674W        W33483   6.472   1.443   1.687 -0.5574  0.2116 -0.2322
17675W        W33484   7.013  13.733   2.479  0.1316  0.3630  0.2574
17676W        W33485  16.462  11.376  15.602 -0.1366 -0.0096  0.2152
17677W        W33486  10.085   4.740  12.916 -0.2490  0.2250 -0.0146
17678W        W33487  10.316  12.689   3.469 -0.3408 -0.0695 -0.0632
17679W        W33488   3.590   7.377   5.114 -0.0675 -0.0269  0.1432
17680W        W33489   1.829   1.733  14.027  0.2388  0.1207  0.1807
17681W        W33490   3.869   2.629   3.630  0.2544 -0.2476  0.0798
17682W        W33491   2.485  13.185  12.098 -0.2697 -0.0510  0.0636
17683W        W33492   9.167  12.665   3.883 -0.1412 -0.1952  0.0861
17684W        W33493   2.677  14.944  11.990  0.1598  0.0782  0.1109
17685W        W33494  16.646   1.174   6.306  0.2275 -0.0412 -0.2935
17686W        W33495   5.111  14.615   4.292  0.0814 -0.2147  0.3488
17687W        W33496  11.241   0.777  14.508 -0.0028  0.4331  0.1397
17688W        W33497   4.741  17.826   3.137  0.0410 -0.2681  0.3639
17689W        W33498   3.723   1.228   2.989  0.0070  0.3150 -0.1862
17690W        W33499  17.701   1.644  15.165  0.0080 -0.3651  0.0966
17691W        W33500  13.945   2.923   1.606  0.0492 -0.1707  0.0768
17692W        W33501   4.336   2.629  14.716  0.1619  0.0322  0.1042
17693W        W33502   3.460  11.593  13.134  0.2056 -0.0699 -0.0275
17694W        W33503  13.724   8.733  15.379  0.4349  0.2749  0.0457
17695W        W33504   2.306   5.853  13.492  0.1959  0.2306  0.2820
17696W        W33505  10.903   0.420  15.223  0.0472  0.0090 -0.1245
17697W        W33506  15.641  11.608   0.484 -0.1052  0.1319 -0.2560
17698W        W33507   4.466  18.120   2.290  0.3060  0.0350  0.1855
17699W        W33508  17.140   5.046  15.857 -0.2520 -0.0238 -0.0628
17700W        W33509   1.434  12.571  11.608 -0.1776  0.4374  0.0053
17701W        W33510   5.973  16.621   4.738 -0.2198  0.2298 -0.3216
17702W        W33511   8.824  12.908   0.573  0.0014  0.1602  0.0172
17703W        W33512  17.396   5.678   2.560  0.0061 -0.0836 -0.2812
17704W        W33513  12.107   7.037   1.886 -0.1470 -0.0898 -0.0759
17705W        W33514   1.996  17.783   2.703 -0.0709 -0.0615  0.1558
17706W        W33515  14.869   7.729  15.078 -0.0723 -0.4816 -0.1973
17707W        W33516  17.651   2.809  12.854  0.0843 -0.2642  0.1781
17708W        W33517  11.659  10.790   3.047 -0.1193 -0.2361  0.0372
17709W        W33518   2.694  14.527  13.308 -0.2519  0.3826  0.2915
17710W        W33519  12.902   7.238   0.557 -0.1331  0.0674 -0.0760
17711W        W33520   1.355   0.258   3.899  0.3380 -0.2389 -0.0155
17712W        W33521   6.583   3.825  15.343 -0.2084 -0.2856  0.2517
17713W        W33522  17.608   5.443   5.607  0.2290 -0.2649  0.2271
17714W        W33523  10.870   3.554   0.181 -0.1135 -0.0993  0.1579
17715W        W33524   2.065  14.625   0.655 -0.0545 -0.0088 -0.2496
17716W        W33525   2.196  17.263   1.184  0.2993 -0.1541  0.2096
17717W        W33526   0.856  13.366   4.322 -0.1421  0.5290 -0.0188
17718W        W33527   3.190  12.314   0.277  0.0108  0.2632  0.0389
17719W        W33528  12.086   2.763   0.893 -0.1956 -0.0968  0.0273
17720W        W33529  16.272  15.722  12.622 -0.1717 -0.1292  0.0629
17721W        W33530   5.039  15.989  12.127 -0.0258  0.2015 -0.3378
17722W        W33531  12.819   7.613   1.582 -0.2258 -0.1124  0.1755
17723W        W33532   9.601   2.359   0.369 -0.2315  0.2715  0.0732
17724W        W33533   6.052   7.777  12.601  0.1640 -0.0164  0.3317
17725W        W33534  10.802   2.533  13.753 -0.3593  0.1097 -0.2543
17726W        W33535   3.189   4.949   1.960 -0.1150 -0.2133 -0.0698
17727W        W33536   9.542  17.443  13.619  0.0749 -0.0098  0.1302
17728W        W33537  13.936   7.904  11.706  0.0986  0.0987 -0.0456
17729W        W33538   7.461   4.202   0.608 -0.0909  0.0560  0.0832
17730W        W33539   5.295   2.492   4.825 -0.0241  0.0849 -0.4996
17731W        W33540   8.749   0.876   2.024  0.1116  0.2926 -0.1052
17732W        W33541  16.497   0.518  14.446  0.0876 -0.0481 -0.0220
17733W        W33542   1.629   7.908  11.526  0.1213 -0.0225  0.3264
17734W        W33543   7.812  13.281   0.291  0.0702  0.0866  0.0727
17735W        W33544  11.476   2.569  13.805 -0.2449 -0.3424  0.1352
17736W        W33545   7.667   5.100  12.611  0.5345 -0.3213  0.0732
17737W        W33546   3.619  10.010  13.293 -0.1973 -0.1460 -0.1200
17738W        W33547   0.394   4.896  13.118 -0.2460  0.3697  0.1719
17739W        W33548  16.659  14.480   3.026 -0.0228  0.0954 -0.0953
17740W        W33549  14.705   9.980   5.124  0.0539 -0.0259 -0.0258
17741W        W33550  11.706  12.215   4.586 -0.3513  0.0736 -0.0335
17742W        W33551   2.103   0.941  15.060 -0.1765  0.1426 -0.0834
17743W        W33552  12.423   7.020  14.016 -0.2200 -0.0890  0.3826
17744W        W33553  10.539  15.138  13.250  0.1826  0.1168  0.2061
17745W        W33554  16.739  14.782  14.260  0.1151  0.1383 -0.0213
17746W        W33555   5.220  14.576  14.551  0.1498 -0.1494  0.3619
17747W        W33556   8.171  16.934  13.957  0.2598  0.1645 -0.0356
17748W        W33557  13.525  16.613   1.648  0.2481  0.0091  0.1305
17749W        W33558  17.674  10.348  11.346 -0.0815  0.0422  0.0440
17750W        W33559  16.763   6.436   0.965 -0.1910  0.1942 -0.3269
17751W        W33560  15.466  14.975   3.121 -0.0282  0.1726 -0.0854
17752W        W33561   2.595  16.148  12.423  0.1174 -0.0253 -0.0762
17753W        W33562  16.315  11.411  13.346 -0.0322 -0.0268 -0.1997
17754W        W33563  17.788  12.072   2.415 -0.1960  0.0823  0.1584
17755W        W33564   3.573   4.919  14.129  0.0964  0.0805  0.0071
17756W        W33565  11.920   0.753  12.600  0.2659  0.0230  0.0386
17757W        W33566   9.066   9.499   1.564 -0.0298  0.0370  0.2017
17758W        W33567   9.520  14.825  13.997  0.0182  0.0696  0.0224
17759W        W33568  14.366   7.902  11.938 -0.3486 -0.3145  0.1171
17760W        W33569  16.402  12.982   4.521 -0.0286 -0.0567 -0.1679
17761W        W33570  16.998   0.375  13.144 -0.2498 -0.0408 -0.1714
17762W        W33571  16.840   7.083   0.306 -0.1302  0.0484 -0.0241
17763W        W33572   8.686   8.510  11.003 -0.1050  0.1572 -0.0284
17764W        W33573   7.036   0.272  12.669  0.1065 -0.2983  0.1454
17765W        W33574  13.894  10.361  14.729 -0.0197 -0.2135  0.1071
17766W        W33575   7.662   2.360   3.274  0.1459 -0.3217  0.0285
17767W        W33576  14.982   4.793   2.361  0.0797 -0.2580  0.0140
17768W        W33577   7.588   0.482   3.126 -0.0867 -0.0394 -0.3493
17769W        W33578   1.214  14.654  12.795 -0.1138 -0.0904  0.2083
17770W        W33579   8.900  11.734  15.339 -0.0371  0.0967 -0.1700
17771W        W33580  18.088  17.523  13.872  0.0347  0.0761  0.1720
17772W        W33581   4.348  16.919  15.572  0.3054 -0.2680 -0.0233
17773W        W33582   2.655  16.483  15.279  0.0477  0.2347 -0.1141
17774W        W33583  11.310   6.902  14.966 -0.3535  0.0587 -0.4603
17775W        W33584   7.099   6.169   1.544  0.3142 -0.2333  0.0579
17776W        W33585  13.060   9.438  15.957  0.0938 -0.1563  0.0678
17777W        W33586  17.724  15.561   3.799 -0.2270 -0.0870 -0.0128
17778W        W33587  13.016   1.836   5.472  0.2266 -0.1139 -0.0218
17779W        W33588  13.666  10.808  14.710 -0.0657 -0.1970  0.1116
17780W        W33589   2.578   4.083  14.139  0.1002 -0.0082 -0.0954
17781W        W33590   0.972  17.053   4.191 -0.2476 -0.0679 -0.1160
17782W        W33591  16.900   9.426  11.924  0.0309 -0.4163 -0.0917
17783W        W33592   7.749   7.148   4.174  0.1057  0.1159 -0.0927
17784W        W33593  14.136  11.419   1.648 -0.0610  0.1058 -0.2301
17785W        W33594  12.319  12.021   4.780  0.0782 -0.0358 -0.0168
17786W        W33595   5.390  18.190   5.277  0.0102 -0.1970  0.2525
17787W        W33596   7.946  17.963  12.826  0.0518 -0.0248  0.0617
17788W        W33597  13.320   3.936   2.405 -0.0859 -0.1306  0.0870
17789W        W33598  11.740  18.241  13.668  0.0858  0.1998 -0.1536
17790W        W33599   4.378   4.235   0.295  0.1162  0.1093  0.1030
17791W        W33600   2.898   9.624  14.065  0.2176  0.0227 -0.0916
17792W        W33601  11.867   9.358   4.605  0.2337 -0.1749 -0.1412
17793W        W33602   5.174   9.020  11.286  0.2012 -0.1460  0.2401
17794W        W33603  13.335  17.924  12.653  0.0036  0.0376  0.1172
17795W        W33604   6.343  13.208  14.921 -0.3704 -0.0262  0.1076
17796W        W33605   1.605   6.063  14.626 -0.0026 -0.1221  0.0734
17797W        W33606  16.775   8.013   3.132 -0.4223 -0.4497 -0.0047
17798W        W33607  15.760  12.831   1.583 -0.2457  0.0228 -0.1559
17799W        W33608  13.747  17.399  13.314  0.2010 -0.3375 -0.1594
17800W        W33609   5.263  15.038   9.866 -0.3624 -0.0366 -0.0822
17801W        W33610   9.574   5.845   2.253 -0.1632 -0.1380 -0.0492
17802W        W33611  13.178   5.159  11.860  0.0592  0.4706 -0.3397
17803W        W33612   8.666  10.792   3.365 -0.0751 -0.1324 -0.0779
17804W        W33613   6.895  10.190   0.398  0.0290  0.0348 -0.1524
17805W        W33614   7.951   1.545  12.953 -0.0607  0.2926 -0.0132
17806W        W33615   8.451   6.343  10.760  0.0183 -0.0437 -0.0205
17807W        W33616  11.793   8.636  13.383 -0.1510  0.0404  0.0984
17808W        W33617   7.502   1.432  12.340 -0.0284  0.1948 -0.0811
17809W        W33618  15.456   7.476   1.724  0.0908  0.0127  0.1478
17810W        W33619   5.090   4.559   5.172  0.1574 -0.2513 -0.1032
17811W        W33620   7.086   8.458   1.947 -0.4416  0.1165 -0.1958
17812W        W33621   5.696  13.506  14.104  0.0782 -0.1976  0.0552
17813W        W33622  16.467  11.873  13.792 -0.0787 -0.1363  0.2143
17814W        W33623   6.297  13.667   3.798 -0.0701  0.0573  0.1131
17815W        W33624   6.530  17.784  14.438  0.0001 -0.0854  0.2504
17816W        W33625  10.882   9.230   3.260 -0.1582  0.2420 -0.1331
17817W        W33626  11.436   6.683  12.652 -0.0542  0.1243  0.0080
17818W        W33627  13.354   4.191  12.043  0.2546  0.2280 -0.1353
17819W        W33628   3.257   3.465   5.389  0.2727  0.1743  0.0808
17820W        W33629   3.945  18.202   2.135 -0.1657  0.0660 -0.3492
17821W        W33630  16.972  14.153  16.047  0.2076 -0.1251 -0.1579
17822W        W33631  10.112  11.060   4.303  0.0296  0.0129 -0.1968
17823W        W33632  12.698   2.830   5.232 -0.3059 -0.1735  0.1756
17824W        W33633   4.290   4.243   3.742 -0.0816 -0.1522 -0.1916
17825W        W33634   4.345   3.440   3.566  0.3590 -0.0600  0.0385
17826W        W33635  12.803   3.814   1.631 -0.0259 -0.1035  0.2797
17827W        W33636  14.156  15.496   3.733  0.0907 -0.0727 -0.1309
17828W        W33637   3.271  14.755   1.737  0.2626  0.0791 -0.2101
17829W        W33638   5.991   4.110  14.518 -0.2985  0.0368 -0.0056
17830W        W33639  11.852   1.870   2.952 -0.0768 -0.1347  0.3223
17831W        W33640  12.317   6.576   1.583 -0.0705  0.1224  0.1082
17832W        W33641  17.742   0.136   0.924  0.0798 -0.1261 -0.0330
17833W        W33642   3.156   7.008  13.251 -0.0354  0.2667  0.1655
17834W        W33643   4.624   9.183   4.018  0.0362 -0.0364  0.0706
17835W        W33644   4.570  17.601   0.994  0.1553  0.0707 -0.0792
17836W        W33645   4.218  11.262   0.623  0.1366 -0.0417 -0.0604
17837W        W33646   5.126   6.773  13.740 -0.4570 -0.1076 -0.0177
17838W        W33647   7.464  17.862  13.124  0.1539  0.1547 -0.0339
17839W        W33648  17.791   8.460   3.099  0.1895  0.2110 -0.1998
17840W        W33649  14.093  14.642  13.357  0.1010  0.0721 -0.4658
17841W        W33650   9.269  16.056  15.059 -0.0501  0.3502 -0.0706
17842W        W33651   1.052  17.978  14.180 -0.0512 -0.4225  0.2682
17843W        W33652   6.584   2.030   2.632 -0.1283  0.1159  0.3479
17844W        W33653   7.278  14.487   1.758 -0.0295 -0.0534  0.4035
17845W        W33654   7.356  17.783  15.344  0.0091  0.1210  0.0088
17846W        W33655  11.492  16.287   4.073  0.2536  0.1705  0.0970
17847W        W33656   3.492  12.084  11.265 -0.1064 -0.2938 -0.0708
17848W        W33657   0.257   5.900  14.679  0.0869  0.2770 -0.0869
17849W        W33658  15.091   7.123   0.836  0.1199 -0.0162 -0.1973
17850W        W33659  15.931  15.172   0.411  0.2097 -0.2103 -0.0134
17851W        W33660   9.229   9.625   0.480  0.2557  0.2515 -0.1190
17852W        W33661   0.881  11.193   1.635  0.1467 -0.1615  0.0513
17853W        W33662   1.046   1.963   3.621  0.0857 -0.0412 -0.2938
17854W        W33663   1.077   1.416   1.961 -0.0476 -0.1039  0.2368
17855W        W33664   6.665   9.177   1.333  0.3457 -0.0907 -0.0054
17856W        W33665   9.715   6.194  14.779 -0.1873  0.0050 -0.1210
17857W        W33666   9.359  11.396  11.385 -0.0539 -0.4688  0.0436
17858W        W33667   2.373  11.149  15.946 -0.3763 -0.0517  0.0961
17859W        W33668   2.463  13.801   3.478  0.2951  0.1553  0.2144
17860W        W33669  16.159   5.408  13.521  0.2243  0.1604 -0.2542
17861W        W33670  10.660  14.264   3.449 -0.2152  0.2210 -0.1742
17862W        W33671  12.557   2.252   3.217 -0.2313 -0.0129 -0.2263
17863W        W33672  13.845  10.604  13.784 -0.1360  0.1534  0.4654
17864W        W33673   8.610   2.038   0.757  0.1528  0.1016 -0.0624
17865W        W33674   4.842  17.721  15.566  0.2091 -0.1563  0.4424
17866W        W33675   5.550  17.655   4.928  0.1766 -0.1743  0.0681
17867W        W33676  17.838  18.267  12.350 -0.1423  0.0073 -0.0447
17868W        W33677   8.789   9.682  13.451 -0.3216  0.3101  0.1589
17869W        W33678   3.327   4.954   4.095 -0.2720  0.1934 -0.0440
17870W        W33679  12.001  11.683  13.183 -0.3512  0.2023 -0.0016
17871W        W33680   7.634  16.341  12.090 -0.1787  0.0932  0.4386
17872W        W33681   3.979  16.659   1.022 -0.1856 -0.0648  0.1714
17873W        W33682   3.161  18.091   1.554 -0.1001  0.1372 -0.4233
17874W        W33683   0.601   2.613   0.478 -0.0482  0.0378 -0.0240
17875W        W33684   5.762  12.007  13.215  0.0836 -0.1654  0.0046
17876W        W33685  16.939   2.862   2.016 -0.3124 -0.1796 -0.1389
17877W        W33686  11.498   1.161  15.870 -0.1872 -0.0082 -0.0550
17878W        W33687  15.080   0.040   0.710  0.0493  0.0061 -0.2091
17879W        W33688  18.156  10.049  10.674 -0.0106 -0.3524  0.0371
17880W        W33689   4.653   8.617  13.383 -0.5403 -0.1602 -0.0710
17881W        W33690   9.694  14.340  15.841  0.0479 -0.0523  0.4305
17882W        W33691  14.353   0.915   3.983  0.0050  0.1837  0.0716
17883W        W33692   5.735   7.039   3.964 -0.1637 -0.0619 -0.4028
17884W        W33693  11.903  14.334   1.437  0.0234  0.1110  0.1389
17885W        W33694  17.184  15.495  12.955 -0.0245  0.1751 -0.0002
17886W        W33695   7.433   0.600   2.290 -0.1250  0.0829  0.0483
17887W        W33696  18.257  10.325   1.410 -0.5575 -0.1712 -0.0302
17888W        W33697   2.447   3.052  12.514 -0.2684 -0.1894 -0.2677
17889W        W33698   7.815   1.378   3.935 -0.2148 -0.1296 -0.2209
17890W        W33699   0.992   0.411   4.269 -0.1772 -0.3415 -0.0753
17891W        W33700   8.847   8.381   1.960  0.0899 -0.2553 -0.4542
17892W        W33701   9.110   7.332   1.012 -0.3181 -0.3110 -0.4741
17893W        W33702   4.071   2.144   3.896 -0.4296 -0.1947  0.0103
17894W        W33703   2.270   4.618  12.667  0.2381  0.1824  0.0243
17895W        W33704  16.468  17.380   2.911 -0.1100 -0.1566 -0.0480
17896W        W33705   3.946   0.249  13.214 -0.2329 -0.6689 -0.0237
17897W        W33706   3.068  14.590   0.203  0.0173  0.2603 -0.2453
17898W        W33707   2.718  13.748   0.052 -0.1194 -0.1279 -0.1774
17899W        W33708   4.785   3.069  10.484  0.0477 -0.3181 -0.1390
17900W        W33709  11.989  15.140  13.155  0.3308  0.0383 -0.1166
17901W        W33710  12.672  11.192   6.371 -0.0260 -0.0110  0.0515
17902W        W33711   6.871   6.557  11.224  0.3569  0.1413 -0.1352
17903W        W33712   0.723   7.130  15.116 -0.2152  0.1131  0.0596
17904W        W33713   3.207   5.713   1.768 -0.0482 -0.5282 -0.2096
17905W        W33714  15.775   4.978  11.778  0.2213 -0.0215 -0.0160
17906W        W33715  18.007   8.417   2.678 -0.0468 -0.0924  0.1737
17907W        W33716   2.967   8.343   4.311  0.3324  0.3002 -0.2212
17908W        W33717   8.190  12.692  12.688 -0.1020 -0.1526 -0.0194
17909W        W33718   8.939   0.285  16.001 -0.1566 -0.0728  0.3403
17910W        W33719   9.816   9.258  12.515  0.0901 -0.2351 -0.2300
17911W        W33720   8.348  10.147   5.388  0.1987 -0.1188  0.1778
17912W        W33721  14.783   4.389   3.594 -0.1309 -0.0720 -0.1013
17913W        W33722  12.298   0.771  15.600  0.0120 -0.0729 -0.2282
17914W        W33723   4.598   7.945   0.845 -0.0471 -0.1343  0.0391
17915W        W33724  11.576   3.194  13.812 -0.4826  0.1841  0.0511
17916W        W33725   5.390  15.586   2.434 -0.1302  0.0121 -0.2963
17917W        W33726  13.976   8.775   4.591 -0.1915 -0.0696  0.0236
17918W        W33727   0.452  13.462   4.004  0.0200  0.0991 -0.0644
17919W        W33728   5.120  11.770   1.561 -0.1220 -0.0704 -0.0043
17920W        W33729  11.578   1.002   4.578 -0.0784 -0.1110  0.0492
17921W        W33730  12.978   7.252   4.147 -0.0704 -0.2711  0.0414
17922W        W33731  16.921  10.728   3.996  0.2921 -0.1455 -0.0988
17923W        W33732   1.133   4.120   5.079 -0.0131 -0.0640 -0.0538
17924W        W33733  17.428  14.806   5.010  0.0079 -0.1071  0.1338
17925W        W33734  15.873  14.353   0.234 -0.2515 -0.0296  0.1981
17926W        W33735   1.932   4.533   6.289 -0.0296 -0.1287 -0.1238
17927W        W33736   9.843  10.186   5.134 -0.2743  0.1352 -0.4419
17928W        W33737  13.289   3.488   2.738  0.0377 -0.0523  0.0050
17929W        W33738   7.246   0.800   1.409 -0.3477 -0.3392  0.2038
17930W        W33739   0.226   7.971   3.484 -0.0215 -0.0372 -0.0595
17931W        W33740   2.983  10.317   1.973  0.2221  0.0275  0.0512
17932W        W33741  15.134  12.170  12.219 -0.0658  0.0193 -0.1219
17933W        W33742   6.971   2.255  14.893  0.0660 -0.0897  0.1903
17934W        W33743  14.348  12.797  13.457  0.0835 -0.0486  0.0697
17935W        W33744   9.742   0.025   2.845  0.0687 -0.2319  0.1425
17936W        W33745   2.585   3.452   1.497 -0.3076  0.1005 -0.1455
17937W        W33746  17.988   1.001   2.428 -0.0527  0.0043  0.1505
17938W        W33747  11.613   1.886   3.424  0.1126  0.1602 -0.2178
17939W        W33748  17.635  11.220  11.168  0.1009 -0.0615  0.0990
17940W        W33749   5.204   9.992   4.417  0.0367  0.3308 -0.3467
17941W        W33750   7.487  13.937   4.008 -0.2012  0.1327  0.1421
17942W        W33751   5.646   4.574   4.805 -0.3088 -0.0322  0.0223
17943W        W33752  15.059   3.682  14.839 -0.1168 -0.0858  0.1740
17944W        W33753   9.994   7.569   3.107  0.0808 -0.1746 -0.0148
17945W        W33754   8.039   1.429   1.421 -0.1042 -0.0056  0.3104
17946W        W33755   5.973   2.047  11.681 -0.0831  0.0146 -0.1777
17947W        W33756  12.799  16.661   0.405  0.0471 -0.0844 -0.0231
17948W        W33757   2.702   2.830   3.090  0.0631 -0.0722 -0.0804
17949W        W33758  14.018  15.079   1.401 -0.0336  0.1694 -0.1687
17950W        W33759  14.082  13.136   5.092  0.0755  0.0936 -0.3118
17951W        W33760   9.896   3.488   0.978  0.0608 -0.1507 -0.0689
17952W        W33761  11.636  14.749  11.289  0.3036 -0.0642 -0.1432
17953W        W33762   8.242  18.213  15.412  0.0935  0.1831  0.2275
17954W        W33763  13.341  18.174   3.287 -0.1738 -0.1023 -0.1472
17955W        W33764   4.967  14.045  10.189 -0.2929  0.0358  0.0268
17956W        W33765   1.424  14.558   4.382  0.0428 -0.1203 -0.3713
17957W        W33766  15.988  16.399  14.135  0.0234 -0.0420 -0.0294
17958W        W33767  10.553   9.501   4.157  0.0776  0.1609  0.2428
17959W        W33768   7.306   0.542   5.048  0.2203  0.2002 -0.2794
17960W        W33769  10.463   3.912  13.562  0.2093 -0.1583 -0.2374
17961W        W33770  12.899   5.285   2.632 -0.0295  0.3116 -0.0476
17962W        W33771   5.822   3.492  15.308  0.1803 -0.0170  0.2024
17963W        W33772   9.901  15.980   0.865 -0.2080 -0.2076 -0.3395
17964W        W33773   9.280  12.370  11.684  0.1846  0.2680  0.1335
17965W        W33774  17.357   3.160  11.076 -0.1641  0.0622  0.0625
17966W        W33775   5.680   4.302   1.659 -0.0562 -0.1138  0.1131
17967W        W33776  14.472   3.275   0.652  0.0000 -0.0611  0.0218
17968W        W33777   2.160  12.284  15.262 -0.2261  0.0921 -0.3913
17969W        W33778   5.473   7.283   4.361  0.1260 -0.3952 -0.0554
17970W        W33779   3.149  13.109  14.460  0.2905  0.1012  0.2938
17971W        W33780   2.840   3.568   0.400  0.2712  0.0718 -0.2298
17972W        W33781   3.345   6.749  14.150 -0.0337  0.2120 -0.2572
17973W        W33782   6.846   5.480  12.658  0.0366  0.1735  0.0917
17974W        W33783   8.690  17.643   3.710  0.0433  0.2178  0.1069
17975W        W33784   3.489  10.414   5.949 -0.1564 -0.0859 -0.2387
17976W        W33785   2.336   1.957  14.067  0.0944  0.3092  0.0326
17977W        W33786   7.618  10.772   1.731 -0.2087 -0.2507 -0.4196
17978W        W33787   2.392  10.653   4.997 -0.1910 -0.1494  0.0532
17979W        W33788  15.553   6.798  14.098  0.1643 -0.0070 -0.1063
17980W        W33789   3.831   0.731   0.252  0.0527 -0.2609 -0.1601
17981W        W33790  14.683   7.388  15.389  0.4425 -0.1595  0.1544
17982W        W33791   3.783   4.977   1.169  0.0725  0.1884  0.0869
17983W        W33792   2.141   5.234  14.824 -0.1715 -0.0439 -0.0573
17984W        W33793   6.804   8.854   0.509  0.1418 -0.0489 -0.1964
17985W        W33794  13.854  14.684   0.250 -0.0379  0.2017 -0.0091
17986W        W33795   9.128   7.885   3.153  0.0215  0.0975 -0.2812
17987W        W33796  10.512   9.134   5.372  0.0779  0.1762  0.1003
17988W        W33797   2.499   2.188  13.086  0.0125  0.0557  0.1845
17989W        W33798   5.597   9.771   0.078  0.1852  0.2454  0.0521
17990W        W33799   9.848   9.971   0.429  0.0026  0.0342 -0.3492
17991W        W33800   2.406   7.948   3.567 -0.3326  0.2673  0.1697
17992W        W33801  10.737  14.622   0.031  0.1493  0.0483  0.1221
17993W        W33802  13.485   3.033  10.800  0.0259  0.1841  0.1000
17994W        W33803  10.231   4.937  14.378  0.1560 -0.1524  0.0262
17995W        W33804   2.716  15.285  15.018 -0.1562 -0.1506 -0.1015
17996W        W33805   0.540  13.101   0.396 -0.2290 -0.0976  0.2424
17997W        W33806  12.745  16.522   2.236  0.1315  0.2462  0.0322
17998W        W33807   4.801   8.218   9.590  0.0730 -0.0806 -0.1625
17999W        W33808   0.672  13.452   0.735 -0.1584  0.3390 -0.1800
18000W        W33809   4.907   5.219   1.858 -0.0545  0.0297  0.0805
18001W        W33810   2.304   3.193   1.977 -0.0958 -0.3728 -0.1719
18002W        W33811   9.544  17.955  13.373  0.2118 -0.2331  0.2436
18003W        W33812  10.690   5.625  13.269  0.2560  0.0435 -0.0112
18004W        W33813   5.141  11.344   3.774  0.0623 -0.0237  0.1313
18005W        W33814   4.576  15.447   2.184 -0.1355  0.1079  0.1642
18006W        W33815   6.582   1.192   3.800  0.1857 -0.0890 -0.0852
18007W        W33816   1.772   7.404   0.654 -0.1495  0.0615  0.0907
18008W        W33817  12.318  11.538   4.951 -0.2404 -0.0337 -0.2534
18009W        W33818  10.027   6.020   2.358 -0.3458 -0.1248 -0.0357
18010W        W33819  17.516   7.246  12.673 -0.1634 -0.0680 -0.2187
18011W        W33820  15.786   5.656   1.896 -0.1863  0.2065  0.0933
18012W        W33821  10.543   3.017  14.604  0.1756  0.0615  0.0991
18013W        W33822  13.699  15.483   2.485  0.1409 -0.2111  0.1490
18014W        W33823   2.762  12.798   4.749 -0.0326  0.1845 -0.2347
18015W        W33824  17.038  11.200   3.910  0.0265 -0.0699  0.2511
18016W        W33825   1.585   8.196  15.162 -0.2104  0.0494 -0.2240
18017W        W33826   6.118  13.868  12.881 -0.0270  0.2603  0.2613
18018W        W33827   5.341  12.319   3.891  0.1001  0.0119 -0.0778
18019W        W33828  15.078   9.774   2.112 -0.0431 -0.0197  0.1851
18020W        W33829   7.681   4.399  11.437 -0.3214  0.3656 -0.0125
18021W        W33830   0.985  16.881   1.564  0.0920  0.0037  0.1873
18022W        W33831   4.897   5.631  12.462 -0.2353 -0.3414 -0.1203
18023W        W33832   9.367   5.981  15.108 -0.2378  0.1595  0.2359
18024W        W33833   9.854  11.626   3.888  0.1802  0.1879  0.1183
18025W        W33834   8.738   8.352   3.929  0.1910 -0.0549 -0.2464
18026W        W33835  16.740  14.158   0.964  0.2111  0.0693  0.4871
18027W        W33836   1.807   6.773   2.726  0.3294 -0.0750 -0.1503
18028W        W33837   2.925  14.230   5.541  0.0565 -0.3352 -0.0698
18029W        W33838  12.580  14.977  12.314 -0.1194  0.1016 -0.1518
18030W        W33839   1.022  11.322   4.988  0.0905 -0.0271  0.0977
18031W        W33840  12.756  17.425   2.050  0.2611 -0.0066 -0.1835
18032W        W33841  10.393  13.614   0.956  0.0701 -0.2350 -0.3803
18033W        W33842  12.032  16.671   2.987  0.1265  0.1842  0.1511
18034W        W33843   0.908   9.764  11.744  0.0931  0.0746  0.3442
18035W        W33844   5.792  13.521   0.806  0.0822 -0.2375  0.1869
18036W        W33845   7.539  16.957   2.499  0.2935  0.0132 -0.1519
18037W        W33846   3.690   3.473  14.535 -0.0820  0.1373  0.1591
18038W        W33847   4.704   2.172  12.188  0.0192  0.1984 -0.1175
18039W        W33848  12.839   7.640   4.374 -0.2738  0.3714  0.1092
18040W        W33849  16.477   6.384   5.012  0.0765 -0.3917  0.0371
18041W        W33850   1.923  11.870  12.139  0.2754  0.2006 -0.1138
18042W        W33851   8.019  16.728   0.630 -0.0184  0.2785  0.1892
18043W        W33852  15.740  10.656  11.300  0.0658 -0.3628  0.0385
18044W        W33853  11.090   6.272  11.301  0.0265 -0.1478  0.1201
18045W        W33854   3.356   8.066  10.081  0.0146 -0.0609  0.0676
18046W        W33855  10.627  11.077  11.491  0.0842 -0.1441  0.1635
18047W        W33856   6.168  13.332   3.477 -0.3490 -0.1033  0.0679
18048W        W33857   6.760  10.773  14.780  0.0263  0.0361  0.0613
18049W        W33858   8.036  11.385   3.892  0.0067 -0.0376 -0.0370
18050W        W33859   8.994   6.019  11.689  0.0077  0.2858  0.2318
18051W        W33860   9.955   4.324   0.475  0.5174 -0.2724  0.2028
18052W        W33861   6.289   6.474  10.490  0.2275 -0.2349 -0.4707
18053W        W33862   4.751  10.795   3.375  0.1836 -0.1755  0.0492
18054W        W33863  18.247   3.648   2.346 -0.1602  0.3656  0.1687
18055W        W33864   1.107  17.645   4.117 -0.0893 -0.0776 -0.0011
18056W        W33865   9.999  15.087  10.827 -0.0020  0.3021  0.0072
18057W        W33866  12.363  15.084   0.012 -0.3565  0.0739 -0.1169
18058W        W33867  15.404   3.010  12.721  0.1215  0.0918 -0.0350
18059W        W33868   1.189   7.202  10.948  0.0307  0.0420  0.0988
18060W        W33869   7.781   1.967   5.048  0.1378  0.1646 -0.3206
18061W        W33870   0.535   1.448   1.698 -0.2474  0.0403 -0.1011
18062W        W33871   1.109  12.900   4.220  0.0823 -0.0597  0.2941
18063W        W33872   8.392  11.426   9.957 -0.2102 -0.0857  0.1236
18064W        W33873  16.688  17.893  15.812  0.0401  0.0685 -0.1580
18065W        W33874   6.904   0.177  12.171 -0.2545 -0.0839 -0.0016
18066W        W33875   2.328   0.543   3.696  0.1802 -0.1460 -0.1029
18067W        W33876   0.418   2.048  12.775 -0.3580 -0.2136  0.1740
18068W        W33877   9.782   3.675  11.503  0.0568  0.1950 -0.0521
18069W        W33878   3.219   7.965   3.025  0.2300  0.0501  0.1433
18070W        W33879  11.894  16.928   5.518  0.2162 -0.1731 -0.1869
18071W        W33880   6.976   4.387  15.238 -0.0120  0.1315 -0.0259
18072W        W33881  18.267  16.412  13.134  0.1171  0.0027  0.2168
18073W        W33882   6.957  16.264   2.357  0.1270 -0.1216 -0.2317
18074W        W33883   7.893   0.974   3.063  0.3472  0.2857  0.0662
18075W        W33884   2.220   2.984  15.329 -0.0935 -0.0075  0.3391
18076W        W33885  11.965   9.647  13.219  0.0149 -0.0897 -0.0204
18077W        W33886  10.168   8.543  10.748 -0.1036 -0.1068  0.2653
18078W        W33887   8.592  12.174   5.161 -0.0381 -0.3195  0.0817
18079W        W33888  15.495   1.193   0.380 -0.2853  0.0327  0.0878
18080W        W33889  11.162  13.636  15.232  0.0251 -0.1423 -0.0281
18081W        W33890  10.587   8.149   5.022 -0.4279 -0.0029 -0.2317
18082W        W33891  16.773  10.771   1.355 -0.1270 -0.0171  0.0453
18083W        W33892   5.152   1.975  14.949 -0.1820 -0.0596 -0.0228
18084W        W33893  15.981  16.471   4.940  0.1311  0.1618 -0.1696
18085W        W33894  11.634   6.075   1.666  0.0362 -0.0123 -0.1184
18086W        W33895  13.272   1.348  10.985 -0.1285 -0.0936 -0.0881
18087W        W33896   9.040  10.870  15.492 -0.0866 -0.2686  0.1532
18088W        W33897   4.550   2.410   0.461  0.1695 -0.0640 -0.1463
18089W        W33898   9.804   8.248  14.980 -0.1119  0.1545 -0.1845
18090W        W33899   6.367  11.379   2.679 -0.1000  0.0820  0.1961
18091W        W33900   6.291  13.203   3.944  0.0159 -0.1631 -0.2248
18092W        W33901  12.734  13.767   3.031  0.1384 -0.0591 -0.0507
18093W        W33902   6.300  12.613   4.817 -0.2270  0.2491 -0.2584
18094W        W33903   9.657  15.257  14.256  0.3774 -0.3104 -0.1160
18095W        W33904  10.614  16.427   3.149 -0.0785  0.1969  0.0435
18096W        W33905  16.330  13.162  14.691 -0.0292 -0.0052  0.0833
18097W        W33906  16.474   3.016  12.198  0.0315  0.1161 -0.1552
18098W        W33907   8.477  13.401   1.311  0.1877  0.1019 -0.0298
18099W        W33908   2.596  13.281   1.811 -0.1298  0.3309  0.2256
18100W        W33909  11.955  17.334  13.876 -0.3612  0.0741  0.0538
18101W        W33910  10.574   6.804   4.165  0.1438 -0.2273 -0.1063
18102W        W33911   2.598   3.953   3.780 -0.0218  0.1762  0.0377
18103W        W33912  13.257   5.357   0.591  0.1383  0.0191 -0.3275
18104W        W33913   1.747  16.312  10.660 -0.0838  0.3290 -0.0033
18105W        W33914   9.619  13.481   2.609 -0.0087  0.3732 -0.1166
18106W        W33915   1.842   7.228   1.325 -0.1490 -0.1256 -0.1445
18107W        W33916  15.998   0.885   2.488  0.1642  0.3563 -0.1841
18108W        W33917  17.126   1.496  13.310  0.2639  0.0937 -0.1774
18109W        W33918  14.094   7.610  14.168  0.3060  0.2641 -0.0392
18110W        W33919  18.093  10.309  11.157 -0.0449 -0.1700  0.0937
18111W        W33920  17.563   5.219   1.279  0.1509 -0.1487 -0.0176
18112W        W33921  17.551   0.658  13.795 -0.1415 -0.0093 -0.3039
18113W        W33922  15.129  14.636  15.930  0.4829 -0.0251  0.0299
18114W        W33923  10.724   1.660  15.940 -0.1492 -0.3101 -0.1255
18115W        W33924   5.680  15.397   4.907  0.2114  0.0425  0.2682
18116W        W33925   4.929  12.070   2.466  0.0661  0.2305  0.1217
18117W        W33926   5.737   4.232  12.446  0.0212  0.2724 -0.2198
18118W        W33927   8.173   3.966  15.244  0.1824  0.2961  0.2292
18119W        W33928   1.382  13.773   5.813  0.1181  0.0028 -0.0762
18120W        W33929  11.657   1.577  15.577 -0.1803  0.1689  0.0659
18121W        W33930   4.939  14.808  10.200 -0.2992 -0.3214 -0.0671
18122W        W33931   8.250   4.014   2.890 -0.0508  0.5540 -0.1440
18123W        W33932  12.764   4.235  11.866 -0.1663  0.1347  0.3180
18124W        W33933  11.971   0.560   3.502 -0.3165  0.1883  0.1695
18125W        W33934  13.989   5.884   0.528 -0.0852  0.3215  0.0332
18126W        W33935   5.456   7.872   5.936  0.0924  0.2599 -0.0395
18127W        W33936   0.766   1.719   5.198  0.3668 -0.5510 -0.0898
18128W        W33937  16.629  14.601   0.633  0.1004 -0.0845 -0.1078
18129W        W33938   9.071   7.435   0.003  0.2219  0.0178  0.1703
18130W        W33939  12.132   8.307   2.266  0.1760  0.2501  0.0373
18131W        W33940   0.088  15.806   4.578  0.1469 -0.0698  0.0995
18132W        W33941  12.315  18.223  12.402 -0.0732 -0.0686  0.0800
18133W        W33942   2.302   2.103   4.746  0.0407  0.1896 -0.0706
18134W        W33943  13.195   8.468  11.873 -0.3404  0.1352 -0.4220
18135W        W33944   5.171   2.921  10.152 -0.3701 -0.1530 -0.0322
18136W        W33945   8.205  16.143  14.328 -0.2511  0.2318  0.0092
18137W        W33946  10.659  13.610  13.923  0.0820  0.1122 -0.0143
18138W        W33947  16.568   0.989   3.392  0.2048 -0.1219  0.0390
18139W        W33948   5.807  10.222   0.342 -0.0649 -0.0316 -0.0130
18140W        W33949   6.933  18.144   2.466  0.3688 -0.1791 -0.1067
18141W        W33950  14.186   8.939  15.446 -0.0977 -0.1771  0.2862
18142W        W33951  10.068   1.970  15.353  0.0057  0.0284 -0.1471
18143W        W33952  14.360  12.819  15.518  0.0743 -0.0927 -0.1469
18144W        W33953  15.434   1.039   4.445 -0.1223 -0.0069  0.1224
18145W        W33954  16.075   2.644  12.509 -0.0115  0.0970  0.3870
18146W        W33955   5.182   6.306   0.615  0.0438  0.0149 -0.1707
18147W        W33956   1.158  14.589   0.386  0.2366  0.0713  0.1178
18148W        W33957   6.300  17.440   3.047  0.0156  0.0336  0.0164
18149W        W33958  10.208  14.227   5.201 -0.2420  0.2309 -0.1113
18150W        W33959   8.260  15.937   3.212  0.0146 -0.2243 -0.0521
18151W        W33960   2.776   1.404   0.236  0.1189  0.0997  0.0602
18152W        W33961   8.701  12.506  12.898  0.0684  0.0257  0.1262
18153W        W33962  14.435   5.844  13.014  0.0620  0.2150 -0.0625
18154W        W33963   2.426  12.384   4.691  0.0861 -0.3060 -0.1199
18155W        W33964   2.662  12.802  11.784  0.2372  0.0951 -0.1071
18156W        W33965   0.429   2.816   1.414  0.1841  0.1566 -0.0339
18157W        W33966  12.552  10.507  12.843  0.2037  0.0303  0.0721
18158W        W33967  18.040   8.134  11.201  0.1546 -0.0942  0.1539
18159W        W33968  11.741   3.250  15.990  0.0940 -0.0186 -0.1460
18160W        W33969   0.374  10.461   4.668  0.0906 -0.0141  0.0124
18161W        W33970   6.968  10.020   4.319 -0.0321  0.2268 -0.0903
18162W        W33971   5.941  16.369   5.520 -0.0032  0.0036 -0.0359
18163W        W33972  17.479  17.578   0.640 -0.2378 -0.0262 -0.1054
18164W        W33973   9.391  12.785  11.912  0.0093 -0.2059  0.0143
18165W        W33974   6.951   8.077   0.022  0.1353  0.1252 -0.2608
18166W        W33975  14.639   5.739  12.577  0.0521  0.0079  0.2935
18167W        W33976  15.589  15.545  13.353  0.0575 -0.0385  0.1209
18168W        W33977   3.163  10.490   1.527  0.1480  0.1414 -0.0045
18169W        W33978   9.551  17.982   4.612  0.3029 -0.0895  0.0586
18170W        W33979   1.240  15.558   3.736 -0.1115  0.1151 -0.0493
18171W        W33980   9.421   3.102  13.113 -0.0034  0.2642  0.2174
18172W        W33981  11.842  12.324  12.495 -0.2957  0.1214 -0.1642
18173W        W33982  15.084   9.616  15.959 -0.0315 -0.0302 -0.2773
18174W        W33983   3.685  17.880  12.545 -0.0210 -0.1375 -0.0064
18175W        W33984  16.147   1.532   0.472  0.0161  0.0279  0.0534
18176W        W33985   5.204  10.742  15.318  0.0254 -0.1629 -0.1496
18177W        W33986   8.041   6.837  11.969  0.2586 -0.1887 -0.0764
18178W        W33987   0.089   0.645  11.764  0.0693  0.2378 -0.0918
18179W        W33988  13.775  17.978   5.680  0.0314  0.2712 -0.0958
18180W        W33989  17.024   0.255  12.655  0.1056 -0.1699 -0.0736
18181W        W33990  12.644   8.222  11.900 -0.2726 -0.0557  0.0694
18182W        W33991   8.565  11.674  12.366  0.0800  0.1759  0.0600
18183W        W33992   9.280  11.308  13.582  0.0789 -0.1237  0.1012
18184W        W33993  17.038   2.869   2.564  0.1179 -0.0132  0.0759
18185W        W33994  13.042   5.167  10.897 -0.1776 -0.1287  0.1295
18186W        W33995   5.944   8.764   2.915 -0.1122  0.3426  0.0267
18187W        W33996  14.822   6.288  11.493  0.2239  0.0362  0.3328
18188W        W33997   0.999  16.240  13.227  0.0405 -0.2249 -0.1507
18189W        W33998   6.983   4.991   4.474 -0.0989  0.1202  0.3212
18190W        W33999   9.600   3.029   0.997 -0.1471  0.1335  0.3754
18191W        W34000   3.089   7.188   5.061 -0.1317 -0.0863  0.1229
18192W        W34001   9.977  18.158   4.441 -0.0193 -0.1471 -0.0338
18193W        W34002  16.966  15.227  11.544  0.1038 -0.2361  0.2446
18194W        W34003   2.427   7.494  13.589  0.1685  0.1651  0.2839
18195W        W34004   6.561  17.665  11.615 -0.1317 -0.1444  0.2139
18196W        W34005   5.275  16.405   1.518 -0.0909 -0.1900 -0.2080
18197W        W34006  11.893   0.747   2.948  0.0159 -0.1299 -0.0321
18198W        W34007   4.870   9.445  11.146 -0.0413  0.2887  0.0442
18199W        W34008   1.120  15.229  11.068  0.4084  0.1355 -0.1668
18200W        W34009  11.983  10.273  12.091 -0.1192  0.1525  0.1711
18201W        W34010   7.404  12.448  11.818 -0.0300  0.0988  0.3656
18202W        W34011   3.769   0.997   3.488  0.3195  0.2127  0.1355
18203W        W34012   7.611   1.173   1.203  0.1321  0.0497  0.3077
18204W        W34013   9.119  16.404  11.466  0.2246  0.0308  0.3326
18205W        W34014   1.983   9.308  11.297  0.1809 -0.1698 -0.3472
18206W        W34015  16.839  12.449  12.504 -0.5407  0.0299 -0.0720
18207W        W34016   8.830  15.794  15.841  0.3615 -0.2540  0.1390
18208W        W34017   5.336  12.554  15.625  0.1499 -0.1384  0.3153
18209W        W34018   4.331  11.223   1.394  0.5622  0.1587  0.0142
18210W        W34019  10.535  16.423  14.356 -0.0741 -0.0410 -0.2152
18211W        W34020  11.074   8.330  13.870  0.1434 -0.0244 -0.1766
18212W        W34021  17.620   0.898  15.902 -0.0072  0.2254 -0.0124
18213W        W34022  12.332   4.879   3.366 -0.0115  0.0794  0.1407
18214W        W34023   0.608  12.958  12.743  0.1214  0.2470  0.2349
18215W        W34024  15.172  15.738   2.084 -0.2040 -0.2443  0.1172
18216W        W34025   8.127  17.185   0.352  0.0406  0.1158 -0.3170
18217W        W34026   3.979  11.053  12.419  0.0662  0.1555  0.4016
18218W        W34027  10.059   5.216   1.754 -0.0530  0.0787 -0.0783
18219W        W34028  17.212   9.103  15.216  0.3342 -0.1729  0.1516
18220W        W34029  10.056   6.712  12.459 -0.1338  0.0205 -0.1896
18221W        W34030   5.056   3.018  13.761 -0.0026  0.2094 -0.0188
18222W        W34031  17.846   6.780   3.560 -0.0938  0.1559 -0.0534
18223W        W34032  10.412   1.613   0.266 -0.2572  0.1295  0.0174
18224W        W34033   9.658   2.620  10.911 -0.0491  0.2959  0.0419
18225W        W34034   7.236   7.372   2.413  0.2470 -0.1596 -0.0924
18226W        W34035  11.607  13.972   4.278  0.0534  0.1331 -0.2288
18227W        W34036   6.819   7.052   0.658  0.1304 -0.1498  0.1651
18228W        W34037  13.664   9.957   4.442 -0.0460  0.0863 -0.1737
18229W        W34038   2.689   0.732   5.329 -0.3557  0.0692 -0.1931
18230W        W34039  16.505  17.883   0.258 -0.0316 -0.4117 -0.0253
18231W        W34040  16.879  12.961  12.670  0.0926  0.0891  0.1084
18232W        W34041  15.903  10.564   4.788  0.3075 -0.1083 -0.2783
18233W        W34042   5.971   9.347  11.891  0.0604 -0.1624 -0.3571
18234W        W34043  15.191   8.578  13.793  0.1132 -0.1454  0.3055
18235W        W34044   7.485   8.730  13.638 -0.0207 -0.2484  0.0094
18236W        W34045   8.100  14.856  12.332 -0.1611 -0.2066  0.1505
18237W        W34046  15.487   2.779  13.183  0.0257  0.1224 -0.0383
18238W        W34047  12.498   8.355   2.700 -0.0479 -0.1715  0.3019
18239W        W34048   3.255   9.808   0.863 -0.1983 -0.0627  0.0910
18240W        W34049   9.846  14.554  12.665 -0.2844 -0.0577 -0.0298
18241W        W34050   5.607  14.112   1.458  0.1224  0.0279 -0.0609
18242W        W34051   1.427  16.300  15.847 -0.0925  0.2492 -0.0202
18243W        W34052  10.763   6.805   1.190 -0.0024 -0.0255 -0.4299
18244W        W34053  16.381  11.109   9.981  0.3728  0.1753 -0.0251
18245W        W34054  15.218   4.147   4.574 -0.0799  0.2230 -0.0065
18246W        W34055  13.838   4.228   0.804  0.0948  0.1623 -0.1222
18247W        W34056   7.188   8.180  13.520  0.3175  0.0099 -0.1213
18248W        W34057  16.068   8.884   4.826  0.1198  0.4453 -0.0113
18249W        W34058  16.959  16.247  11.841  0.0025 -0.0129  0.0031
18250W        W34059  13.612  15.097   1.094  0.1177 -0.0582  0.0669
18251W        W34060   6.378   0.128  12.776  0.1857 -0.0832  0.2737
18252W        W34061  14.884   0.577   1.644  0.1529 -0.2462  0.3950
18253W        W34062   1.057   1.502   3.359  0.1985 -0.0189  0.1515
18254W        W34063  11.310  15.156   3.007  0.0224 -0.1508 -0.1365
18255W        W34064  14.999  17.147  11.556 -0.0232 -0.2283 -0.0705
18256W        W34065   2.019   4.249   2.021 -0.1651  0.0954 -0.1209
18257W        W34066   7.879  17.953   1.185  0.0428 -0.0283  0.0021
18258W        W34067  10.520  12.317  13.166  0.0358  0.1056  0.1334
18259W        W34068  10.019  17.704   5.318 -0.2136  0.2237 -0.0827
18260W        W34069  17.878   6.210   3.337  0.0978 -0.0386 -0.0342
18261W        W34070   7.634  13.715   4.415  0.2041 -0.1265 -0.1743
18262W        W34071  15.332  15.737   0.737 -0.2036  0.0579 -0.0884
18263W        W34072   3.156   7.934   3.519 -0.1190 -0.3846 -0.1083
18264W        W34073   6.509  16.048  15.139  0.0156 -0.0324 -0.1411
18265W        W34074  14.972   8.008   5.760  0.0145 -0.0689  0.1649
18266W        W34075   0.622   9.070  11.441  0.0493 -0.3854 -0.3944
18267W        W34076  10.177  12.455   1.361 -0.1113  0.1809  0.1656
18268W        W34077   5.288  13.474  12.402 -0.0462  0.0818  0.1689
18269W        W34078   9.671  14.908   1.682 -0.0721  0.0281 -0.2791
18270W        W34079  15.647   8.680   0.386 -0.0854 -0.0857  0.0290
18271W        W34080   7.880  11.620  14.185  0.2587  0.0607 -0.2242
18272W        W34081   5.427   1.975  11.815  0.2113  0.1686  0.1087
18273W        W34082   2.306   3.801   1.153  0.0288  0.1307 -0.1432
18274W        W34083  10.980   0.278  12.070  0.0456  0.1192  0.0520
18275W        W34084  15.468  11.053  14.377  0.0488  0.0500 -0.2099
18276W        W34085   0.379   7.644   3.119  0.1760 -0.0016  0.0460
18277W        W34086   8.949  15.990  10.991  0.1077  0.1188  0.0096
18278W        W34087   1.256  10.445  14.633 -0.0201  0.1865 -0.1902
18279W        W34088   0.870   6.903   4.635 -0.0668  0.4191  0.1378
18280W        W34089  17.537   1.061  15.423  0.2410  0.1619 -0.3706
18281W        W34090  12.116   3.319  12.095  0.1218  0.1400  0.2587
18282W        W34091   3.355   7.281  15.880 -0.1382  0.2069 -0.4013
18283W        W34092   9.957  17.660   1.701 -0.0260  0.0501  0.0026
18284W        W34093   2.791   3.935   3.244  0.1422 -0.4408 -0.2115
18285W        W34094   6.085   6.006  15.733 -0.1609  0.1491  0.2591
18286W        W34095  12.655  11.683   4.101  0.0629 -0.0482 -0.1370
18287W        W34096   3.402  16.761   1.168 -0.1308  0.2205  0.1009
18288W        W34097   0.233  16.563  13.570 -0.1703 -0.3402 -0.3836
18289W        W34098  18.053   8.754  10.953 -0.0824 -0.0591 -0.4095
18290W        W34099  17.221   1.159  14.032 -0.1247 -0.1011 -0.0521
18291W        W34100  11.745   0.168   3.719  0.1308 -0.2135 -0.0606
18292W        W34101  12.726   4.921  15.019 -0.1304 -0.2086 -0.1232
18293W        W34102   4.410   7.450   4.729 -0.0161 -0.2148  0.2499
18294W        W34103   7.614   9.762  15.377 -0.1371 -0.1414 -0.0072
18295W        W34104  13.549  15.777  13.507  0.0571 -0.0605  0.0990
18296W        W34105   4.712   2.117   0.919 -0.2789 -0.1603 -0.1151
18297W        W34106   6.885   5.334   0.241  0.2158  0.1409  0.1199
18298W        W34107   5.888   4.358   4.030 -0.0071  0.0908  0.1322
18299W        W34108  15.459  16.893  13.737 -0.3216 -0.1850  0.0407
18300W        W34109  14.317  13.691   4.200 -0.3042  0.1668  0.2920
18301W        W34110   4.554   9.352   2.938 -0.1372 -0.0848  0.1734
18302W        W34111   4.112  13.161  14.192 -0.0060  0.2417  0.1814
18303W        W34112   3.924   5.383  15.087  0.2326  0.0508  0.1826
18304W        W34113   6.644   4.819   2.221  0.3664 -0.4452  0.2163
18305W        W34114  16.639  15.570  11.403 -0.1437  0.0060  0.2823
18306W        W34115   6.438  18.233   1.899  0.1352 -0.0387 -0.0157
18307W        W34116  15.315   8.101  13.823  0.1050 -0.0794  0.1137
18308W        W34117   2.385   1.965   3.076 -0.1535  0.2448  0.1160
18309W        W34118   8.540   8.474   3.386 -0.4221  0.0456 -0.2171
18310W        W34119   0.882  15.287   4.580 -0.1474  0.3425  0.0185
18311W        W34120   1.348  12.526   1.888 -0.1110  0.1395  0.2091
18312W        W34121   2.638   4.586  10.852 -0.0427  0.2700  0.1925
18313W        W34122   0.193   3.351   0.752  0.0800 -0.0103 -0.2441
18314W        W34123   9.209  15.314   0.432 -0.3043  0.0923  0.0872
18315W        W34124  13.288   8.875   2.576  0.0870  0.1622 -0.1692
18316W        W34125   0.994  11.615   3.063 -0.0671  0.1969  0.0558
18317W        W34126   0.262  17.897  13.947  0.0612  0.2670 -0.1784
18318W        W34127  13.315  14.171  12.798 -0.0061 -0.0821  0.0694
18319W        W34128   3.611  13.852  12.503  0.0002 -0.0104  0.2122
18320W        W34129  10.162  15.453   0.873 -0.0546 -0.2311  0.0130
18321W        W34130  14.613   5.750   3.176 -0.0776 -0.0379 -0.4338
18322W        W34131  14.115   0.968   0.126  0.4691 -0.2724 -0.0394
18323W        W34132  11.636  10.819   1.870  0.0450  0.0180  0.1607
18324W        W34133   4.326  16.767  11.677 -0.0381 -0.2340  0.1583
18325W        W34134   8.971   8.176  14.519  0.1557 -0.2007  0.1432
18326W        W34135  15.317   0.804   1.497 -0.1548  0.0329  0.0120
18327W        W34136   2.022   1.280   5.157 -0.1694  0.2808  0.0865
18328W        W34137  16.587   8.412   1.461  0.3326 -0.0919 -0.0263
18329W        W34138  12.200   9.131   1.789  0.0029  0.1982  0.3552
18330W        W34139   2.307  10.120  12.407 -0.1571  0.1485  0.0003
18331W        W34140   4.380   1.902   2.129  0.0473 -0.0753 -0.0849
18332W        W34141   4.208   7.486   4.205  0.1542  0.0369  0.0415
18333W        W34142  15.272  12.855  15.346  0.4750 -0.0951  0.3384
18334W        W34143   7.190  16.228  15.309 -0.1661 -0.2339  0.2015
18335W        W34144  15.133  14.616   5.886  0.0654 -0.0752  0.0581
18336W        W34145  12.772  13.800  15.722 -0.1163  0.1010  0.0580
18337W        W34146  11.387  17.431   6.205 -0.0540  0.1508 -0.1493
18338W        W34147   3.051  16.625  11.224  0.1399  0.0091 -0.0381
18339W        W34148   2.114   5.010  13.366  0.1796 -0.0972  0.2528
18340W        W34149   1.197  12.353   4.172 -0.0002  0.1518 -0.0920
18341W        W34150   4.692   8.879   5.536 -0.0372 -0.1239 -0.0797
18342W        W34151  11.822   6.996  12.450 -0.0154 -0.0494 -0.1346
18343W        W34152  10.401  17.497  11.579  0.0245  0.0588 -0.1388
18344W        W34153   5.320   3.141  11.830 -0.4244 -0.0700  0.0068
18345W        W34154   4.762   3.027   5.951 -0.1974  0.0777 -0.2731
18346W        W34155  13.328  17.934  10.698 -0.1738  0.1105  0.0681
18347W        W34156   6.456   7.576   3.346 -0.0519 -0.0909  0.3953
18348W        W34157  16.477  11.257   3.015 -0.0787  0.0638 -0.0242
18349W        W34158   8.830   6.509  15.732 -0.1733 -0.1937  0.2358
18350W        W34159   6.928  14.832  15.727 -0.1599  0.1610 -0.2947
18351W        W34160  16.664   8.633   3.045  0.1184 -0.0450 -0.1812
18352W        W34161  14.894   1.108   0.752 -0.1480  0.0191  0.0242
18353W        W34162  10.108   3.217   2.481 -0.3021 -0.2790  0.1289
18354W        W34163  16.484   9.182   3.675  0.2795  0.0828 -0.0893
18355W        W34164  11.854  10.035   0.832  0.1306  0.0964  0.0345
18356W        W34165   2.227  12.179  13.527 -0.0657  0.2909 -0.0401
18357W        W34166   2.463  11.112   5.624 -0.2252 -0.0747  0.0959
18358W        W34167   9.617   9.846   3.969  0.0929 -0.0669 -0.0022
18359W        W34168   6.514   7.937  12.461  0.1168 -0.0574  0.0557
18360W        W34169   3.443   3.252   2.584  0.0101 -0.0077 -0.2641
18361W        W34170   9.491  16.643   3.349 -0.1918 -0.2096  0.1447
18362W        W34171   7.561   5.122   5.262 -0.0614 -0.0209 -0.1919
18363W        W34172   5.561   9.257   4.030  0.0128 -0.0514 -0.0447
18364W        W34173   3.682   5.389   3.402  0.0911  0.3474 -0.4067
18365W        W34174   1.911   1.084  14.656 -0.0545 -0.0981  0.1175
18366W        W34175   9.297   0.139   0.814 -0.0395  0.0641 -0.2785
18367W        W34176  14.914  17.004  11.063  0.1255  0.2378 -0.0546
18368W        W34177  17.163  12.300   3.091 -0.2798 -0.3067  0.0242
18369W        W34178   1.520   8.480  14.023  0.0712 -0.0684 -0.0254
18370W        W34179  13.249  10.971   0.923  0.1646  0.4275  0.0185
18371W        W34180   8.388  15.439  13.032 -0.3099  0.2036  0.2275
18372W        W34181   9.105   0.288  14.552  0.0192 -0.0448  0.1413
18373W        W34182  13.228  16.438   0.329 -0.0906  0.1299  0.2313
18374W        W34183   6.698  11.989  10.527  0.1161  0.0610 -0.3138
18375W        W34184   0.396   8.271   0.407  0.1839 -0.0391 -0.1191
18376W        W34185   8.267  11.389  11.609 -0.0745 -0.1018  0.3592
18377W        W34186   1.101  15.747  15.191  0.0254 -0.0045 -0.4644
18378W        W34187  13.425  17.549   1.322  0.0800  0.1400 -0.2116
18379W        W34188  15.949   9.450   2.574  0.0397  0.0654  0.2240
18380W        W34189  18.239  12.218  15.779  0.1315 -0.0062  0.0286
18381W        W34190  12.284  15.912  15.387  0.0760  0.3207 -0.2840
18382W        W34191   6.533   4.290  11.351 -0.0235 -0.0190  0.1623
18383W        W34192  11.364  14.565   9.918  0.2866  0.2995 -0.1148
18384W        W34193   2.848   4.872   4.242 -0.0868  0.0285  0.0053
18385W        W34194   2.871   8.994   2.233 -0.2509  0.1039  0.2300
18386W        W34195  14.993   0.621   0.527 -0.2644 -0.1212 -0.0770
18387W        W34196  17.739  10.619  14.326 -0.1424 -0.3559  0.0451
18388W        W34197   0.843   6.575   4.142 -0.0346  0.0823 -0.0622
18389W        W34198  11.603   4.926  12.471  0.1352  0.2096  0.1580
18390W        W34199   0.036   4.938  12.692  0.1964 -0.3713  0.1448
18391W        W34200  11.440   4.239   1.075 -0.1250 -0.0482  0.0914
18392W        W34201  10.865  15.277  11.493 -0.0785 -0.2119  0.0826
18393W        W34202   7.647   5.521  14.354 -0.1373 -0.1600 -0.1335
18394W        W34203   3.948   7.461  10.645 -0.0292  0.1532  0.1108
18395W        W34204  16.264  16.004  14.068  0.0944  0.0407 -0.1083
18396W        W34205   1.350   9.035   0.046 -0.0299  0.3597 -0.2847
18397W        W34206   6.065  15.337  13.578 -0.0610  0.2215 -0.1425
18398W        W34207  15.749  10.123  11.401  0.0079  0.4141 -0.0844
18399W        W34208   7.070   1.742  13.224 -0.0656 -0.0277  0.0145
18400W        W34209   6.850  12.258   4.959  0.0389  0.1150 -0.3143
18401W        W34210   0.871   0.367  14.854  0.4279  0.3302 -0.0469
18402W        W34211   5.247  14.505   1.551  0.2728  0.3382 -0.0102
18403W        W34212   2.416   0.523   3.234 -0.0123 -0.1358 -0.2359
18404W        W34213   3.689   4.118   2.901 -0.1407  0.0201 -0.0825
18405W        W34214   4.013   1.517   4.691 -0.0832  0.1282  0.1987
18406W        W34215   3.967   2.358  12.994 -0.0461 -0.0193 -0.3451
18407W        W34216  14.087   1.838  11.359 -0.1919  0.1227  0.0173
18408W        W34217  17.525   5.663   3.020 -0.0007 -0.2853 -0.1250
18409W        W34218   3.711  13.221  12.784  0.1867 -0.0986 -0.2869
18410W        W34219  12.564   7.304  15.292 -0.0389  0.0521  0.0446
18411W        W34220  13.009   9.243   5.573  0.0353  0.1865  0.0319
18412W        W34221   4.827   6.091  15.830  0.2241  0.1652  0.0701
18413W        W34222   9.431   6.290   4.871  0.1508 -0.0067 -0.1183
18414W        W34223   2.879  10.422  11.457 -0.2421  0.1598 -0.0728
18415W        W34224   7.496   6.997  11.725  0.4798 -0.0613 -0.0713
18416W        W34225  16.640   8.104   4.214  0.5615  0.1317 -0.0203
18417W        W34226   5.891  17.088  15.300  0.0622 -0.0399 -0.0706
18418W        W34227   8.067   3.418  15.237 -0.0179  0.0147 -0.2627
18419W        W34228   5.331   6.625  12.702  0.0365  0.4039  0.1363
18420W        W34229   1.869   1.234   2.972 -0.1691  0.0006 -0.0204
18421W        W34230  12.367  16.308   0.565 -0.2886  0.1154  0.0177
18422W        W34231   1.223   8.390   0.653  0.0766  0.1525  0.1028
18423W        W34232  15.112   1.774   2.688  0.2411 -0.3352 -0.2301
18424W        W34233  10.380  15.391  13.726  0.3449  0.1428 -0.0824
18425W        W34234  17.840   5.675  13.036  0.1403  0.2454 -0.0627
18426W        W34235  12.290   9.318   4.955  0.0473  0.3003  0.2803
18427W        W34236  15.553   1.651   2.415  0.0251 -0.2929  0.0935
18428W        W34237   6.031   4.027   4.870 -0.1140 -0.1565  0.2839
18429W        W34238   1.091   7.771   4.775 -0.1069 -0.2804 -0.0126
18430W        W34239   9.554   2.652   3.209 -0.0706 -0.2637 -0.0982
18431W        W34240  13.590   8.656  14.275  0.2415  0.0835  0.0421
18432W        W34241   5.333  12.516   0.910 -0.0085 -0.0734 -0.0186
18433W        W34242   4.052   3.874   1.281 -0.1562  0.0263 -0.4235
18434W        W34243  17.952   7.762   1.317  0.2625  0.2018  0.1590
18435W        W34244   9.373   8.529  13.766  0.1991 -0.0555 -0.0243
18436W        W34245  13.403  17.246  10.715  0.2569  0.1983 -0.3498
18437W        W34246  10.498   9.446   2.356  0.2249  0.0043  0.1092
18438W        W34247  16.123   6.684  12.389 -0.2741  0.2489  0.1031
18439W        W34248   1.790   8.901   2.854  0.4341 -0.0656  0.1658
18440W        W34249  13.269   7.803  14.445 -0.1161  0.0126 -0.1540
18441W        W34250  10.959   4.659   2.117  0.0281 -0.3492 -0.1133
18442W        W34251   3.811   4.038   0.335  0.0227  0.0196 -0.1195
18443W        W34252  12.598  13.668  11.080  0.1609 -0.1789 -0.3058
18444W        W34253   6.434  10.744  14.293 -0.1638  0.0634  0.1710
18445W        W34254   8.158   3.232  14.405  0.1063 -0.0786  0.0039
18446W        W34255  10.423   0.534  14.063 -0.2126 -0.0527  0.0324
18447W        W34256   9.151  10.936   1.643 -0.2030 -0.1402  0.3149
18448W        W34257   6.717  12.736   5.212 -0.0337 -0.0891 -0.0081
18449W        W34258   7.234  17.066   0.818 -0.0324  0.1752  0.0490
18450W        W34259   8.478   4.646  14.019 -0.2496 -0.3165  0.0684
18451W        W34260  13.125   1.154  13.380  0.2986  0.0896 -0.0379
18452W        W34261  14.602   2.927  12.184  0.0005 -0.1184  0.0591
18453W        W34262   2.475  11.266  10.050 -0.0292 -0.0129 -0.3909
18454W        W34263   9.632  10.540   0.562  0.1035 -0.2696 -0.1552
18455W        W34264  10.892   7.017   0.672 -0.1764  0.1456 -0.1487
18456W        W34265  13.778  17.107  11.946 -0.0173 -0.0654  0.0578
18457W        W34266   9.543   7.550   4.338  0.0180 -0.1856  0.2356
18458W        W34267  17.457  16.804  13.089 -0.2958  0.3727 -0.1216
18459W        W34268  15.807  11.406   3.678 -0.0749 -0.0437 -0.0417
18460W        W34269  13.936   3.176   4.895  0.0664  0.0007  0.1024
18461W        W34270  12.266  13.757   3.601  0.3369 -0.0690  0.0414
18462W        W34271   4.047   5.462   0.016 -0.1064  0.0120 -0.2672
18463W        W34272   5.194   5.551  13.786 -0.1892 -0.2124 -0.1945
18464W        W34273  17.210  15.992   1.799 -0.0373  0.0801  0.0989
18465W        W34274   9.289   6.466  14.803 -0.0186  0.1035 -0.0944
18466W        W34275   6.384  17.245  12.309 -0.0914 -0.5898 -0.1139
18467W        W34276   3.365  15.840  13.604 -0.2578 -0.0185 -0.3456
18468W        W34277   3.532  12.025  15.686  0.1952  0.0015 -0.4117
18469W        W34278   6.981  10.918   1.752 -0.2310  0.0257 -0.0814
18470W        W34279   1.340  18.081  15.973 -0.0970  0.0395 -0.0002
18471W        W34280  15.636   3.893   3.617 -0.0082 -0.1232 -0.1691
18472W        W34281   0.958  17.982   0.576 -0.1532  0.2613  0.0157
18473W        W34282   3.644  10.882   2.990  0.0207  0.2663 -0.1942
18474W        W34283   9.680  10.297   3.644  0.1390  0.0880 -0.1747
18475W        W34284  12.220  18.212  11.900  0.0396  0.1793  0.0941
18476W        W34285   1.390   3.169   3.246  0.0234  0.1321  0.3672
18477W        W34286  12.576   4.497   4.205  0.1510 -0.0811  0.1497
18478W        W34287   9.874  15.069   3.985 -0.0339  0.1275  0.1253
18479W        W34288   5.877   0.202   0.336 -0.1019 -0.1659 -0.2289
18480W        W34289   1.971   5.383   2.131 -0.1729 -0.1155  0.0814
18481W        W34290   8.040   2.193  14.561 -0.0173  0.1856 -0.0986
18482W        W34291  15.314   9.642   3.971  0.1651  0.1841 -0.0668
18483W        W34292   7.576   2.678  15.767 -0.0197  0.2982 -0.1974
18484W        W34293   6.066  11.674  11.009  0.0722  0.0502 -0.0714
18485W        W34294   9.217   4.242  11.395 -0.1765  0.2133 -0.0795
18486W        W34295   7.185  10.016   2.046 -0.2026 -0.1878 -0.1800
18487W        W34296   1.099   8.127   3.945 -0.0262 -0.0674 -0.4149
18488W        W34297  11.150  11.192  11.932  0.0156 -0.2929  0.0805
18489W        W34298  12.639   1.390  11.111 -0.2525 -0.2110 -0.1923
18490W        W34299   3.218   7.179  14.546  0.3190 -0.0041 -0.2614
18491W        W34300   6.903  11.765   3.471  0.0559 -0.0672 -0.0511
18492W        W34301  15.082  14.485   0.341  0.1663  0.2595  0.0434
18493W        W34302   5.903   9.859  12.654  0.0887  0.2083 -0.1377
18494W        W34303   0.104  10.486  10.755 -0.1460  0.0414  0.2987
18495W        W34304  10.768  17.876   0.636  0.2716 -0.4391 -0.0213
18496W        W34305   0.628  15.130  13.939  0.1683  0.0441  0.0262
18497W        W34306   6.304  16.406  15.808 -0.2150  0.0484 -0.1589
18498W        W34307  17.003   5.018  13.966  0.1463  0.3259 -0.5035
18499W        W34308   2.217  10.241  14.320 -0.2031  0.4580 -0.1630
18500W        W34309  16.392   3.809   0.398 -0.0642  0.2537 -0.0562
18501W        W34310  16.452   6.828   2.452  0.2644  0.0435 -0.2601
18502W        W34311  17.570   5.730   0.985  0.1162 -0.2518  0.1432
18503W        W34312   9.263   9.100   1.310 -0.0710 -0.0201 -0.0410
18504W        W34313  11.185   4.148   3.296  0.1351  0.2071 -0.0236
18505W        W34314  17.271   0.674  12.814 -0.0269 -0.2955  0.1129
18506W        W34315   3.315  16.912  10.352 -0.2315 -0.0840 -0.0285
18507W        W34316  18.252  10.813   2.764  0.0875 -0.0947 -0.1205
18508W        W34317   3.131   9.218  12.800  0.1759 -0.1651  0.1211
18509W        W34318   6.481  17.772   1.431 -0.0322  0.0605 -0.1264
18510W        W34319   5.240   4.236   4.809  0.1416 -0.0489 -0.0779
18511W        W34320   8.840   0.750  15.364 -0.0987  0.4276 -0.2278
18512W        W34321   7.993   9.416   1.698  0.1348 -0.1782  0.0012
18513W        W34322   3.754  16.652   1.562  0.1500 -0.2174  0.1975
18514W        W34323   6.891   2.388  12.286 -0.1394 -0.1772 -0.0015
18515W        W34324   4.610   4.495  11.497  0.0400 -0.0513  0.1048
18516W        W34325   6.262   8.084   3.014 -0.1840 -0.0875  0.1387
18517W        W34326  12.189  13.634   2.747  0.0857 -0.0407 -0.2619
18518W        W34327   2.469  12.005  13.081 -0.1297 -0.0299  0.2165
18519W        W34328  17.410   3.589   3.602  0.1408  0.0724  0.0575
18520W        W34329   6.832   0.627   4.876 -0.3053 -0.0707  0.0131
18521W        W34330   8.420  15.634  13.561  0.1769 -0.0682 -0.2200
18522W        W34331   1.288   7.576   0.108 -0.1347 -0.0052 -0.0950
18523W        W34332   2.709   3.661  12.343 -0.0970  0.0775 -0.3008
18524W        W34333  16.177   6.481   0.570 -0.0273 -0.1514 -0.2098
18525W        W34334   6.411  14.480  12.174  0.5288 -0.1519 -0.0357
18526W        W34335  13.081   0.922   4.502 -0.2440 -0.2081 -0.0941
18527W        W34336  15.754   4.514   0.116  0.1607  0.2248 -0.1973
18528W        W34337  10.766  12.898  13.189  0.0190 -0.0779 -0.0014
18529W        W34338   2.224   6.895  13.104  0.1860  0.1568  0.0099
18530W        W34339   7.893  13.895   1.282 -0.1446 -0.0007 -0.1403
18531W        W34340   0.700   4.235   1.028 -0.0522  0.0697 -0.1146
18532W        W34341  14.639   3.322  13.118 -0.0034 -0.1211  0.0090
18533W        W34342  10.753  13.692  15.634  0.0289  0.2479 -0.0372
18534W        W34343  17.350  10.559  12.006 -0.0468 -0.1457  0.0109
18535W        W34344  13.796   2.716  12.060 -0.1224 -0.2880 -0.2194
18536W        W34345   4.728  14.242   3.291 -0.2138 -0.0520 -0.0431
18537W        W34346   9.653   9.291  11.327 -0.1152  0.1196  0.2047
18538W        W34347   8.072   1.517   4.352 -0.1703  0.2123  0.0992
18539W        W34348   7.312   0.504  11.479 -0.0677 -0.4064 -0.0895
18540W        W34349   5.288   4.088  12.327 -0.1527  0.0485 -0.2099
18541W        W34350   8.909   7.566  11.812 -0.1636  0.1226 -0.0532
18542W        W34351  11.116   8.398  11.965 -0.3408 -0.1197 -0.1054
18543W        W34352   2.231   2.797   2.800  0.4068 -0.1424 -0.0081
18544W        W34353   7.628   6.650   4.252 -0.0057 -0.0008  0.2759
18545W        W34354  14.299  16.447   4.356  0.2884 -0.0575  0.1734
18546W        W34355   8.472   4.377  14.533  0.1961 -0.2106 -0.1101
18547W        W34356  17.283   5.973  12.837  0.1496 -0.2579 -0.0332
18548W        W34357   6.899   0.418  15.882 -0.1092 -0.1417 -0.0772
18549W        W34358  15.455  17.478   1.778  0.2971  0.1847 -0.0954
18550W        W34359   6.539   4.629   2.695 -0.0779 -0.0877 -0.1129
18551W        W34360  10.827   9.103  15.236 -0.0822 -0.0012 -0.2886
18552W        W34361   8.813  10.295  11.057 -0.4225  0.1667 -0.2468
18553W        W34362   3.964   4.571   3.571 -0.1092  0.3383  0.2482
18554W        W34363   8.435  14.997  13.912  0.0343  0.1856  0.0642
18555W        W34364  16.171   1.089  14.101 -0.1728 -0.0568  0.1892
18556W        W34365  11.321  12.832   1.374 -0.1620  0.3368 -0.0465
18557W        W34366  11.231   0.804  15.177 -0.0820  0.1989  0.0314
18558W        W34367  10.283  15.936  13.829 -0.1963 -0.1858  0.0800
18559W        W34368   4.722  17.604  15.071 -0.1684 -0.0588 -0.0903
18560W        W34369   1.286  16.029  14.778 -0.0495 -0.0052 -0.0340
18561W        W34370  13.244   9.365  13.184  0.3189 -0.1368 -0.0299
18562W        W34371   1.601  15.689  14.492  0.1734 -0.1035  0.0852
18563W        W34372   2.771   3.765   4.369  0.0256  0.0687  0.0309
18564W        W34373  12.509   7.328   4.187  0.2657 -0.1298  0.3292
18565W        W34374  10.650   2.896  12.443  0.0500  0.2465 -0.0878
18566W        W34375  11.009  13.696   0.064  0.3517  0.0825  0.2473
18567W        W34376   3.570   3.646   3.719 -0.1480  0.1486  0.0904
18568W        W34377   2.305  15.415  14.223 -0.1082  0.0297  0.0691
18569W        W34378   5.720   0.971   4.112 -0.2072 -0.1481  0.4571
18570W        W34379  15.894   6.319   0.950  0.1823  0.1589  0.1040
18571W        W34380   2.471  10.713   1.919 -0.0212  0.3302 -0.1112
18572W        W34381   7.011   6.016   4.106 -0.0813 -0.0844 -0.1893
18573W        W34382   5.541   0.651   0.021  0.0708 -0.0063 -0.0323
18574W        W34383  15.787   9.303   5.077 -0.0747 -0.2776  0.0016
18575W        W34384   8.800  10.522  14.036 -0.1531  0.2825 -0.1018
18576W        W34385  18.068  17.481   1.398  0.1287  0.1140  0.4537
18577W        W34386   7.868  15.792  11.997 -0.1331  0.0386  0.2251
18578W        W34387   2.664   0.219   6.018 -0.2470  0.0557 -0.0605
18579W        W34388   0.686   7.560   4.770  0.1503 -0.0992  0.0027
18580W        W34389   0.821  18.175  12.543  0.1431  0.2869  0.1299
18581W        W34390   1.674  10.256  12.936  0.0121  0.0809  0.2532
18582W        W34391   8.020   8.944   3.999 -0.0362  0.3340 -0.1654
18583W        W34392   4.566  10.846   2.937 -0.1329  0.1837  0.1538
18584W        W34393  17.155   0.682  11.056  0.0331 -0.0257  0.1557
18585W        W34394  11.360   6.149  13.731  0.0107 -0.0219 -0.0313
18586W        W34395   4.423  15.944  16.003 -0.5054 -0.3348 -0.0069
18587W        W34396   0.825   5.454  12.481  0.1699  0.2584 -0.1037
18588W        W34397   2.297  16.152   1.356  0.0282  0.0835 -0.1700
18589W        W34398  16.493   1.074  14.496 -0.2894 -0.1293  0.1475
18590W        W34399  10.301   6.922  13.206 -0.1227 -0.0730  0.1795
18591W        W34400  13.954   1.957  14.077 -0.0308 -0.1024  0.2157
18592W        W34401   5.955   0.782  11.423 -0.0744 -0.2517 -0.0172
18593W        W34402   0.120   2.325  11.149  0.0297  0.3225 -0.2090
18594W        W34403  17.181   0.974  13.202  0.0350  0.4195  0.1219
18595W        W34404  10.945  12.168  12.436 -0.2498 -0.1647 -0.0105
18596W        W34405   2.972   1.717  13.607  0.0924 -0.1186  0.1311
18597W        W34406   7.656  13.629  14.010 -0.1609 -0.0212 -0.0848
18598W        W34407  11.998   3.667  13.523 -0.1717 -0.1940  0.2130
18599W        W34408  15.591  11.195   0.054 -0.2024  0.0751  0.3602
18600W        W34409   0.602  17.972   3.982  0.1004 -0.2166  0.1963
18601W        W34410  16.407   1.557  11.462  0.1952 -0.0791  0.1456
18602W        W34411   3.323  14.468   3.005 -0.1912  0.0173 -0.0608
18603W        W34412  13.172   5.334   4.039 -0.0931 -0.3383 -0.0332
18604W        W34413   7.328  17.194  15.165  0.2367  0.1214  0.2707
18605W        W34414  15.056  11.159  12.179  0.4224  0.2083  0.0605
18606W        W34415  12.635   6.944   3.865 -0.0141  0.1813  0.0747
18607W        W34416   6.512  18.143   2.804  0.1960  0.2263  0.1324
18608W        W34417   5.370   0.362   4.996  0.2409  0.2436 -0.2494
18609W        W34418  17.875  13.534  10.826 -0.0679  0.0530 -0.3752
18610W        W34419  15.291   2.795   4.133  0.0056  0.2177 -0.0808
18611W        W34420   2.128  16.797   1.041  0.1072 -0.0788  0.0235
18612W        W34421  17.373   0.773  14.292  0.0214 -0.0340 -0.1692
18613W        W34422  13.650  13.024   1.633  0.0617 -0.0694  0.2361
18614W        W34423   3.892  14.061   4.903 -0.0697 -0.1786 -0.1524
18615W        W34424   5.478  15.932  12.320 -0.1568  0.0839 -0.0256
18616W        W34425  12.306   5.946   0.029 -0.0001 -0.3050 -0.3119
18617W        W34426   1.187   9.556   1.539  0.0262 -0.4035  0.1141
18618W        W34427   9.826   3.788   3.611  0.1722  0.4002  0.1670
18619W        W34428  12.083   3.762   4.318 -0.2824 -0.0393  0.1742
18620W        W34429   6.307   7.613   2.789 -0.1284 -0.1807  0.2620
18621W        W34430   0.284  14.911  13.027 -0.0998  0.1106  0.2087
18622W        W34431  10.014  14.450   0.673  0.0523 -0.0024  0.3557
18623W        W34432  11.689   5.645   5.780  0.0843 -0.2763  0.1269
18624W        W34433  10.577  11.505   6.023 -0.2135 -0.0333 -0.0903
18625W        W34434   9.283   0.303  12.022  0.0487  0.3645 -0.0688
18626W        W34435   0.903  12.957  11.243 -0.3717  0.2800 -0.1021
18627W        W34436  11.481   1.330  13.378  0.3006  0.2058 -0.1751
18628W        W34437   1.932   7.990  15.470 -0.0374 -0.0893 -0.0838
18629W        W34438   3.509  10.261   1.196 -0.0119  0.0430  0.0960
18630W        W34439   9.576  15.276  15.719  0.2471 -0.1188  0.0182
18631W        W34440   0.569   7.239   2.868  0.1113  0.2207  0.0820
18632W        W34441  18.215  16.093  13.486 -0.1866  0.0381 -0.0069
18633W        W34442  11.447  12.363   1.693  0.1340  0.2033 -0.3412
18634W        W34443  12.594  14.764   5.792 -0.2374 -0.1355  0.2274
18635W        W34444   8.728  17.854   0.182  0.0694 -0.0202  0.3212
18636W        W34445   0.478  12.895  15.611  0.1493  0.2057 -0.1517
18637W        W34446  14.506   1.423   1.719  0.0995 -0.1378  0.0250
18638W        W34447   2.684   5.084  14.313 -0.0806 -0.0707  0.0036
18639W        W34448   7.286  16.533  11.806  0.0061  0.1480 -0.2535
18640W        W34449  18.055   7.768   3.730 -0.1296 -0.0534 -0.0017
18641W        W34450   8.150  14.094   5.681 -0.0205  0.1476 -0.1763
18642W        W34451  10.528   9.623  14.064 -0.3619  0.1497  0.0598
18643W        W34452  12.675   3.114   1.298 -0.1199 -0.1856 -0.0186
18644W        W34453  10.684   8.486  11.169 -0.0499 -0.0880 -0.1125
18645W        W34454   3.962  15.753  14.687 -0.0259  0.0312 -0.1176
18646W        W34455   0.798  13.680   2.277 -0.1145  0.0387  0.3254
18647W        W34456  11.861   2.821   0.106  0.3146 -0.0155  0.2476
18648W        W34457  13.826  14.861   0.701  0.0237 -0.1549  0.0905
18649W        W34458   0.089   3.124  15.279  0.2759 -0.1657  0.0383
18650W        W34459  11.748  15.963   3.382 -0.0871  0.0124  0.0303
18651W        W34460   8.199   7.677  15.318  0.0978 -0.0813 -0.0783
18652W        W34461   0.556  13.382  12.500 -0.0411 -0.1163  0.0939
18653W        W34462  11.105  13.648   2.165  0.1921 -0.1689 -0.0240
18654W        W34463   7.939  16.445  13.946 -0.1832  0.0138 -0.3847
18655W        W34464   4.708  11.388   3.487  0.2395  0.0783 -0.1861
18656W        W34465   6.609   9.433  13.444 -0.2158  0.0261 -0.1509
18657W        W34466   8.404  17.070  13.095 -0.0331  0.0937  0.0127
18658W        W34467   7.213   4.075  12.481  0.0615  0.1397 -0.0474
18659W        W34468  10.260   1.172  11.583 -0.0631 -0.1406  0.0450
18660W        W34469   7.330   7.296   1.388 -0.0239 -0.2483 -0.0548
18661W        W34470  17.575   8.270   4.472 -0.0031  0.1398 -0.3012
18662W        W34471   0.281   2.953   0.417 -0.0343 -0.3551  0.2916
18663W        W34472  13.197  11.960   0.103 -0.0600  0.2025  0.3462
18664W        W34473   2.519   1.547  14.335 -0.2307  0.0158  0.0671
18665W        W34474   3.621  12.755   2.844 -0.0122  0.0320  0.0110
18666W        W34475   7.319   9.481  10.665  0.1175  0.3621  0.1240
18667W        W34476   3.628  15.767   1.003 -0.1362  0.2262 -0.0752
18668W        W34477   8.935   8.311   0.148  0.0356 -0.1568  0.0159
18669W        W34478   9.619  18.011  12.658  0.1904  0.1313  0.0221
18670W        W34479   5.418  16.901  13.563  0.0126  0.2810 -0.1993
18671W        W34480  13.272  17.042   3.714 -0.5183  0.0228  0.1888
18672W        W34481   8.014   2.789   0.256  0.1119 -0.2552 -0.1226
18673W        W34482   2.857  15.841  12.729 -0.4152  0.1136  0.2123
18674W        W34483  15.582   9.346  14.384  0.0119 -0.0221 -0.2637
18675W        W34484   3.291  13.111   4.866  0.0430  0.3656  0.0768
18676W        W34485  11.339  12.022  14.408  0.2570 -0.1406  0.0990
18677W        W34486  17.202  17.145  12.052  0.3587  0.1833 -0.2355
18678W        W34487  17.597  11.837  15.721  0.0047 -0.0928  0.0623
18679W        W34488  14.192  16.379   6.503 -0.2552 -0.0019  0.3178
18680W        W34489   7.950   0.826  13.452  0.0410 -0.0429  0.2440
18681W        W34490  15.801   4.873  15.867 -0.1860 -0.0970  0.0218
18682W        W34491   6.741  11.719  12.249 -0.3381 -0.1794  0.2818
18683W        W34492   3.631  11.117   4.843 -0.0149  0.0025  0.0250
18684W        W34493   1.283   1.675  15.278  0.0225  0.0669 -0.0145
18685W        W34494   0.598   0.707  12.427  0.0053 -0.0258  0.0863
18686W        W34495  10.833   9.873   1.196 -0.0099 -0.1046  0.0377
18687W        W34496   8.801   4.077   2.987  0.3012  0.3090 -0.0261
18688W        W34497   8.571  16.159   2.349 -0.1567  0.1194 -0.1732
18689W        W34498  15.182   0.403  13.178 -0.0827  0.1078  0.1332
18690W        W34499   3.656  12.311  13.241 -0.0468  0.1544  0.1143
18691W        W34500  15.490   8.504  11.605  0.0759  0.0755 -0.2863
18692W        W34501   0.580   4.789   3.145  0.1991 -0.0055 -0.0717
18693W        W34502   0.877   3.353  15.561 -0.2699  0.1057  0.1057
18694W        W34503   5.394   6.397  11.265  0.3576  0.0754 -0.1564
18695W        W34504   0.047   5.674  13.296  0.2011  0.2684 -0.4851
18696W        W34505   3.441   6.182   4.468  0.2027 -0.0268 -0.0340
18697W        W34506  10.646   6.579   4.682 -0.0639 -0.5220 -0.0086
18698W        W34507   2.049  16.791  12.368  0.1182  0.2524  0.2293
18699W        W34508  14.023  16.141   0.476  0.2474 -0.2495 -0.0611
18700W        W34509  17.381   8.099  14.220 -0.2683  0.2682  0.3263
18701W        W34510   6.484  15.899  11.737  0.0874 -0.0418 -0.3459
18702W        W34511  16.456   9.455   4.263 -0.2179  0.2489 -0.1219
18703W        W34512  14.954  12.579   4.795 -0.0512 -0.1010  0.2042
18704W        W34513   1.406   7.685   2.778 -0.1018 -0.2306  0.0713
18705W        W34514   8.692   2.835  13.778  0.0671 -0.0492 -0.1113
18706W        W34515  10.254   3.997   0.660  0.0237  0.2940 -0.0305
18707W        W34516  12.201   0.873   5.185  0.0046 -0.2198 -0.2072
18708W        W34517   9.751   8.844   1.519 -0.0489  0.0595  0.1366
18709W        W34518   2.412  10.034  13.381  0.3947  0.0549 -0.2299
18710W        W34519   1.837  13.869  11.913  0.1801 -0.1663 -0.2251
18711W        W34520   5.910  15.268   5.287 -0.0073  0.2270 -0.0717
18712W        W34521   1.077   4.324  11.927 -0.2875 -0.0566  0.3516
18713W        W34522  13.991   6.055  13.269 -0.3628  0.2117  0.1925
18714W        W34523  10.595   4.410   1.987  0.3421  0.0499 -0.0813
18715W        W34524   9.558   9.105  15.792 -0.1971 -0.3266 -0.0925
18716W        W34525   9.884  15.790   5.029  0.0413  0.1457  0.0106
18717W        W34526  10.193  15.400   0.382 -0.1812  0.1408 -0.0983
18718W        W34527   5.498   2.781   0.784  0.0331  0.2463 -0.3504
18719W        W34528   7.583  13.057  14.170  0.0671 -0.1800  0.0456
18720W        W34529  15.168  15.287  14.871 -0.3407  0.1602  0.2079
18721W        W34530  17.140   8.890  11.021 -0.0592 -0.0998  0.1615
18722W        W34531   9.194   3.600   3.110  0.0894  0.0657  0.2645
18723W        W34532   4.063  14.674  11.941  0.1045  0.0282 -0.2380
18724W        W34533  17.059  18.034   0.019 -0.2485 -0.2436  0.1481
18725W        W34534   5.359  10.682  12.485  0.0327  0.2803  0.1541
18726W        W34535   7.432  16.932  15.550 -0.2230  0.1583  0.1715
18727W        W34536   9.706   0.704   4.859 -0.2206  0.1042  0.1603
18728W        W34537   0.034  14.387   5.126  0.2815 -0.0405 -0.2671
18729W        W34538   1.522   6.762  15.649 -0.0692  0.1263  0.1961
18730W        W34539  15.583   8.854   4.961  0.0283 -0.3328 -0.1153
18731W        W34540  15.633  11.842  15.232  0.4507 -0.0679 -0.0423
18732W        W34541   6.830   9.337  15.727  0.0980  0.0659 -0.0672
18733W        W34542  12.538   2.356  13.254  0.0452 -0.0953  0.0359
18734W        W34543  12.485  10.165  13.811  0.0489 -0.1121 -0.0686
18735W        W34544   8.058  14.085   2.150  0.1205 -0.1957 -0.3676
18736W        W34545   6.888   3.970  11.560  0.1130 -0.2895  0.1623
18737W        W34546  15.668   6.091   4.424  0.1918 -0.0127  0.0652
18738W        W34547   9.080   6.235   2.979  0.0848 -0.2438 -0.0478
18739W        W34548   6.777  12.518   2.717  0.0083  0.1452 -0.3435
18740W        W34549   2.597  14.817   4.895  0.2011  0.2943  0.1454
18741W        W34550   1.830  17.431   3.092 -0.1536 -0.0540  0.1775
18742W        W34551  13.070  14.370  12.443  0.2515  0.1558  0.1450
18743W        W34552  10.293   3.126  13.320 -0.1681 -0.0362  0.2394
18744W        W34553  14.602  12.802   1.732 -0.2370  0.0505 -0.2599
18745W        W34554  14.155  16.458   2.721 -0.1588 -0.0244 -0.1502
18746W        W34555   4.542   8.659  11.734 -0.0960 -0.0731  0.2213
18747W        W34556  16.151  17.539  15.192 -0.4945 -0.0397  0.1769
18748W        W34557  12.452   7.557   0.593 -0.2003 -0.0381 -0.2101
18749W        W34558  10.177   0.856  15.469 -0.0994  0.2422 -0.1099
18750W        W34559   1.946   3.206  12.655 -0.0725 -0.0923  0.0853
18751W        W34560  15.155   2.628  11.159 -0.1209 -0.1330 -0.1422
18752W        W34561  11.442  14.656   3.238 -0.2283 -0.4495 -0.1175
18753W        W34562   7.145   4.528  14.338  0.1325  0.0378 -0.2401
18754W        W34563  14.602   9.492  15.892 -0.2986  0.2112 -0.0034
18755W        W34564  17.559   8.962   0.928 -0.0234  0.1583 -0.1049
18756W        W34565   8.073   0.531   4.256 -0.2074  0.2902  0.1758
18757W        W34566   6.922   9.463   3.616 -0.0363  0.3061  0.0004
18758W        W34567   6.617  13.957  11.081 -0.0523  0.3744 -0.2568
18759W        W34568  10.763   0.377  15.694 -0.1548  0.0908  0.2361
18760W        W34569   1.761  10.283  14.471  0.1700 -0.2967 -0.0634
18761W        W34570  16.445   8.675  12.414  0.2387  0.1041 -0.1429
18762W        W34571  10.102  11.068   1.289 -0.4345 -0.3894 -0.1621
18763W        W34572   6.065   7.277   3.291  0.2283  0.0268  0.0970
18764W        W34573  11.111  12.814   0.756  0.2949  0.0419  0.2612
18765W        W34574  14.596   3.022   5.459  0.0544  0.1224  0.1274
18766W        W34575   9.968   8.541  12.645 -0.1474  0.0396  0.0402
18767W        W34576  17.549  13.235   3.037  0.3423 -0.1934 -0.2934
18768W        W34577   1.346  14.651   5.211 -0.1096  0.0777  0.2240
18769W        W34578  15.194   2.322  13.330  0.1493  0.1295 -0.1077
18770W        W34579   6.698  17.113  11.516 -0.0269  0.0876 -0.1828
18771W        W34580   8.918   2.262   3.173  0.1570  0.1207  0.0704
18772W        W34581   7.489  10.447  12.123  0.1096  0.3868 -0.2545
18773W        W34582   4.084  12.990  13.663 -0.1230 -0.0677 -0.0418
18774W        W34583  13.625   7.717  14.107  0.2688  0.1556  0.0891
18775W        W34584   5.516  10.104  13.642  0.1115 -0.1785 -0.0401
18776W        W34585  16.574   5.013   1.764  0.0637 -0.0880  0.1466
18777W        W34586   7.879   4.398   2.972  0.0541  0.1812  0.1074
18778W        W34587  11.149   2.809   5.512  0.0459  0.3788 -0.2034
18779W        W34588  10.193  16.836  13.161  0.1589  0.3978  0.0079
18780W        W34589   5.445   2.329   3.880  0.1086 -0.0647 -0.4354
18781W        W34590  13.465  17.324   0.868  0.0650 -0.1763  0.0842
18782W        W34591   6.017  13.341  12.776 -0.1431 -0.0299  0.1253
18783W        W34592   8.594   4.879  13.504  0.2219  0.1711  0.2332
18784W        W34593   6.097   9.241  13.337  0.1121 -0.2836 -0.1544
18785W        W34594   3.573  10.811   4.334 -0.0477 -0.1536 -0.0917
18786W        W34595  17.364   5.739  11.910 -0.0681  0.2945  0.3249
18787W        W34596  12.844  12.831   2.901 -0.2118 -0.0348 -0.0085
18788W        W34597   5.373   7.284  11.497 -0.0168  0.1402  0.1932
18789W        W34598  13.168  11.463  15.337 -0.0086 -0.0896 -0.0119
18790W        W34599  14.713   1.681  14.095 -0.1966  0.3251 -0.2941
18791W        W34600  16.780  16.630  11.361 -0.0365 -0.0816  0.1116
18792W        W34601   4.857   2.460   9.997  0.1065  0.1001 -0.1317
18793W        W34602   6.421   4.374   4.891 -0.2003 -0.0587  0.0003
18794W        W34603   6.211   8.152   1.371  0.1176 -0.0479  0.0340
18795W        W34604   8.321  10.396   0.027 -0.1273 -0.2084 -0.0348
18796W        W34605  14.710   4.521   1.201  0.0008 -0.1896  0.0618
18797W        W34606  11.652  13.457  13.708  0.0929  0.0487  0.2121
18798W        W34607  13.657  16.398   0.048  0.2290 -0.0210  0.2072
18799W        W34608   9.427  13.355   1.147  0.1737 -0.1965  0.1752
18800W        W34609  15.770  17.245  15.230  0.2539 -0.1118 -0.0048
18801W        W34610   7.038  10.195  11.985  0.0243 -0.0180  0.4754
18802W        W34611  17.575  16.786  15.981 -0.0363 -0.2075 -0.3378
18803W        W34612  17.490   5.599  16.034 -0.2105 -0.1481  0.1622
18804W        W34613  10.925  14.848  14.814 -0.1327  0.2725 -0.0877
18805W        W34614   1.832  14.853   5.291  0.2777  0.0673  0.0595
18806W        W34615  16.880  15.523   2.471 -0.1440 -0.0023 -0.0249
18807W        W34616  10.988   3.574   5.615 -0.2707  0.0738 -0.1430
18808W        W34617   6.780   1.630   2.885  0.0784 -0.2791 -0.2683
18809W        W34618   5.090  16.203   4.186 -0.1358 -0.1355 -0.1976
18810W        W34619   3.792  14.740   0.007  0.0602 -0.2082 -0.1331
18811W        W34620   0.741   7.495   3.411 -0.0750 -0.1221  0.0426
18812W        W34621  17.021  15.195  12.016 -0.0706  0.2598  0.0374
18813W        W34622   0.249   9.871   5.234  0.0449  0.0681 -0.0105
18814W        W34623  16.973  15.277  15.224 -0.1148  0.2935 -0.2827
18815W        W34624  10.053   9.639  14.143  0.0244  0.1233  0.0632
18816W        W34625   6.438   0.255   0.282 -0.0593 -0.0083 -0.1910
18817W        W34626   2.088   7.610   1.480 -0.2193 -0.2346  0.2766
18818W        W34627  12.295   4.869   1.908  0.0749 -0.1828 -0.1678
18819W        W34628  12.081  12.343  10.678  0.3096  0.0678 -0.3128
18820W        W34629   7.084  13.645  14.664 -0.1548 -0.0451 -0.2947
18821W        W34630  13.265   3.636  11.373 -0.0143 -0.1025  0.1075
18822W        W34631  16.359   7.314  12.197 -0.2950 -0.1127  0.1084
18823W        W34632  14.903   6.037   5.311  0.1665  0.0243  0.0898
18824W        W34633   2.230   3.970   2.964  0.0271  0.1286 -0.1399
18825W        W34634  14.944  12.476  11.285  0.1057 -0.2331 -0.0506
18826W        W34635  17.122  17.274  15.230  0.1544 -0.1022  0.1380
18827W        W34636   0.352   7.459  11.318 -0.3151 -0.0956 -0.0897
18828W        W34637  18.075  13.705  12.216  0.1402 -0.3779 -0.0846
18829W        W34638   9.898   8.188  12.166  0.2412 -0.1366 -0.1461
18830W        W34639   3.144  10.036  11.183 -0.0748  0.0421 -0.1921
18831W        W34640  13.075  17.052   4.759  0.1794 -0.1477 -0.0391
18832W        W34641   6.175  14.931   3.204 -0.2470 -0.0877 -0.0396
18833W        W34642   8.180  12.894  13.548  0.0458 -0.2133  0.3466
18834W        W34643   7.101  13.074   5.375 -0.1365  0.0450 -0.0586
18835W        W34644   1.570   0.793  13.792  0.1326  0.0529 -0.1514
18836W        W34645  12.436   5.444   0.191  0.1882  0.0347 -0.1692
18837W        W34646  15.876   1.845   2.065 -0.0317  0.0800 -0.0822
18838W        W34647  17.913   7.126  10.269 -0.2909  0.2280  0.1103
18839W        W34648   6.566  11.880  11.764 -0.1957 -0.2646 -0.2610
18840W        W34649  13.032   4.210   0.513 -0.0666 -0.0251 -0.2484
18841W        W34650  10.906   5.750   1.329 -0.1267  0.2322  0.2826
18842W        W34651   4.876  10.279   1.418  0.1404 -0.0190 -0.1126
18843W        W34652   4.191   9.874  11.780  0.1457 -0.2598  0.0274
18844W        W34653   8.976   7.549  13.168  0.2458  0.1844  0.0176
18845W        W34654   8.142  11.081  13.404 -0.0762 -0.0812 -0.2160
18846W        W34655  13.227   6.297  11.766 -0.2106  0.0395  0.5514
18847W        W34656  18.234  14.129  12.536  0.0856  0.1115 -0.0633
18848W        W34657  13.178   0.143   5.042  0.2275 -0.0812 -0.1114
18849W        W34658   6.247  14.839  13.520 -0.2552  0.0269  0.1601
18850W        W34659  13.054   2.924   4.702 -0.0569 -0.0656  0.2782
18851W        W34660  13.917   6.696   1.099 -0.0963  0.0513  0.3619
18852W        W34661   8.597  13.404   3.759  0.0121  0.0575  0.0134
18853W        W34662   7.706  18.241  12.319 -0.1838  0.1691 -0.2298
18854W        W34663   2.196  10.571  12.714  0.0259  0.0756  0.1494
18855W        W34664   2.907   8.549  14.391  0.0680  0.1615  0.1787
18856W        W34665   7.259  13.239   3.678  0.1829 -0.0494  0.3131
18857W        W34666   8.961   0.493   5.023  0.0354 -0.1927  0.0227
18858W        W34667   7.407  11.248  12.843 -0.1828 -0.2133  0.1032
18859W        W34668   1.697  17.155  12.602 -0.1972  0.1629 -0.0527
18860W        W34669  10.021  17.626  11.855  0.2312  0.1286  0.0041
18861W        W34670   3.267  16.843   1.655 -0.0112 -0.0727  0.1005
18862W        W34671  10.517   3.017   2.204 -0.1236 -0.0795  0.0935
18863W        W34672  12.097  11.508   0.750 -0.1516 -0.1798 -0.1148
18864W        W34673   7.413   2.384   0.787  0.1134  0.0085 -0.0269
18865W        W34674   5.669  12.303   0.586 -0.0925 -0.0333 -0.1691
18866W        W34675   5.600  15.385  13.612 -0.1425  0.2370 -0.1813
18867W        W34676   9.420   4.290   1.354  0.0784 -0.1077  0.2086
18868W        W34677   2.365   0.079   2.937  0.2429 -0.1533 -0.1281
18869W        W34678   7.533  13.621   2.222  0.0611 -0.1275  0.1396
18870W        W34679   1.348   8.474  12.822 -0.1578 -0.0454 -0.1386
18871W        W34680   8.192  11.328   2.720  0.0389  0.1039 -0.1181
18872W        W34681   3.596  12.915   0.278  0.1103  0.1352 -0.3235
18873W        W34682  11.301   6.520   3.821  0.1571  0.1413 -0.2779
18874W        W34683  16.653   5.854   2.797  0.0730  0.1228  0.1735
18875W        W34684   5.682   5.991  13.022  0.1399  0.1448 -0.0714
18876W        W34685   0.700   9.762  14.276 -0.0667  0.1161 -0.2717
18877W        W34686  13.786   8.049   3.197  0.1547 -0.2406  0.3625
18878W        W34687   4.499  14.843   5.005 -0.1249 -0.2229 -0.1487
18879W        W34688  11.298  16.723  13.448  0.3088 -0.2476  0.0775
18880W        W34689   0.960   3.388   1.965 -0.1971 -0.2788 -0.1445
18881W        W34690   4.906   3.404  10.912  0.0850 -0.0183  0.0431
18882W        W34691   8.985   4.447   0.455 -0.1582 -0.1009 -0.0823
18883W        W34692  14.343  11.354  14.561 -0.1231  0.0481 -0.1097
18884W        W34693   1.332  17.699  13.832  0.0299  0.0453  0.1044
18885W        W34694  11.530   7.518  10.218  0.0684 -0.1304 -0.1071
18886W        W34695   5.829  15.356  11.508 -0.1568  0.0938 -0.0754
18887W        W34696   8.923   9.815   0.105  0.0404  0.0173  0.0072
18888W        W34697   9.928   4.518   1.814  0.3125 -0.1622  0.3192
18889W        W34698   6.718  14.781   0.084  0.0358  0.0946  0.1799
18890W        W34699   0.951  12.186  14.858  0.2781  0.0765 -0.1643
18891W        W34700   1.885   8.033   3.175 -0.0574  0.0623  0.1455
18892W        W34701   5.609  13.857  12.075 -0.0273 -0.3617 -0.5032
18893W        W34702   3.506  14.853  15.073 -0.2038  0.0133 -0.0704
18894W        W34703   0.484   3.869   2.939 -0.2247 -0.0507  0.1724
18895W        W34704   4.159  11.516   5.280 -0.2004 -0.3797 -0.3142
18896W        W34705  11.604  16.841  12.201  0.1548  0.0029 -0.0792
18897W        W34706   4.455   6.084  14.029  0.2768  0.0110  0.0314
18898W        W34707  14.396  17.320   0.062  0.0789  0.2597 -0.1171
18899W        W34708  17.520   2.514   3.917 -0.0250  0.0158  0.3046
18900W        W34709   1.463  10.257   3.418 -0.1365 -0.2564 -0.1269
18901W        W34710   2.322   4.080   4.198  0.0082 -0.0521  0.1998
18902W        W34711  12.389  11.683   1.126 -0.0132 -0.1860  0.0824
18903W        W34712  12.222   9.159   0.399 -0.0788  0.2261 -0.2039
18904W        W34713   4.079  17.027   3.273 -0.1710 -0.2748  0.1591
18905W        W34714  14.731  11.172   0.475  0.0168 -0.0907 -0.1934
18906W        W34715   4.089   4.887  14.391  0.0153  0.2080  0.0071
18907W        W34716   3.761   4.916  13.657 -0.1995 -0.2688 -0.0234
18908W        W34717   2.169  13.308   3.724  0.0158 -0.3230 -0.2551
18909W        W34718   7.313   7.851   0.508 -0.0153 -0.0358  0.1120
18910W        W34719   7.107   4.980   0.600  0.1393  0.1302  0.0288
18911W        W34720   1.906   2.364   4.396  0.0918 -0.2757 -0.0252
18912W        W34721  15.034   1.845  13.187 -0.1282 -0.1547  0.0419
18913W        W34722  13.404  13.409  11.437 -0.1633  0.0447  0.1652
18914W        W34723  14.687   1.836   3.157  0.0886 -0.0834  0.3249
18915W        W34724  12.938   2.859  13.959 -0.0415  0.3244  0.2540
18916W        W34725  16.362  11.438   2.161  0.0837 -0.0617 -0.1408
18917W        W34726  14.879  14.941  15.628  0.1666 -0.0924 -0.1775
18918W        W34727   7.687  10.663  14.172 -0.0456 -0.2240  0.1809
18919W        W34728   9.419   7.803   2.430 -0.1218  0.0599 -0.3278
18920W        W34729  13.958  14.716  11.511  0.1749  0.1672 -0.3000
18921W        W34730  11.099   0.130   3.999  0.1192  0.0271 -0.0920
18922W        W34731   4.119  15.590  12.552  0.1594 -0.0475  0.0968
18923W        W34732   3.564  16.615   4.268  0.1267 -0.0604 -0.0811
18924W        W34733   5.082   9.034   1.438 -0.0420 -0.0870 -0.1567
18925W        W34734  15.306  13.786  13.194  0.3561 -0.4388  0.1954
18926W        W34735   9.340   1.455  15.918  0.0910 -0.2221  0.0893
18927W        W34736  12.398   6.836   4.930  0.1199  0.0107  0.0178
18928W        W34737   1.642   6.034   4.734 -0.0859 -0.0779 -0.2568
18929W        W34738   6.740   3.457   0.198  0.1871  0.0070 -0.1176
18930W        W34739   0.499   4.000   1.452 -0.0482 -0.0775 -0.1233
18931W        W34740  15.262   2.396  15.073 -0.1413 -0.3002  0.0558
18932W        W34741   3.155  14.850  13.316 -0.0705 -0.0699 -0.0571
18933W        W34742   0.172   9.320  16.003 -0.0492  0.1667  0.0048
18934W        W34743   6.743   8.472   3.121  0.0282  0.2881 -0.1134
18935W        W34744   0.210   3.840  13.968  0.1181 -0.0849  0.1932
18936W        W34745  18.075  17.653   4.255  0.5004  0.0964 -0.1453
18937W        W34746   2.630  10.614  12.596  0.2797  0.3390 -0.2960
18938W        W34747   9.450  12.871  13.933  0.0358 -0.2107 -0.1816
18939W        W34748  10.643  12.544  15.467  0.1649  0.1319  0.0851
18940W        W34749  15.853  12.043   0.552  0.2236 -0.1636  0.0060
18941W        W34750  12.762   8.578  10.392 -0.1276  0.2439  0.2236
18942W        W34751  15.317   9.504   3.061  0.0294 -0.0775 -0.0624
18943W        W34752  13.056   2.960  11.439 -0.1209  0.0104  0.1426
18944W        W34753   3.255   8.250  12.434 -0.1623  0.1728 -0.3008
18945W        W34754  12.224   7.389   1.158  0.1320  0.4022 -0.0649
18946W        W34755   2.539  11.520   0.177  0.2023 -0.1552  0.0677
18947W        W34756  17.746  11.393  15.920  0.2380  0.0947  0.0841
18948W        W34757  16.656  16.407   3.746  0.1199 -0.0937 -0.0523
18949W        W34758   0.037   6.102   0.106 -0.0730  0.0312 -0.0959
18950W        W34759  15.196   8.317   2.663  0.4204 -0.1396  0.0538
18951W        W34760   2.216  17.921  15.596 -0.1841  0.0225  0.1882
18952W        W34761   3.412  11.234  12.418 -0.0168  0.0508  0.1765
18953W        W34762   4.487   3.812   1.869  0.1153 -0.0786  0.2879
18954W        W34763   2.403  10.858  14.209 -0.1694 -0.3515 -0.2548
18955W        W34764   6.011  13.579  12.312 -0.0928  0.3563  0.0096
18956W        W34765  10.530  11.528   0.295  0.0172 -0.1209 -0.0720
18957W        W34766   0.430   9.570  11.687 -0.0092 -0.2269 -0.1781
18958W        W34767  12.986   0.876  11.098  0.0727 -0.0810 -0.2395
18959W        W34768  13.837   5.474   4.892 -0.4379  0.2421 -0.0353
18960W        W34769  17.591   2.005  11.127 -0.2107 -0.0131 -0.0499
18961W        W34770   4.650   0.261  15.276  0.3195  0.3483 -0.3452
18962W        W34771   9.110   2.337  13.001 -0.1944  0.2487 -0.1148
18963W        W34772  11.546  14.380   0.588  0.1954 -0.0012 -0.0025
18964W        W34773   4.540   1.489   3.433 -0.0809  0.0320 -0.1061
18965W        W34774   4.103  13.963  13.936  0.1732  0.1543  0.0851
18966W        W34775   4.907   0.445  14.866 -0.0387  0.1416 -0.4786
18967W        W34776  17.309  12.563   3.552  0.0497  0.3804 -0.0349
18968W        W34777  11.816  14.726   4.615  0.0473  0.1194 -0.1438
18969W        W34778  13.709   1.358   3.599  0.3112 -0.2805 -0.1117
18970W        W34779   0.720  16.781   4.638  0.0651  0.0884 -0.0717
18971W        W34780  17.207  14.667  14.389  0.1451  0.2642  0.2646
18972W        W34781   9.827  16.057  14.331  0.3776  0.3168  0.0570
18973W        W34782   5.527   7.077  11.961 -0.0171  0.1563 -0.0195
18974W        W34783   6.303   3.637   3.423 -0.3369 -0.1335  0.1930
18975W        W34784   2.751  18.242   0.212 -0.0499  0.0288 -0.1159
18976W        W34785   1.824  18.122  15.275 -0.0292  0.3734 -0.0845
18977W        W34786  12.003   9.087  13.412  0.3064 -0.1700 -0.0921
18978W        W34787  16.035   0.377  14.888  0.0895 -0.1482  0.0919
18979W        W34788  11.606  10.054   1.663 -0.0190 -0.1109 -0.0722
18980W        W34789  11.337  12.163  14.925  0.1001  0.1306 -0.0606
18981W        W34790  14.116  15.463   4.234 -0.2753  0.1110  0.3305
18982W        W34791   4.602   3.012  12.899  0.0579  0.2887 -0.2538
18983W        W34792  15.013   4.087  15.670 -0.1886 -0.1953 -0.1031
18984W        W34793  13.014   2.946   5.614  0.1171  0.0291 -0.1156
18985W        W34794   3.273  14.893   0.972 -0.0966  0.0268 -0.0529
18986W        W34795   4.166  16.702   3.659  0.3033 -0.2052  0.3088
18987W        W34796  14.003   4.833  11.560  0.3998  0.0116  0.0718
18988W        W34797   9.789   3.085  15.695 -0.1164  0.2004  0.2577
18989W        W34798   8.579   9.813   2.342  0.3052 -0.0002 -0.0791
18990W        W34799   5.131  10.544  11.649  0.4726 -0.1866  0.0585
18991W        W34800  15.377  12.661  11.511 -0.2705 -0.2078 -0.0493
18992W        W34801   3.269   2.485   1.395  0.0785 -0.0636 -0.2112
18993W        W34802   4.579  15.580  12.800 -0.0969 -0.0908 -0.1108
18994W        W34803   6.543  10.234  10.956 -0.1139 -0.2195  0.0244
18995W        W34804  13.081   3.118  13.530 -0.4022 -0.0224 -0.0673
18996W        W34805   3.689  15.248  12.488  0.0810  0.2000 -0.1408
18997W        W34806  17.851  11.407  15.080  0.1704 -0.0790  0.1629
18998W        W34807   1.797   0.017  15.800 -0.5821 -0.0106 -0.0458
18999W        W34808   7.311  13.227  12.702  0.0272  0.3194  0.3222
19000W        W34809   9.244  11.810   2.542 -0.2801 -0.0899  0.0685
19001W        W34810   2.080   6.035   4.261  0.0347  0.2939  0.0779
19002W        W34811  15.383   6.967   1.419  0.0497 -0.1629  0.2439
19003W        W34812   8.023  17.674  13.254 -0.0932  0.2846 -0.3322
19004W        W34813  13.971  16.418   3.892  0.2416  0.2279 -0.0040
19005W        W34814  11.274  10.649   2.661 -0.1833  0.1377  0.0541
19006W        W34815   7.690   3.083   0.005 -0.1057 -0.2103  0.3717
19007W        W34816  12.237  13.354   4.543  0.1174 -0.0218 -0.0062
19008W        W34817  14.441   5.876  11.930  0.0878 -0.2081  0.2828
19009W        W34818   5.078   3.968   3.139 -0.1211  0.0050 -0.3513
19010W        W34819  14.273  12.791  10.205  0.1153 -0.0320 -0.0748
19011W        W34820  10.996  15.305   5.818  0.1307  0.2943 -0.0213
19012W        W34821   9.660  10.900  14.236  0.0883 -0.1468  0.3218
19013W        W34822   5.114  14.282   0.597  0.1507  0.0964 -0.2040
19014W        W34823   0.359  11.778   4.623 -0.3746  0.3745 -0.1230
19015W        W34824  16.816   1.899   6.229 -0.0280 -0.4847  0.1292
19016W        W34825   7.237  12.292   1.309 -0.3597 -0.1491  0.0075
19017W        W34826   7.946   4.595   4.033 -0.0102  0.0640  0.4818
19018W        W34827  11.778   5.912   2.630  0.0149  0.0017 -0.0141
19019W        W34828  11.261   9.543  14.524  0.1086  0.2059  0.1086
19020W        W34829   6.195   8.030   5.182  0.3289 -0.0489 -0.0039
19021W        W34830   9.210   4.108  13.886  0.0061 -0.0472 -0.0685
19022W        W34831   0.171  17.586  12.148  0.0395  0.2154  0.1242
19023W        W34832  13.490   0.415   3.106  0.1172  0.2127  0.1400
19024W        W34833   9.219   1.119   2.159  0.0304 -0.1656  0.1057
19025W        W34834  17.573   4.008  14.427 -0.0179 -0.0402 -0.2509
19026W        W34835  14.667   4.005  14.234 -0.3000 -0.3464  0.1486
19027W        W34836   2.377  14.208   1.344  0.0778 -0.2282  0.5422
19028W        W34837   1.761   1.707   1.692  0.0438 -0.1310  0.3334
19029W        W34838   3.214  18.036  12.327 -0.1463 -0.5424  0.0780
19030W        W34839   9.381   9.758  15.703  0.0508  0.0022 -0.1902
19031W        W34840   1.446  14.829  11.320 -0.2382 -0.0488 -0.0268
19032W        W34841  14.532  18.190   5.343 -0.1077  0.2287 -0.0735
19033W        W34842   5.686   9.800   0.600  0.0478 -0.0299  0.2223
19034W        W34843   7.279  17.238   1.362 -0.2930  0.1190  0.1711
19035W        W34844  17.287  12.699  12.462  0.0303  0.1925  0.1591
19036W        W34845  13.724   5.280  14.419 -0.1363  0.1931 -0.0582
19037W        W34846   8.290   9.500  11.632 -0.0578 -0.1864 -0.0766
19038W        W34847  16.521   1.321  11.870 -0.1941  0.1658  0.0702
19039W        W34848  13.121  18.171   2.781  0.4063  0.0024  0.3280
19040W        W34849   7.072  14.436   0.036 -0.0041  0.2843  0.1015
19041W        W34850  12.644  16.683   4.918 -0.1047 -0.1089  0.1306
19042W        W34851   1.773  15.107  12.269 -0.0017  0.0857 -0.0333
19043W        W34852   5.673  17.672   1.788 -0.1437  0.2158 -0.0246
19044W        W34853  16.313   9.769   2.286  0.0226  0.4891  0.1037
19045W        W34854   4.721  17.576   1.625  0.3354 -0.1248  0.1817
19046W        W34855  10.733   2.840   3.572 -0.0303 -0.2898  0.1724
19047W        W34856   3.246   6.511   0.280  0.1033 -0.1437 -0.2072
19048W        W34857   6.131  11.918  15.262  0.0547  0.2501 -0.3272
19049W        W34858   0.427   5.091   3.950 -0.1858 -0.1513 -0.2502
19050W        W34859   2.291   6.242  15.130  0.1021  0.1812  0.2978
19051W        W34860   4.506   1.393  14.760  0.0734 -0.2319  0.1938
19052W        W34861   8.824  16.675  13.290 -0.0648  0.2256 -0.3442
19053W        W34862   0.383   9.484   4.943  0.4409  0.0397 -0.0991
19054W        W34863   3.265   9.059   3.963  0.1712  0.2758 -0.0694
19055W        W34864   8.996  13.632   1.216 -0.3122 -0.3532  0.0482
19056W        W34865  12.586  18.054  14.418  0.2121  0.2954 -0.2392
19057W        W34866   9.270  12.910   4.368 -0.3444  0.0099 -0.2334
19058W        W34867   3.930  11.174   1.696 -0.3285 -0.0938  0.5094
19059W        W34868  13.671  12.728  12.695  0.2084  0.1134  0.1282
19060W        W34869  15.136  16.619   3.713  0.0391  0.0295  0.1353
19061W        W34870   9.788   6.523   1.063  0.1607 -0.4284  0.1898
19062W        W34871  17.424  14.115   3.750  0.0459 -0.1102  0.1140
19063W        W34872  10.171  13.117   1.844 -0.1571 -0.1479  0.2428
19064W        W34873   0.823  12.522   3.900 -0.1729 -0.0564  0.2056
19065W        W34874   0.734   7.982  15.301 -0.0755  0.4165  0.4176
19066W        W34875   8.071   3.124  14.868  0.0427  0.2175  0.1457
19067W        W34876   6.094   5.860   1.373 -0.0082  0.0654 -0.2936
19068W        W34877   8.534  11.000   4.555  0.0290 -0.2153 -0.0267
19069W        W34878   0.400   0.688  15.882  0.2936 -0.2243  0.2113
19070W        W34879  14.131  10.748   0.871 -0.0635 -0.4857 -0.0324
19071W        W34880   7.725   2.717  14.916 -0.1028 -0.0163  0.0391
19072W        W34881   7.817   7.982  10.990  0.2058  0.0868 -0.0672
19073W        W34882   4.904  10.639  14.042 -0.2947 -0.1821  0.2414
19074W        W34883  12.257  12.270   5.291  0.0026 -0.4568  0.6428
19075W        W34884  15.219  11.388   0.538 -0.0757  0.3536 -0.0393
19076W        W34885  14.685   5.193   0.477  0.3712 -0.1178  0.1506
19077W        W34886   4.750  11.182  12.778 -0.2657 -0.0568  0.0400
19078W        W34887   3.332  14.842  14.616 -0.2364 -0.2988  0.2020
19079W        W34888  17.830   5.527   5.009 -0.1956 -0.0213  0.0003
19080W        W34889  13.689  11.742   4.926 -0.1708  0.2494 -0.0280
19081W        W34890  11.016  12.759  14.367 -0.0929 -0.2220 -0.1837
19082W        W34891   1.630  15.871   3.978  0.2119 -0.1169  0.0138
19083W        W34892   7.023   9.925   3.738 -0.4220  0.1011  0.0958
19084W        W34893   8.998   9.025   2.344 -0.0521  0.0932 -0.0490
19085W        W34894   0.014  10.483  11.585  0.0433  0.0181  0.3889
19086W        W34895  13.239  11.922   6.137 -0.2157 -0.1990 -0.2529
19087W        W34896   8.064  12.892   2.661 -0.0349  0.3121 -0.0767
19088W        W34897  15.527   6.446   5.324 -0.3927  0.1437 -0.3852
19089W        W34898   0.377   5.439  13.063 -0.0652 -0.1381  0.1104
19090W        W34899   5.164  13.812  10.632  0.0720 -0.1828 -0.0844
19091W        W34900  15.320   7.657   5.681 -0.0366 -0.0469 -0.3384
19092W        W34901  11.916   3.660   0.732  0.2093 -0.0997  0.1335
19093W        W34902  16.748  13.108   4.170 -0.1667  0.2399 -0.0133
19094W        W34903  12.308   5.789   3.838  0.1702  0.1203 -0.1547
19095W        W34904   0.428  12.928   2.825 -0.0321 -0.2020 -0.1882
19096W        W34905   4.230  14.571   4.438 -0.1397  0.1589  0.2002
19097W        W34906   8.780   7.175  12.800  0.1595 -0.1913  0.0583
19098W        W34907   7.081  12.595  16.035 -0.3856 -0.0727  0.2202
19099W        W34908  11.956   1.564  10.170  0.0288  0.3680 -0.0030
19100W        W34909   4.711  17.350  14.527 -0.1321 -0.1799 -0.1849
19101W        W34910  16.007  15.207  11.340  0.2854  0.0095 -0.2379
19102W        W34911  16.822  16.312   1.675  0.0355 -0.0240 -0.1577
19103W        W34912  14.158   6.352   4.998  0.3092  0.0134  0.0245
19104W        W34913  17.113   9.858   5.331 -0.1544  0.1865  0.0910
19105W        W34914  11.097   9.725  14.997  0.2721  0.3244 -0.2195
19106W        W34915  14.516   7.682   1.943  0.0967  0.1480 -0.0813
19107W        W34916   5.423   2.994   5.182  0.2147  0.2156  0.0606
19108W        W34917  10.086   0.002  12.621  0.3135 -0.0661  0.0469
19109W        W34918  13.028   1.524   0.600  0.1251 -0.0290 -0.1152
19110W        W34919   4.272   7.318  14.005  0.4498  0.0828 -0.1252
19111W        W34920   9.826  13.487   4.514  0.0840 -0.0859 -0.1329
19112W        W34921   5.709  17.428  14.492  0.1182 -0.1276  0.2357
19113W        W34922   4.178   5.273  13.344 -0.1622  0.0308 -0.0438
19114W        W34923   0.209  10.541   3.445  0.3209 -0.1431  0.1038
19115W        W34924  17.071   0.195   1.336 -0.2236 -0.2032  0.3311
19116W        W34925   1.118   5.092   0.090  0.1076  0.1974  0.1008
19117W        W34926  10.379   5.707  11.008 -0.1763  0.2490 -0.2298
19118W        W34927  10.811   7.419   1.679 -0.0506  0.2819  0.0956
19119W        W34928  13.493   5.031  15.143 -0.1458 -0.1545  0.1866
19120W        W34929   6.348   2.505   2.575  0.1396  0.0817 -0.2204
19121W        W34930  11.142   5.953  15.397 -0.0259 -0.2410 -0.2284
19122W        W34931   8.545   7.183   3.728  0.0398 -0.1857  0.2445
19123W        W34932   4.886  12.758  11.715  0.1283  0.0245  0.0502
19124W        W34933  15.097   0.013   3.199  0.3070  0.1861  0.0519
19125W        W34934  12.262  12.782  13.050  0.0405  0.3396 -0.3492
19126W        W34935   2.555   3.981  11.017 -0.1360 -0.2457 -0.0696
19127W        W34936   4.635   3.312  13.952  0.0264 -0.2258 -0.1494
19128W        W34937   2.500   2.885   0.968 -0.0106 -0.2192 -0.0203
19129W        W34938   4.079   3.529   1.917  0.1668 -0.0648  0.1980
19130W        W34939   3.543   4.696   0.287 -0.0647 -0.1779 -0.0110
19131W        W34940   9.289  17.795  13.898 -0.3040 -0.0749  0.2387
19132W        W34941  11.001  11.232  14.043 -0.2184  0.1399  0.2076
19133W        W34942   3.142   6.650   1.674 -0.1906  0.0774 -0.2507
19134W        W34943   3.361  16.550   0.682  0.2262  0.3213  0.1311
19135W        W34944  12.954   9.123  12.784  0.1206 -0.0372  0.2960
19136W        W34945   3.219  10.318  14.588 -0.3030 -0.0754 -0.0079
19137W        W34946  17.543   6.881  11.515  0.0699 -0.2002 -0.0072
19138W        W34947   4.358  12.413   0.454  0.2121  0.0364 -0.0769
19139W        W34948  17.757  10.604   3.515 -0.1726  0.0062 -0.2139
19140W        W34949  16.964  13.927   5.174 -0.0454 -0.3535  0.1826
19141W        W34950  17.022  10.794   5.995  0.0472  0.2922 -0.2675
19142W        W34951  12.514  13.202  11.204  0.2777  0.4102 -0.1069
19143W        W34952   2.361   1.102   3.010 -0.2658 -0.1526  0.1683
19144W        W34953  13.287   7.990   4.550 -0.1311 -0.0714 -0.0710
19145W        W34954   4.359  13.230   3.204 -0.0577 -0.0730  0.1655
19146W        W34955   0.836   7.934   4.298 -0.1736 -0.0108 -0.0605
19147W        W34956  10.371   2.023   1.047  0.0212  0.0444 -0.1757
19148W        W34957  17.085   3.954  14.196  0.1152 -0.2288 -0.2427
19149W        W34958   5.230   8.157  15.489  0.0426  0.0704  0.0175
19150W        W34959   3.314  16.591  12.221  0.0502  0.0455  0.1068
19151W        W34960   4.992   8.477   5.681  0.0378 -0.2326  0.1263
19152W        W34961   7.440  12.282  15.815 -0.1032  0.1799 -0.0761
19153W        W34962  14.559   6.990  10.261 -0.1566 -0.0851  0.1102
19154W        W34963   1.313  11.916  13.633  0.0202 -0.0285 -0.1758
19155W        W34964  18.015  15.029  15.856 -0.0365  0.1119  0.0704
19156W        W34965  14.577  14.700  15.185  0.0190  0.0728 -0.1791
19157W        W34966   1.639   6.658   4.828  0.0264  0.0128  0.2870
19158W        W34967   4.809  12.606   4.387 -0.1889 -0.0272 -0.1342
19159W        W34968  11.665   6.035  14.562  0.0964  0.1001  0.0852
19160W        W34969  17.226   5.217  14.437  0.0482 -0.1120  0.0634
19161W        W34970  15.183   6.214   1.619  0.1602  0.1900  0.0428
19162W        W34971   0.818  13.489  12.055 -0.0506 -0.6563  0.0381
19163W        W34972  15.233   1.261   5.915  0.1815  0.2755  0.2143
19164W        W34973   4.630   2.366  13.866 -0.3372 -0.2446  0.1636
19165W        W34974  17.295   2.795  15.614  0.1316 -0.1060 -0.0833
19166W        W34975  13.458   6.459   0.909 -0.0768 -0.0714  0.0853
19167W        W34976   3.504  11.267  14.595 -0.0614  0.0431 -0.1886
19168W        W34977   6.727   9.561   2.729 -0.2176  0.0300 -0.1153
19169W        W34978   6.183   7.604   2.244  0.2810 -0.1925  0.1528
19170W        W34979  16.086  15.526  15.678  0.1973  0.0549 -0.2151
19171W        W34980   7.509  18.179  14.023  0.0852 -0.0625  0.0061
19172W        W34981  11.823  12.444  11.090  0.3596 -0.3196 -0.1626
19173W        W34982   1.547  11.877   0.701  0.5204 -0.1653  0.1408
19174W        W34983   7.785   1.128  15.241  0.0235 -0.0187 -0.3315
19175W        W34984   8.977  14.815   4.365 -0.1891  0.2483  0.2729
19176W        W34985   9.604  12.026   5.041  0.1337 -0.0409  0.0217
19177W        W34986  13.349  17.806  11.162  0.0069  0.1270 -0.2534
19178W        W34987   2.566   1.282  13.319 -0.0607  0.0886  0.0511
19179W        W34988   2.341  12.710  13.462 -0.0803 -0.2228 -0.0529
19180W        W34989   3.214   5.396  12.426 -0.1661  0.0075  0.3266
19181W        W34990  12.662  13.399  15.454  0.0790  0.0469 -0.0240
19182W        W34991   9.134   2.133   5.595 -0.0082  0.1276 -0.1314
19183W        W34992  10.268   0.454   4.914 -0.0174 -0.0499  0.0145
19184W        W34993  14.629   0.784  12.371 -0.1978 -0.3444  0.1342
19185W        W34994   5.494  14.354  13.674  0.2497  0.2866  0.0670
19186W        W34995   0.119   6.168  12.624  0.1652 -0.0542  0.1741
19187W        W34996  14.136   4.251  13.550 -0.1658 -0.0514 -0.0313
19188W        W34997  10.393  17.432   5.802 -0.4387 -0.1051 -0.0862
19189W        W34998   2.608  17.597  13.523  0.2772  0.1026  0.1004
19190W        W34999  11.725   7.601  13.656 -0.1974  0.0061  0.0129
19191W        W35000  16.711  11.246  11.304  0.1506 -0.0237 -0.3446
19192W        W35001   5.049  11.286  13.383 -0.3987 -0.0222  0.0353
19193W        W35002   5.658  17.859  12.624 -0.0945 -0.2898  0.2259
19194W        W35003   5.848   5.683  12.505 -0.0126  0.0205 -0.0552
19195W        W35004  10.276   2.229   2.829 -0.0318  0.1473 -0.3023
19196W        W35005  10.373  10.041   1.202  0.0490 -0.1110 -0.0955
19197W        W35006   4.068   7.245   1.874 -0.2200 -0.0766 -0.0652
19198W        W35007   8.887   0.053   4.125  0.0155  0.2009 -0.1681
19199W        W35008   1.533   5.365   4.099 -0.2970  0.0569 -0.0500
19200W        W35009  17.217   2.869   0.030 -0.1111  0.1824  0.0586
19201W        W35010  18.214   3.769   4.470 -0.0365 -0.2634  0.3334
19202W        W35011   6.990   8.292   5.185  0.0583 -0.0033 -0.0302
19203W        W35012   3.750  18.108   1.650 -0.0933  0.5154  0.1185
19204W        W35013  18.060  16.797   4.313  0.4292 -0.1822 -0.1418
19205W        W35014  13.820   3.654  13.346 -0.0121 -0.0207  0.0620
19206W        W35015  17.961   9.504   0.050  0.2206  0.1647 -0.0618
19207W        W35016  16.590   4.106   0.761  0.1842 -0.1887 -0.1026
19208W        W35017  16.584  11.179  13.001 -0.0782 -0.2323 -0.0043
19209W        W35018   6.363   3.814  12.704 -0.1752  0.0076 -0.0201
19210W        W35019   0.537   0.874  11.902 -0.0984 -0.4271  0.0124
19211W        W35020   3.668  17.688   2.010  0.0930  0.3365 -0.0468
19212W        W35021  11.746  14.192   5.632 -0.3517 -0.2334  0.0290
19213W        W35022   9.657  15.548   1.052 -0.3709 -0.1929 -0.0335
19214W        W35023   3.933  14.603  15.040 -0.1310  0.0729  0.1238
19215W        W35024   8.065  14.068   0.855 -0.2464  0.0546 -0.1295
19216W        W35025   4.242   7.528   0.005 -0.2254  0.0431  0.2389
19217W        W35026  16.207  15.875   1.992 -0.1384 -0.1689 -0.2515
19218W        W35027  14.577   4.080   4.014 -0.1167 -0.0567  0.0933
19219W        W35028  11.209   3.764  10.451  0.1660 -0.3979 -0.0490
19220W        W35029  13.630  14.658  11.125  0.2945  0.0778  0.0930
19221W        W35030   8.549   0.526  11.314 -0.3042 -0.1531  0.1645
19222W        W35031   3.122  12.509   2.876 -0.0623  0.0375 -0.0006
19223W        W35032  14.155   1.844  14.880  0.1791  0.1497  0.0812
19224W        W35033   1.241  12.474  12.063 -0.1030 -0.2642 -0.0171
19225W        W35034  11.067  17.684  13.841 -0.1973 -0.0314 -0.1501
19226W        W35035  14.566   4.061   5.262 -0.1085  0.1094 -0.1725
19227W        W35036   1.120  10.727   3.175 -0.1369  0.1672  0.0277
19228W        W35037  16.517   6.329  13.006  0.3200  0.0764  0.3039
19229W        W35038   2.798   6.220   1.370 -0.2693 -0.2362 -0.1289
19230W        W35039   7.205  15.101  14.224 -0.2283  0.4606  0.0197
19231W        W35040  12.620  16.857  12.552 -0.0677 -0.0739  0.1621
19232W        W35041   7.680  13.949   3.494  0.3306 -0.1114 -0.0250
19233W        W35042   4.744  15.236  14.724 -0.0392 -0.0635  0.1865
19234W        W35043  17.113  17.726  13.176  0.0298  0.1147  0.1856
19235W        W35044  14.822  12.198  14.877  0.1824  0.0120  0.1233
19236W        W35045   9.201   7.687  11.396  0.2394  0.2658 -0.1800
19237W        W35046  13.537  12.894  14.992 -0.2002  0.1330 -0.1043
19238W        W35047   9.509  17.638   5.516 -0.2655 -0.2150  0.2017
19239W        W35048  16.210   0.610  14.018  0.0390  0.2768  0.1128
19240W        W35049  13.397   6.457  13.905  0.0096  0.1553 -0.1157
19241W        W35050   0.362   7.049  12.627 -0.0366 -0.2662 -0.3086
19242W        W35051   7.935  15.704  14.377  0.0567 -0.0435  0.0812
19243W        W35052  16.555   7.162   4.151 -0.1530  0.1971 -0.2296
19244W        W35053  15.518   4.898   2.064 -0.0800 -0.1766  0.1251
19245W        W35054  12.526   7.656  11.343  0.1042 -0.0836  0.0525
19246W        W35055   4.071   2.885  15.258 -0.0854  0.1252 -0.0637
19247W        W35056  15.973   1.024   4.231 -0.2738 -0.1561 -0.1559
19248W        W35057   1.576  12.178  14.049  0.0501  0.1178 -0.1013
19249W        W35058  15.557  17.436   6.156  0.1055  0.0151 -0.2292
19250W        W35059   6.436   6.918  12.506  0.1309 -0.2318  0.2643
19251W        W35060   5.327  13.823  11.110  0.0774 -0.2369 -0.0239
19252W        W35061   5.296   6.850   0.749 -0.0230 -0.0233  0.4236
19253W        W35062  15.013  14.425  14.238 -0.2158  0.0998  0.3662
19254W        W35063  12.144  10.082   1.809  0.1100  0.1495  0.1652
19255W        W35064   9.979   0.495   1.927  0.1152  0.1259 -0.1258
19256W        W35065   4.203   8.910  11.485  0.4136  0.1987 -0.0060
19257W        W35066   2.139   5.991  15.665 -0.0225 -0.0512  0.2567
19258W        W35067  15.813  13.794  13.214  0.0032  0.2524  0.0802
19259W        W35068   1.969  16.704   4.940 -0.2397  0.0628  0.0460
19260W        W35069  10.884   3.210  15.400  0.0708 -0.0214 -0.2633
19261W        W35070   7.153  17.332   3.747  0.1997 -0.0131  0.2861
19262W        W35071  12.495   5.761  12.940 -0.1488 -0.1194 -0.3539
19263W        W35072   0.083  17.299   3.936 -0.2063  0.1804 -0.2873
19264W        W35073   5.179   2.546   5.839  0.2074  0.0534  0.2928
19265W        W35074  14.271   6.195   3.939 -0.0215  0.1983 -0.4047
19266W        W35075  16.415  12.689   4.128  0.2017  0.3686 -0.1023
19267W        W35076  11.935   7.361   4.138 -0.1675  0.0420 -0.0075
19268W        W35077  11.363  16.284   2.353  0.2592  0.2802  0.0782
19269W        W35078   2.205   3.358  12.217 -0.0183 -0.0525 -0.0290
19270W        W35079   2.454  18.010   2.523  0.1456  0.1404 -0.2211
19271W        W35080   0.598   6.253  13.821 -0.1961  0.0067  0.1831
19272W        W35081   1.929   1.635   3.878  0.3059 -0.1988 -0.0343
19273W        W35082   3.448   1.700  11.782  0.1095 -0.1270  0.1223
19274W        W35083  10.856   2.236  15.877  0.0343  0.3641 -0.5419
19275W        W35084   5.124   3.738  14.529  0.0998 -0.0905 -0.2673
19276W        W35085   4.114  18.186  12.299  0.1549  0.1240 -0.0729
19277W        W35086   5.486  15.692  13.253  0.1415  0.0240  0.1285
19278W        W35087   1.627   1.281  11.109  0.2483  0.2204 -0.2298
19279W        W35088   2.685   2.794   5.800  0.0306  0.0895 -0.1798
19280W        W35089  12.703  15.036   4.914 -0.5027 -0.1256  0.3354
19281W        W35090  18.211  10.960   3.357 -0.0286  0.2720  0.0122
19282W        W35091  16.676  17.909  11.262  0.0993 -0.1072  0.0941
19283W        W35092   4.885   8.171   2.139  0.4395 -0.2481 -0.0526
19284W        W35093  15.664  13.037   0.618 -0.2357  0.3063 -0.1929
19285W        W35094   9.557  16.903  14.976 -0.0366  0.0789 -0.1386
19286W        W35095  16.651  18.214   4.899  0.0404  0.1205  0.0081
19287W        W35096   1.119  13.197  12.344  0.2246 -0.0163 -0.0119
19288W        W35097   5.504   4.439  14.144 -0.2001 -0.1016  0.1380
19289W        W35098   5.031   0.480   3.581  0.1728 -0.0676  0.2263
19290W        W35099   6.581  13.794  13.085  0.0839  0.0296  0.0704
19291W        W35100   4.653  12.476  14.218  0.0315 -0.0529 -0.0959
19292W        W35101  17.796   3.013   3.074  0.2311  0.1744  0.2432
19293W        W35102  17.800  14.991   5.355 -0.0629  0.0750 -0.0664
19294W        W35103   8.015  14.124   0.014  0.1885  0.2400 -0.0618
19295W        W35104   6.496  14.518   3.125  0.1273 -0.3109  0.0618
19296W        W35105   5.403   3.343  15.933 -0.0408 -0.0056  0.0394
19297W        W35106  16.474  16.866  13.030  0.0102  0.3533 -0.0358
19298W        W35107   6.407   1.273  11.542 -0.2235 -0.0954  0.4589
19299W        W35108  17.894  15.134  12.488  0.1863  0.1424  0.3569
19300W        W35109  12.498   1.208   4.353  0.1053 -0.0077  0.0777
19301W        W35110  15.791  12.920   2.440  0.3046 -0.3262 -0.0157
19302W        W35111   8.239   1.846   4.749  0.4615  0.0368  0.1714
19303W        W35112   5.061   0.544   1.347  0.1051  0.0260  0.0892
19304W        W35113   3.394  11.251   4.390  0.2970  0.0833 -0.1873
19305W        W35114  17.323   2.928  14.468 -0.1086 -0.0940 -0.0411
19306W        W35115  12.242   9.787   1.250  0.1753 -0.2505 -0.0875
19307W        W35116   6.586   5.713  12.086  0.0722  0.3988 -0.0895
19308W        W35117  13.390   2.821  13.220 -0.0203 -0.1261 -0.3262
19309W        W35118  12.324   1.283   4.859  0.0859 -0.1323 -0.0352
19310W        W35119   9.182  15.031   3.339  0.3000  0.1449 -0.1117
19311W        W35120   6.664   5.125   0.672  0.0754  0.0548 -0.0196
19312W        W35121   8.769   2.311   2.012 -0.0209 -0.0445 -0.3443
19313W        W35122   9.337  10.040  12.422  0.1615 -0.1022 -0.1054
19314W        W35123   7.964  16.097   5.318  0.1227  0.0518  0.0699
19315W        W35124  16.694   0.255   1.565  0.1249  0.2799  0.0385
19316W        W35125   9.615  16.088   0.108 -0.2558 -0.0054 -0.3100
19317W        W35126  12.340   1.481   1.251  0.2624  0.0959  0.1008
19318W        W35127   3.824  11.373  14.191  0.0694  0.0102  0.0167
19319W        W35128   3.903  10.981  14.753 -0.0288  0.1211  0.0557
19320W        W35129   7.111  14.488  14.379  0.0769 -0.0050 -0.0735
19321W        W35130   3.249   7.868   3.989 -0.0007  0.1323  0.0634
19322W        W35131   6.965   5.516   2.781 -0.2035  0.0819 -0.1708
19323W        W35132  12.237  12.195  13.873  0.1390  0.1350 -0.2188
19324W        W35133  17.790   6.363   3.809  0.0004 -0.0874 -0.1093
19325W        W35134   6.347  11.878   2.845  0.1289  0.3226  0.1033
19326W        W35135  10.463   2.101  13.627 -0.2567  0.0472  0.2181
19327W        W35136  14.636  16.497   6.396 -0.0707  0.1001  0.1776
19328W        W35137   9.830  18.244  11.277 -0.3076 -0.0505 -0.2074
19329W        W35138   7.193   9.841  11.209  0.3558 -0.0593 -0.1271
19330W        W35139   0.396   0.269   0.140  0.0114  0.0614  0.1979
19331W        W35140   1.161   3.356   5.713 -0.0711 -0.0482 -0.0966
19332W        W35141  16.357   8.039   5.692 -0.1275 -0.0326  0.0149
19333W        W35142   3.433   6.635   3.334 -0.1237  0.1035  0.4204
19334W        W35143   0.698  14.860   1.044 -0.1410  0.1322 -0.0085
19335W        W35144   3.454  17.449  13.920  0.0051 -0.0269  0.4420
19336W        W35145  12.345  11.255  14.436 -0.2813  0.1962  0.0083
19337W        W35146   4.106  16.412   9.963  0.1994  0.1239 -0.3707
19338W        W35147  10.483   3.350   1.439  0.0949  0.1671  0.0520
19339W        W35148   8.106   4.930  11.005 -0.1856  0.0785  0.1725
19340W        W35149  14.619   1.659   2.213 -0.0648  0.0779  0.2959
19341W        W35150  18.058  17.153  11.486  0.3626 -0.0552  0.0622
19342W        W35151   6.827  12.876  14.935 -0.2088  0.2104 -0.0539
19343W        W35152   7.930  14.256  15.490 -0.0145  0.0212  0.2871
19344W        W35153   0.431   6.344  11.619 -0.0592  0.0004  0.0807
19345W        W35154   4.026   9.211  12.123 -0.2380  0.2161 -0.1609
19346W        W35155  17.947   9.988   0.143 -0.6299  0.2539  0.0046
19347W        W35156   5.160   6.941   4.407  0.3142 -0.0414 -0.1798
19348W        W35157  17.120  16.410   3.600  0.2785  0.2117 -0.0219
19349W        W35158   3.768  17.130  13.725 -0.1819 -0.1605 -0.4647
19350W        W35159   0.983   0.648   3.829 -0.1672  0.3079 -0.0775
19351W        W35160   0.389  10.577   0.253 -0.0678 -0.0683 -0.0806
19352W        W35161   4.300   5.163   3.727  0.0734 -0.0288 -0.1415
19353W        W35162   1.250   5.855  11.524 -0.4667 -0.2437  0.1971
19354W        W35163  10.481  15.131   5.834 -0.0866 -0.1863  0.1808
19355W        W35164   4.223  17.742   4.165 -0.2626 -0.1349 -0.1543
19356W        W35165   8.924   7.884   4.247 -0.0858 -0.0070 -0.2726
19357W        W35166  15.606  11.517  13.890  0.1934  0.2370 -0.0973
19358W        W35167   3.668   8.676   3.696  0.0750 -0.1133 -0.0953
19359W        W35168   3.063   9.045   0.522  0.3584 -0.2396  0.1756
19360W        W35169  16.410   8.157  11.044 -0.2522 -0.1304  0.0534
19361W        W35170   9.894  11.241  11.921  0.1983 -0.2228  0.0394
19362W        W35171  15.001   2.105   1.000 -0.3601 -0.2676 -0.2961
19363W        W35172  13.667   4.050  14.299 -0.1055  0.1383  0.1569
19364W        W35173  11.832   5.807   6.597 -0.2430  0.4470 -0.0788
19365W        W35174  17.462   0.532   3.841 -0.0458 -0.2911  0.3812
19366W        W35175  13.289  10.436   0.792 -0.1452  0.1213 -0.3988
19367W        W35176   2.789   3.888  12.985  0.0101  0.1915 -0.1707
19368W        W35177   2.926  13.587  14.179 -0.0655 -0.2854  0.0542
19369W        W35178  16.873   6.690  12.748 -0.2423 -0.3382 -0.2850
19370W        W35179   1.463   7.504   1.100  0.2339  0.0720 -0.1045
19371W        W35180   5.102  10.705   3.084 -0.0790  0.1438 -0.0343
19372W        W35181  16.264  14.331   2.243 -0.0870  0.1438  0.1442
19373W        W35182   6.635  11.673   2.125 -0.0516  0.2777 -0.1198
19374W        W35183   6.148   2.509   2.058  0.0418  0.1032 -0.2352
19375W        W35184  15.231  18.112   2.294  0.1637  0.0112  0.2225
19376W        W35185  17.579   3.667   0.903  0.0845  0.2485 -0.0738
19377W        W35186  18.100  12.592  12.518 -0.0774  0.0650 -0.0329
19378W        W35187  11.466  14.474  13.971  0.0021 -0.1985 -0.1715
19379W        W35188  18.165  11.769  16.000  0.2408  0.4196 -0.0747
19380W        W35189   3.685  17.656   1.487 -0.5301 -0.0161 -0.0095
19381W        W35190   8.297  16.597   2.439  0.0385 -0.2556 -0.1117
19382W        W35191   3.103   0.903   1.910 -0.0508  0.0585 -0.1569
19383W        W35192   9.072  16.139  11.898  0.1723  0.0122  0.0916
19384W        W35193   8.470  12.634  14.425 -0.2762  0.0995  0.0099
19385W        W35194  14.397  15.374  15.097  0.0629 -0.2119 -0.2719
19386W        W35195   1.838   3.907  14.372 -0.0571 -0.0501 -0.1839
19387W        W35196   8.205   8.311   1.125 -0.2896  0.2289  0.0846
19388W        W35197   2.053  16.425  14.577 -0.0739 -0.3984  0.1507
19389W        W35198   7.389   7.950  15.899  0.0484 -0.1030 -0.3636
19390W        W35199   8.297   3.440   1.002  0.1438  0.0770  0.1070
19391W        W35200   0.432   5.798  11.867  0.2038  0.0754 -0.0565
19392W        W35201  11.531  14.402   1.133 -0.3519 -0.3253 -0.1674
19393W        W35202   9.322   7.955  11.819  0.0295 -0.1227 -0.3467
19394W        W35203   1.386   9.962   3.898  0.2323 -0.0354  0.2363
19395W        W35204   4.490  13.067  11.708 -0.1483 -0.1675  0.1693
19396W        W35205  12.986   0.533   0.962  0.0929 -0.3239 -0.0688
19397W        W35206  17.237   9.305  12.352  0.0146 -0.0357 -0.0363
19398W        W35207   1.338   1.631   3.899  0.4074  0.1144  0.0278
19399W        W35208   6.111  11.179  11.745 -0.4043  0.2983  0.0435
19400W        W35209   3.768   2.838   4.230  0.1047 -0.0144 -0.3167
19401W        W35210   3.339   7.805  15.431 -0.0545  0.2898  0.0671
19402W        W35211  14.785   3.816  12.172 -0.0818  0.1723  0.1497
19403W        W35212   3.752   6.280   3.190  0.0693 -0.0501  0.1898
19404W        W35213  15.896  13.540   0.624 -0.3509  0.0908 -0.3042
19405W        W35214   4.529  15.155  15.190  0.0963 -0.3938  0.1773
19406W        W35215   6.730  15.726  13.002 -0.0841 -0.0290 -0.3283
19407W        W35216  16.148   9.193  11.189  0.0700 -0.1642  0.0376
19408W        W35217   7.289   3.752  15.648 -0.0220  0.0270 -0.2019
19409W        W35218  17.088  14.808  13.115  0.1567 -0.0776 -0.2850
19410W        W35219   1.991  12.458   5.490 -0.1777 -0.0745 -0.2334
19411W        W35220   8.180  10.070   3.731  0.0834 -0.2454 -0.0597
19412W        W35221   8.506   7.828  12.803 -0.4596 -0.2219 -0.1366
19413W        W35222   5.238   9.016  15.346  0.0177  0.1440  0.3029
19414W        W35223   8.308   5.297   4.455  0.0603 -0.1525  0.0348
19415W        W35224   0.020  11.266  15.888  0.0976 -0.1015 -0.2505
19416W        W35225  15.894   4.845   0.434 -0.0016 -0.0598 -0.1407
19417W        W35226  12.289  17.775  15.289  0.0083  0.4214  0.0031
19418W        W35227   7.585  12.807  16.023  0.1467 -0.1533  0.1362
19419W        W35228  10.948   4.570  13.724 -0.0399 -0.1469  0.0382
19420W        W35229   1.648   6.423  12.061 -0.0171  0.1760  0.1227
19421W        W35230   7.905   5.209   2.583  0.2060  0.0096 -0.1175
19422W        W35231  12.790  16.586  10.029 -0.1731 -0.2034  0.1500
19423W        W35232  15.416  13.062   4.299  0.0162  0.1970 -0.3954
19424W        W35233   4.689  18.139   1.855  0.0584  0.0361 -0.1595
19425W        W35234   1.162  16.274   1.041 -0.0373  0.0544 -0.0370
19426W        W35235   1.269  11.718   3.507 -0.0886 -0.0165 -0.0126
19427W        W35236   0.048   0.992  14.536 -0.0058 -0.2932 -0.1560
19428W        W35237   9.148  11.749  12.488  0.0502 -0.1870 -0.0681
19429W        W35238  13.707  12.846   0.271 -0.0908  0.0113 -0.1196
19430W        W35239  15.281  17.365  12.993 -0.1788 -0.0948  0.2013
19431W        W35240  18.013   1.453   2.160 -0.1875  0.2464 -0.1327
19432W        W35241  10.431  12.816   4.859  0.2395 -0.3551  0.2488
19433W        W35242   7.555   0.416  15.734  0.0417 -0.0243  0.0257
19434W        W35243   4.738  10.122   4.407 -0.1713 -0.0163 -0.0627
19435W        W35244  13.936   6.762  15.535 -0.0398  0.4412 -0.0288
19436W        W35245  17.378   3.680   4.122  0.2955 -0.0643 -0.2526
19437W        W35246  12.815   1.128   2.505  0.0371  0.1790 -0.0287
19438W        W35247  16.826  16.371  13.043  0.0130  0.0119 -0.0927
19439W        W35248  16.382   4.693  14.459 -0.0265  0.0890  0.1905
19440W        W35249   5.396   5.614   0.174 -0.2967 -0.3933  0.0285
19441W        W35250   7.960  12.691  11.545 -0.1108  0.0668  0.0382
19442W        W35251   5.368  12.918   6.137 -0.2931  0.1526 -0.3937
19443W        W35252  10.862   8.050  13.353 -0.0834 -0.1516 -0.0354
19444W        W35253  15.807  16.697   0.700  0.2545  0.1330  0.1475
19445W        W35254   0.706   3.334   0.788  0.1608  0.0171  0.0163
19446W        W35255  17.464  13.226  15.356 -0.3106  0.0799  0.0051
19447W        W35256   7.363   4.264  12.982 -0.0181  0.0571 -0.0924
19448W        W35257   2.275  15.206  14.681 -0.1880 -0.1329 -0.0027
19449W        W35258  16.032  13.320   4.340 -0.2704  0.0531  0.0631
19450W        W35259  10.598  11.474   5.386  0.0130 -0.1274 -0.1377
19451W        W35260  12.056   2.846  12.996 -0.0593  0.1671  0.1580
19452W        W35261   5.956   1.457   0.548  0.2076  0.1806  0.0941
19453W        W35262  17.160   2.128   4.811  0.0569  0.2982 -0.2972
19454W        W35263   9.603  13.983   2.653  0.4221  0.1280 -0.2164
19455W        W35264  15.454  16.757  12.160  0.0682  0.0399 -0.2436
19456W        W35265  12.214  12.902  14.805  0.0058 -0.3033  0.0951
19457W        W35266  12.454   9.753   2.097  0.0008  0.1467  0.1662
19458W        W35267   4.722  15.942   5.087  0.0363  0.0718  0.0049
19459W        W35268   1.723  13.157   3.516  0.0577 -0.0520 -0.3894
19460W        W35269   8.593   8.669  12.485 -0.2057 -0.1392  0.0262
19461W        W35270   4.059   6.958  12.812  0.1285 -0.0186 -0.0131
19462W        W35271  13.497   3.280  15.974 -0.0843 -0.4310  0.1668
19463W        W35272   0.899   3.931  10.127  0.1099  0.0549  0.1712
19464W        W35273  11.174  10.813   3.200 -0.2172 -0.1621 -0.0037
19465W        W35274   6.147   8.774  12.880  0.0107  0.0141  0.0886
19466W        W35275  11.868  16.185   3.801 -0.0108 -0.0795  0.0346
19467W        W35276   5.794   9.681   9.968 -0.1401  0.2815  0.2580
19468W        W35277  10.872   7.012   3.279 -0.0993  0.0970  0.0699
19469W        W35278  18.171  11.286  12.178  0.3169 -0.0957 -0.0043
19470W        W35279   7.025  16.972  10.607 -0.0977  0.0663 -0.1282
19471W        W35280  12.278  17.201   5.237 -0.1521 -0.1711 -0.0474
19472W        W35281  17.443  10.601   2.412  0.2134  0.2672 -0.2025
19473W        W35282   7.287  16.159   0.775 -0.2188 -0.4953  0.0552
19474W        W35283  17.024   3.835  12.827 -0.0168 -0.0211  0.1240
19475W        W35284  13.744  15.243   0.336 -0.2303  0.0331  0.2595
19476W        W35285   8.314  14.131  15.089  0.3897  0.0544  0.0867
19477W        W35286   9.703   1.856  12.050 -0.2296 -0.1156 -0.0572
19478W        W35287   3.106   4.036  15.473  0.0469 -0.2743 -0.0492
19479W        W35288  13.029  11.032   2.350 -0.3167 -0.1518  0.1799
19480W        W35289   1.027   3.162  12.511 -0.1672 -0.1068  0.0039
19481W        W35290  17.454   7.486   2.284  0.1490  0.1400  0.2536
19482W        W35291   4.413   9.006  13.039 -0.4426  0.0607 -0.0453
19483W        W35292  13.399   1.166  12.214 -0.0209 -0.1224 -0.2907
19484W        W35293  14.729  15.108   0.967  0.1256 -0.3356  0.0448
19485W        W35294  17.013   4.067   4.901  0.0327  0.0814 -0.0763
19486W        W35295  15.998   0.725  15.279 -0.0034 -0.3850 -0.2271
19487W        W35296  13.985   1.523   5.361 -0.0027  0.0269 -0.2360
19488W        W35297  17.742  14.394   5.063  0.0403 -0.0292 -0.0814
19489W        W35298  11.852   3.261  12.780 -0.2081  0.1296  0.0574
19490W        W35299   8.453   6.097  12.466  0.2542  0.2225  0.2992
19491W        W35300  18.106  15.205  14.590 -0.1855  0.0266 -0.1982
19492W        W35301   1.060   7.874   0.856  0.0932  0.1225  0.0208
19493W        W35302   3.837  13.505  12.188 -0.1716  0.2964 -0.1666
19494W        W35303   1.231   1.387  12.164  0.3540  0.1328 -0.1543
19495W        W35304  15.556  10.445  12.546 -0.1679 -0.0577 -0.3681
19496W        W35305   2.255   2.468  10.257  0.0343 -0.0499  0.0920
19497W        W35306   1.385   8.593   1.990  0.0476 -0.0040  0.0303
19498W        W35307   8.085  13.712  14.747 -0.1521 -0.0531  0.0551
19499W        W35308  17.747  17.322   3.083  0.0155  0.3517 -0.0756
19500W        W35309   7.158  11.057   1.306  0.1413 -0.0878 -0.0666
19501W        W35310   2.802   3.467  13.310 -0.1070 -0.1130  0.0035
19502W        W35311   6.622   5.079  15.999  0.0554  0.0257 -0.1100
19503W        W35312   8.500   6.014  11.229  0.2728 -0.3176  0.1278
19504W        W35313  18.018  10.610  14.723  0.1480 -0.3113 -0.0600
19505W        W35314  10.217   3.529  11.724  0.0564 -0.3485  0.0543
19506W        W35315   1.230  14.163   4.922  0.1648  0.0548 -0.2713
19507W        W35316  15.323   7.403  14.240 -0.0087  0.3919 -0.3699
19508W        W35317   8.982   7.779   1.877 -0.1276  0.0142  0.1122
19509W        W35318   9.457  16.733  12.085  0.2514 -0.1850  0.1817
19510W        W35319  15.098   3.086  13.173 -0.1878  0.0677  0.1483
19511W        W35320  12.789   1.334  12.353  0.3199 -0.1334  0.0669
19512W        W35321  12.457   0.112   5.747 -0.0821  0.2243  0.6716
19513W        W35322  14.321   7.500   3.818  0.0190 -0.1142 -0.1430
19514W        W35323  18.214  15.614   3.060 -0.0748  0.1041  0.1415
19515W        W35324   1.490  17.710   4.935 -0.1724  0.0332  0.0651
19516W        W35325   2.351  15.494  10.962  0.0047 -0.0762 -0.0054
19517W        W35326   6.584   2.101   0.907  0.0863  0.3300  0.0799
19518W        W35327  11.631  15.341  11.830  0.1395  0.0689  0.0829
19519W        W35328   2.982  18.013   1.014  0.1315 -0.3191  0.0642
19520W        W35329  16.574   9.097  15.942 -0.2415  0.0015  0.1998
19521W        W35330   2.393  14.044  14.623  0.1383 -0.4288 -0.1982
19522W        W35331   8.028  17.088   2.564 -0.1172 -0.1825  0.0205
19523W        W35332  12.421   2.221   2.164 -0.1175 -0.1290 -0.0755
19524W        W35333   4.114  17.281  14.173  0.0182  0.0538 -0.1091
19525W        W35334  11.513  11.130   0.071  0.0353 -0.2423  0.0554
19526W        W35335  12.203   3.301  11.099 -0.2230  0.1366  0.0340
19527W        W35336   4.897  16.839   1.958  0.3397  0.0093 -0.1351
19528W        W35337   3.977  16.841   0.027 -0.2341 -0.3128  0.0219
19529W        W35338   5.476  17.231  13.057  0.0054  0.1896 -0.0836
19530W        W35339  12.682  15.258  13.593  0.0418 -0.1974  0.1253
19531W        W35340   3.831   1.991  13.621  0.0337 -0.0367  0.0760
19532W        W35341   3.920   2.810  12.179 -0.0125 -0.1050  0.0231
19533W        W35342  11.687   9.047   1.765  0.2726  0.0741 -0.3344
19534W        W35343   1.787   7.676  12.531 -0.0350  0.1311 -0.0397
19535W        W35344   6.719   4.434  13.905  0.2552  0.3161  0.0973
19536W        W35345  17.156  17.085   0.006  0.2530  0.0507 -0.1978
19537W        W35346  13.995  17.284  14.693  0.1177  0.0625 -0.1548
19538W        W35347   6.987   3.340  12.175 -0.1798  0.0821 -0.0112
19539W        W35348  15.963   0.270  13.537 -0.1725 -0.0813 -0.2895
19540W        W35349  11.140  14.059   1.296 -0.2791  0.0345 -0.0835
19541W        W35350   0.446  16.341   2.776 -0.0032 -0.0321 -0.1007
19542W        W35351   5.179   9.324   3.696  0.0127  0.0317  0.1328
19543W        W35352  12.162  13.858  11.192 -0.0309 -0.0909  0.0696
19544W        W35353   0.796   6.817   2.610  0.0589  0.0926 -0.1091
19545W        W35354   7.210   8.249   2.408  0.1287  0.0294 -0.0953
19546W        W35355   5.628  10.483  12.097  0.2449 -0.1541  0.4543
19547W        W35356  13.706  13.949   1.654 -0.0579 -0.1531 -0.0606
19548W        W35357   8.224  14.405  10.902  0.0419  0.0425 -0.0329
19549W        W35358   5.850   2.436  11.346 -0.1526 -0.1881  0.0277
19550W        W35359  17.063  11.470  12.254 -0.1578 -0.0566  0.0260
19551W        W35360   3.775  15.892   4.200 -0.0493  0.0867 -0.1321
19552W        W35361   9.691   5.792   4.883 -0.0990  0.1862 -0.0025
19553W        W35362   7.212  13.196  13.169  0.1924  0.1443 -0.0647
19554W        W35363   7.524   8.022   5.162  0.0724 -0.0636  0.2013
19555W        W35364  10.288   9.618  14.609 -0.0678 -0.2596 -0.3892
19556W        W35365   4.496   6.765   3.629  0.1404 -0.0039  0.0799
19557W        W35366  12.782   8.417   5.349  0.2624 -0.1543 -0.2230
19558W        W35367   6.669   1.833   5.304  0.4211  0.2603  0.0847
19559W        W35368   1.094   4.337   2.053 -0.1175  0.0100 -0.0436
19560W        W35369  15.318   7.156  13.805  0.2369 -0.0297  0.0542
19561W        W35370   2.249   8.835   3.166  0.0000  0.0949  0.2675
19562W        W35371  12.296   0.673  10.073  0.1696  0.0359  0.0108
19563W        W35372  15.240  12.729  14.422 -0.1168 -0.2716 -0.1239
19564W        W35373   7.420   5.646  13.235  0.3756 -0.1986  0.3525
19565W        W35374   4.730   7.290  12.555  0.1807 -0.1926  0.1415
19566W        W35375   2.192   8.073   1.757  0.0612  0.4660  0.0702
19567W        W35376   4.382   2.610  13.157  0.0486 -0.0408 -0.4050
19568W        W35377   8.419   1.593  13.113  0.1392 -0.0272  0.3752
19569W        W35378   1.861   5.226  12.151  0.2345  0.1564 -0.0743
19570W        W35379   1.258   8.061   2.394 -0.0100 -0.1416  0.0442
19571W        W35380   1.511   9.563   1.152  0.1198  0.2126  0.1306
19572W        W35381   6.969   7.913   1.794 -0.0382 -0.2411 -0.1041
19573W        W35382  15.756   6.707   3.241  0.0268 -0.2424 -0.2053
19574W        W35383  17.668   6.914  15.840 -0.1723 -0.0809 -0.0843
19575W        W35384   4.231   3.469   2.863 -0.0406  0.2322  0.1489
19576W        W35385  13.508  10.383   5.937  0.1499 -0.3872 -0.0779
19577W        W35386  16.644   1.610   0.329  0.0182  0.1173  0.2150
19578W        W35387  12.170   8.902   5.302  0.1408  0.0752  0.0143
19579W        W35388   7.281   9.279  13.995 -0.1776  0.1062  0.1286
19580W        W35389   9.564  10.384  14.350 -0.0233 -0.1348  0.0946
19581W        W35390   0.504   2.156  11.663  0.1549  0.3751  0.0348
19582W        W35391   2.165   6.857   3.695 -0.1461  0.2489  0.0455
19583W        W35392   6.122  18.053  14.700  0.0237 -0.1230 -0.0848
19584W        W35393  14.819  14.338  11.589 -0.0965 -0.1146  0.0706
19585W        W35394   8.952  10.171   2.271 -0.3404  0.1698 -0.4985
19586W        W35395  17.411  13.182  15.889  0.2705  0.0769  0.3503
19587W        W35396  14.791  10.771  11.895  0.3965 -0.0017 -0.0148
19588W        W35397  15.318   5.793   2.106 -0.1226  0.3070  0.2382
19589W        W35398   5.279   7.638  12.481  0.1500 -0.0909  0.1303
19590W        W35399  17.272  16.401   4.682  0.3159  0.1257 -0.0018
19591W        W35400   2.852   2.773   1.339  0.1538 -0.0262  0.0697
19592W        W35401  14.271  16.062   1.358 -0.1360 -0.1031 -0.1204
19593W        W35402   5.194  11.640   5.290  0.0279  0.0735 -0.1280
19594W        W35403   4.907  17.480  11.232  0.0146 -0.2383 -0.0318
19595W        W35404  15.260  15.822  12.347 -0.0894 -0.0135  0.0289
19596W        W35405   3.015  10.570   5.076 -0.2686  0.0291  0.0300
19597W        W35406  15.556   7.242   6.003 -0.1570  0.0555  0.0255
19598W        W35407  12.758  16.616  11.766  0.0861  0.0619  0.1304
19599W        W35408  11.963   7.083   2.795  0.2008  0.0824  0.1368
19600W        W35409   3.089  17.808   3.836  0.0968  0.4416 -0.0717
19601W        W35410  11.217  12.948  13.433  0.2221  0.0696 -0.1884
19602W        W35411  16.029  12.002   4.965  0.0552 -0.1860  0.0485
19603W        W35412  16.504  17.833  14.700 -0.1812 -0.1436  0.0436
19604W        W35413   0.047  13.321  12.421 -0.0211  0.0359 -0.1259
19605W        W35414   2.232  17.787   1.484  0.1087  0.0595  0.1877
19606W        W35415  12.983   8.927   3.578  0.0396  0.1057 -0.2567
19607W        W35416  13.009   6.231   2.482  0.1139  0.0650  0.1541
19608W        W35417   2.235  10.129   4.263 -0.0817 -0.3203  0.0954
19609W        W35418  16.337  14.633   2.663  0.1103 -0.3731  0.1175
19610W        W35419   6.423  13.651   5.084  0.0022 -0.0779 -0.0112
19611W        W35420   3.117  13.107  13.514  0.1852  0.1136 -0.0315
19612W        W35421  10.931   7.794  14.052  0.2109  0.1156  0.2578
19613W        W35422   8.951  16.191   4.406  0.0978 -0.2074 -0.1321
19614W        W35423  13.295  14.354  10.547 -0.2454  0.0916  0.2032
19615W        W35424   9.771   0.645   5.596 -0.0301  0.1418  0.1627
19616W        W35425   0.048  11.596   1.718  0.0822  0.0022  0.1636
19617W        W35426   2.458   5.510   0.273  0.2481 -0.0092  0.0011
19618W        W35427   5.299   3.609  15.421  0.0037 -0.0024 -0.2525
19619W        W35428   4.545  17.421  12.545  0.2225  0.0418  0.2046
19620W        W35429  10.920  18.218  15.015  0.1660 -0.0647  0.2941
19621W        W35430   8.912  13.575  13.556 -0.1039  0.2427  0.2484
19622W        W35431   0.326  14.891   0.585  0.1083  0.0422 -0.1210
19623W        W35432  11.951  16.959  12.572 -0.1598 -0.0436  0.3863
19624W        W35433   4.639  11.986   1.039  0.1328  0.0347 -0.0437
19625W        W35434   0.185   8.780   2.133 -0.2778 -0.0724  0.0588
19626W        W35435  15.686   8.501   0.819 -0.1348  0.2896  0.1305
19627W        W35436   0.055  17.071  13.584  0.1266 -0.2267 -0.3670
19628W        W35437  10.516  16.324   4.421 -0.0872 -0.0368  0.1850
19629W        W35438   5.003  14.943   2.510  0.0598  0.0855  0.1069
19630W        W35439   7.862  10.885   5.147 -0.1963  0.2199  0.5776
19631W        W35440  16.482  18.083  15.197  0.1358 -0.1189  0.0834
19632W        W35441  11.885   5.861  10.994 -0.0591  0.2881  0.0325
19633W        W35442  11.723   6.187  16.005 -0.0676 -0.0528 -0.0685
19634W        W35443  12.172   1.257  12.367 -0.0633 -0.0905 -0.0254
19635W        W35444  12.252  12.429  14.840  0.1453 -0.3516  0.0684
19636W        W35445   1.395  15.205   1.107 -0.4587 -0.1184 -0.1061
19637W        W35446   2.508  12.235   3.490  0.0357  0.1066 -0.3293
19638W        W35447  15.865   5.939  10.603 -0.0413  0.1660 -0.0205
19639W        W35448  17.993   9.856   1.465  0.0808  0.0851  0.0127
19640W        W35449   5.766  11.885   0.154  0.1353  0.2699 -0.0766
19641W        W35450   0.212   5.778  11.409  0.0416 -0.2051 -0.2111
19642W        W35451   6.048  17.060  14.304  0.0072  0.1239 -0.1699
19643W        W35452  14.856  13.700   1.895  0.2209  0.1330  0.2126
19644W        W35453   0.009  14.626   0.095 -0.0484  0.0846  0.0789
19645W        W35454  14.391   2.734   0.028 -0.2721  0.0058 -0.1581
19646W        W35455   8.798  16.245   1.818  0.2104  0.3085 -0.2177
19647W        W35456   2.991  10.999  10.613 -0.0673  0.0155  0.1127
19648W        W35457   3.888   3.844  14.212  0.3068  0.3479 -0.0709
19649W        W35458  17.288   7.597  12.985 -0.1388 -0.1182 -0.0740
19650W        W35459  11.111   5.219   2.392 -0.3134 -0.0329  0.0852
19651W        W35460   5.711   6.350   2.937  0.2924 -0.1091  0.2486
19652W        W35461  14.639   8.885  13.038  0.1269 -0.2200  0.2763
19653W        W35462   1.366  13.650   4.166 -0.3601  0.1956 -0.2238
19654W        W35463  11.083   7.944   4.962 -0.1345  0.2382  0.1265
19655W        W35464  17.653   6.044   2.785 -0.1298 -0.0817 -0.1821
19656W        W35465   7.781  14.845  11.948  0.0617 -0.1527  0.1230
19657W        W35466   1.612   9.677   3.516  0.1574  0.0603 -0.0062
19658W        W35467   1.670  16.828   2.458 -0.1294 -0.0059  0.1428
19659W        W35468  11.592   1.329  11.610 -0.2335  0.0656  0.2820
19660W        W35469  10.469  14.592   2.701  0.2392 -0.2884 -0.0791
19661W        W35470   7.428   3.747  13.921  0.0062  0.0111  0.4953
19662W        W35471   0.750   3.233  14.314 -0.0692 -0.0347  0.0288
19663W        W35472  11.035   8.164  10.929  0.0352  0.0313 -0.3822
19664W        W35473   1.880  12.240  14.427 -0.1384  0.0356  0.0459
19665W        W35474  10.110   7.165   2.844  0.0585 -0.1813 -0.0311
19666W        W35475   3.031   8.456   3.024 -0.2174 -0.1847  0.0732
19667W        W35476   1.457   4.202  13.444 -0.2559 -0.4788  0.0488
19668W        W35477   0.842   6.090  11.694 -0.1890  0.0607  0.1238
19669W        W35478  17.223  14.876   4.352 -0.0288 -0.0281 -0.0054
19670W        W35479   2.010   6.779  12.127 -0.0047 -0.0983  0.0868
19671W        W35480  12.902  17.734  10.828  0.0519 -0.1352  0.0180
19672W        W35481   6.047  16.718   1.070  0.3075  0.1450 -0.2217
19673W        W35482   8.687   3.537   0.056 -0.2691 -0.1413  0.0422
19674W        W35483  11.507   4.814   5.239  0.1711  0.2307  0.1524
19675W        W35484  15.581  14.920   5.910 -0.0804  0.0674  0.0659
19676W        W35485   5.262   6.478   1.593 -0.1471  0.0297 -0.1534
19677W        W35486  18.122  17.048  12.567  0.3202  0.0233 -0.2219
19678W        W35487  11.583  18.057   5.886  0.0595  0.1996 -0.0774
19679W        W35488  16.333   6.645   1.039 -0.0575 -0.0301 -0.0197
19680W        W35489   6.077   2.137   5.871 -0.1651 -0.0819 -0.1183
19681W        W35490  16.054  10.374  14.473 -0.0676  0.0046 -0.0643
19682W        W35491  12.607  10.967   3.187 -0.2224 -0.1928 -0.0193
19683W        W35492  15.541  13.620  15.352 -0.0668 -0.0726 -0.0268
19684W        W35493  10.432  12.395  14.732  0.0297 -0.3501  0.0503
19685W        W35494  15.389  10.045   3.684 -0.0747  0.0691  0.2195
19686W        W35495  16.063  15.511   2.352 -0.1473 -0.1416  0.0754
19687W        W35496   6.637   8.990  14.642 -0.1718 -0.1207  0.1839
19688W        W35497  12.285  17.699  14.637 -0.1363 -0.1680  0.1729
19689W        W35498   6.240  13.125   1.477 -0.3414  0.3268  0.0422
19690W        W35499  15.837   7.799   1.684  0.0564  0.2825 -0.3537
19691W        W35500   4.687   9.970  11.369  0.0082 -0.2150 -0.1803
19692W        W35501  11.168   8.919   0.904 -0.1303  0.0392 -0.0243
19693W        W35502  13.759   8.013   4.174  0.1215 -0.3637 -0.1230
19694W        W35503  15.159   2.357   3.955  0.1043 -0.1754 -0.0072
19695W        W35504  15.800   9.070   0.803 -0.0798  0.0040  0.1336
19696W        W35505  11.789   3.563  14.500 -0.1751  0.2097 -0.1290
19697W        W35506   6.249   0.037  13.746 -0.0688 -0.0017 -0.2127
19698W        W35507  16.586   9.975   1.583 -0.0680 -0.1972  0.0719
19699W        W35508   4.500   7.787  11.677 -0.0984 -0.2831  0.1000
19700W        W35509  14.692  11.408   2.481  0.1222  0.1943  0.0619
19701W        W35510  17.312   3.163  13.259 -0.2113 -0.3091  0.1460
19702W        W35511  14.670  10.631   1.728 -0.1309  0.0718 -0.2143
19703W        W35512  15.269  16.997  16.024 -0.0440  0.1714 -0.1282
19704W        W35513   1.192  10.477   4.993  0.0532 -0.2659  0.0169
19705W        W35514   0.800   0.586   0.784 -0.2503 -0.2651 -0.3732
19706W        W35515   6.617   6.712   5.485 -0.1342  0.0188 -0.0775
19707W        W35516   0.379  16.630   3.530 -0.2283 -0.1181 -0.1354
19708W        W35517  10.984  12.771   1.812 -0.0282  0.0649  0.1709
19709W        W35518  17.339   9.094   5.112 -0.0223  0.0832 -0.0348
19710W        W35519   6.756   2.695   4.319  0.1562  0.0256  0.1155
19711W        W35520   9.035  17.343  13.936  0.1833 -0.0483  0.0941
19712W        W35521  17.911  10.379  15.124  0.1969 -0.0382 -0.1749
19713W        W35522  11.880  10.451   1.619  0.1463 -0.2433  0.3644
19714W        W35523   1.469   7.945  12.967 -0.0767  0.0460  0.0589
19715W        W35524   9.504   6.663   0.135  0.1531  0.2302 -0.1278
19716W        W35525   5.008   0.694   5.394  0.2651 -0.0903  0.0421
19717W        W35526   5.414   6.477   4.694  0.0792  0.0166  0.1343
19718W        W35527   0.551   2.479  13.776 -0.0688 -0.1937  0.1525
19719W        W35528   2.703  14.458   2.574  0.0656 -0.1348  0.1156
19720W        W35529   8.878   3.749  13.947  0.1650  0.0981  0.2937
19721W        W35530  10.354  10.112   2.206 -0.1898 -0.0874  0.0099
19722W        W35531   8.218  10.842  15.793  0.0249  0.1617  0.2650
19723W        W35532   5.337  15.997  12.819 -0.1472  0.1113  0.2144
19724W        W35533   6.286   3.276  13.353 -0.1092 -0.0242  0.1491
19725W        W35534   3.319   9.183  10.900 -0.3487  0.1893  0.1240
19726W        W35535  10.955   3.684   4.117  0.0504 -0.0454 -0.4393
19727W        W35536  16.528   9.226  15.251 -0.0458 -0.1396 -0.0764
19728W        W35537   0.339  16.875  14.452 -0.0243 -0.1086 -0.1785
19729W        W35538  18.023  14.648   4.240 -0.0802  0.1874 -0.0200
19730W        W35539   8.455  15.529   0.742  0.1049  0.2217  0.0651
19731W        W35540   8.989  16.977   3.761 -0.0450  0.0292  0.1362
19732W        W35541   0.901   6.810   2.107  0.0413  0.4522 -0.3944
19733W        W35542   7.326   0.687   3.496  0.1156  0.0401  0.0126
19734W        W35543   7.657  15.834  12.546  0.0187 -0.0326 -0.2966
19735W        W35544   7.931   7.535   4.912  0.1521  0.2556 -0.2359
19736W        W35545  15.425   9.447  15.154  0.0728 -0.4725 -0.3044
19737W        W35546  14.756   7.533  11.322  0.2005  0.1217  0.1166
19738W        W35547   8.761  11.015  13.361  0.1647  0.0553  0.1828
19739W        W35548   7.478   5.344  10.660 -0.1440 -0.2207  0.0649
19740W        W35549   0.569   4.255   0.467  0.0524 -0.1405 -0.1323
19741W        W35550   7.244  10.387   2.603 -0.1319  0.1272 -0.2173
19742W        W35551   3.050  16.345   2.007  0.0332  0.1186  0.0895
19743W        W35552   1.147  16.698  13.765  0.0270  0.1383  0.0457
19744W        W35553   6.535   2.579  12.005  0.0866  0.0538  0.1883
19745W        W35554   4.056  12.119  15.607 -0.2420 -0.1925 -0.0310
19746W        W35555   0.723   8.726   4.300  0.2851  0.1047  0.0964
19747W        W35556   3.321  14.814  15.547  0.0894  0.1927  0.0912
19748W        W35557   1.612  10.270   0.087 -0.1869  0.2777  0.0664
19749W        W35558   4.088   9.375  12.782 -0.4360  0.0209 -0.0745
19750W        W35559   8.575  10.583   0.983  0.4079 -0.3449 -0.1352
19751W        W35560  13.962   3.721  15.616 -0.1680  0.0865 -0.0459
19752W        W35561   4.891   7.410  14.252  0.3113 -0.1663 -0.2465
19753W        W35562   4.153   9.436  14.613  0.0901 -0.1307 -0.0215
19754W        W35563  16.221  15.463   2.824  0.1836 -0.1623 -0.2216
19755W        W35564  16.918   7.994  12.337 -0.2262 -0.0441 -0.1640
19756W        W35565   6.645  18.145   0.599  0.3527 -0.3252 -0.2553
19757W        W35566   5.542   8.626  11.398 -0.0932 -0.3064 -0.0153
19758W        W35567  16.465  16.895   4.115 -0.0565  0.0365 -0.0952
19759W        W35568   3.341   0.843  12.855 -0.2367 -0.2619  0.0694
19760W        W35569   4.654   4.322   5.152  0.0957 -0.1142  0.0014
19761W        W35570   8.481   4.005  13.503  0.3191  0.0793 -0.0247
19762W        W35571  10.056  15.625   4.242  0.2148 -0.2624  0.3967
19763W        W35572   1.145   3.085  11.999 -0.2556  0.0035  0.0503
19764W        W35573  11.908   6.843   3.249  0.0881 -0.1375 -0.1318
19765W        W35574  12.821  16.023   4.349  0.4277 -0.1743  0.1578
19766W        W35575  17.722  12.185  16.018  0.3013  0.1022  0.1243
19767W        W35576   6.682   2.183   4.192  0.2388  0.3043  0.2027
19768W        W35577   4.489   0.260  15.803  0.1961 -0.1586 -0.1616
19769W        W35578  12.317  10.643   9.949  0.2035 -0.0228 -0.0351
19770W        W35579   0.496  17.100   4.273 -0.0503  0.2387 -0.1452
19771W        W35580   9.248  13.921  13.601 -0.0779  0.0283  0.1240
19772W        W35581  14.517  13.656  13.556  0.2763  0.2622  0.0293
19773W        W35582   5.085  12.863  11.250  0.2271 -0.1426 -0.1351
19774W        W35583  11.921   6.534   1.914 -0.0374  0.0543  0.1072
19775W        W35584   8.901  17.134  13.021  0.0562 -0.0696 -0.0204
19776W        W35585   1.247   7.414  15.675 -0.1067 -0.0746 -0.2253
19777W        W35586  17.326  11.589   4.170 -0.1680 -0.1482  0.0792
19778W        W35587   8.950  17.654   6.543  0.0301 -0.0183 -0.0426
19779W        W35588   3.721  13.779  11.824  0.2365 -0.0568 -0.1620
19780W        W35589  10.039   1.902   1.581 -0.3497  0.2739 -0.0234
19781W        W35590  12.307  14.027  15.780 -0.0932  0.2465 -0.2464
19782W        W35591  12.570   8.190  13.497 -0.2764  0.0904  0.0855
19783W        W35592  12.565  18.103   5.298  0.0483  0.1347 -0.2213
19784W        W35593   7.338  16.106   3.187 -0.1022 -0.2125 -0.0780
19785W        W35594   3.255  10.385   4.366  0.1314  0.0001  0.0859
19786W        W35595   2.685   9.122   5.372  0.1275 -0.4656  0.0160
19787W        W35596  11.625  13.228  11.349  0.2059 -0.2098 -0.1394
19788W        W35597   5.464   8.379   3.273  0.0028 -0.3665 -0.0113
19789W        W35598   1.215  13.910  15.698  0.0890 -0.2352 -0.1689
19790W        W35599  15.441   5.967   0.254  0.1334  0.0684 -0.0113
19791W        W35600   8.043   5.274   2.078  0.0042  0.1125 -0.2195
19792W        W35601  13.255  10.151   4.203 -0.1290  0.0599 -0.3150
19793W        W35602   5.148  17.797  12.703 -0.1316  0.1123 -0.0792
19794W        W35603  16.259   9.918  15.938  0.1689  0.0515 -0.1962
19795W        W35604   1.604  12.901  12.465  0.3503  0.1614 -0.0714
19796W        W35605  15.598   2.059  13.048  0.0529  0.1462  0.0628
19797W        W35606  15.319   3.092  15.566 -0.0934 -0.2895 -0.2074
19798W        W35607   6.669   4.436  14.785 -0.0277  0.0609 -0.0824
19799W        W35608  10.331   3.850  14.498  0.1262 -0.1916  0.1971
19800W        W35609   5.360   5.986   1.926  0.2270 -0.3844 -0.0502
19801W        W35610  16.044  12.912   2.912 -0.1439  0.2015 -0.3619
19802W        W35611  15.355   4.222  12.792 -0.1454  0.0428 -0.1141
19803W        W35612  16.405  17.933   0.781  0.0663  0.1190  0.1685
19804W        W35613  10.568  17.814  15.618  0.1355 -0.1135 -0.0228
19805W        W35614  10.177   3.877  15.036 -0.0579  0.0353 -0.1600
19806W        W35615   9.543   5.070   5.439  0.0761 -0.1749 -0.0746
19807W        W35616   9.453   8.128  14.128  0.0973 -0.1865  0.1911
19808W        W35617   4.466  13.611   4.511 -0.1168 -0.2589  0.0558
19809W        W35618  12.221   1.023   0.869 -0.0686 -0.0902 -0.1597
19810W        W35619  13.517   0.463   1.523  0.0738  0.1691  0.1664
19811W        W35620   0.400   7.971  14.165  0.1920  0.3531  0.0878
19812W        W35621   6.770  16.048  11.317  0.0910  0.1990  0.1967
19813W        W35622   0.747   5.093  15.549 -0.1057 -0.0152  0.0513
19814W        W35623  14.617  16.025   1.018  0.1045  0.2715 -0.0770
19815W        W35624   6.627   6.599  15.714  0.0693  0.0776 -0.0425
19816W        W35625  12.205   0.686  13.496  0.0581 -0.3447 -0.0136
19817W        W35626  15.482   6.292   0.662  0.3128  0.3404 -0.0277
19818W        W35627   4.440   3.208  11.194  0.1094 -0.0247  0.1745
19819W        W35628  15.694  17.257   5.682 -0.0788 -0.0404  0.0308
19820W        W35629   8.740  11.832   0.955  0.0163  0.0852  0.1460
19821W        W35630   7.453  18.147  10.793  0.2004 -0.0553 -0.2609
19822W        W35631  15.293   3.605   4.546 -0.1569  0.1257 -0.0789
19823W        W35632  14.142  12.910   4.168  0.1598  0.4123 -0.1477
19824W        W35633   4.408   8.647  13.970 -0.0931  0.0619  0.1098
19825W        W35634  11.016  16.202   4.281  0.2837  0.2352  0.0829
19826W        W35635   1.457  11.572  12.266 -0.1093  0.0747 -0.3514
19827W        W35636  15.092  14.251  15.616 -0.1803 -0.1866  0.4435
19828W        W35637   2.303   1.236   0.027 -0.0367 -0.1649 -0.3650
19829W        W35638  12.256   2.302  15.698  0.0981 -0.1973  0.1908
19830W        W35639   7.490   9.938  15.838 -0.3240  0.3716  0.0302
19831W        W35640  15.553   9.451  15.911 -0.2878  0.0878  0.0724
19832W        W35641  10.865  15.978  12.269 -0.3135 -0.0536 -0.0984
19833W        W35642   4.668   1.261  15.267 -0.1223 -0.3203 -0.1438
19834W        W35643  15.108  16.552  15.872  0.0753 -0.4109 -0.0353
19835W        W35644   0.514   3.537  11.906 -0.0050  0.1265  0.0900
19836W        W35645   0.087   6.338  14.448 -0.0834 -0.0019 -0.0132
19837W        W35646   8.220   3.614   2.107  0.1257 -0.2650  0.0586
19838W        W35647  10.532  16.708   0.120 -0.1490  0.1491 -0.1099
19839W        W35648   5.032  11.848  10.858  0.1410 -0.0094  0.3295
19840W        W35649  17.676  14.840   2.579 -0.0220  0.0035  0.0877
19841W        W35650  13.304  16.131   4.397  0.2074 -0.0952 -0.0018
19842W        W35651  12.652  11.389  15.322 -0.0176  0.1515 -0.0032
19843W        W35652  17.077  10.472   2.787  0.0091  0.1611 -0.2173
19844W        W35653   4.076   5.504   5.327 -0.0165  0.1838 -0.3102
19845W        W35654  12.270   6.145  14.266  0.0150  0.1229 -0.0565
19846W        W35655   0.440   8.955   5.061 -0.1964  0.0242  0.1291
19847W        W35656   6.012   2.689   0.964 -0.2090 -0.0024  0.0938
19848W        W35657  17.888   7.444  13.499 -0.1526  0.1287 -0.3845
19849W        W35658  17.058   2.541  14.595 -0.0266 -0.1155  0.0181
19850W        W35659   5.160  13.951  13.725  0.0848  0.0173  0.3544
19851W        W35660  16.962   0.624  12.358  0.1379 -0.3529 -0.1001
19852W        W35661  11.222   9.054   1.428  0.0564 -0.0647  0.0218
19853W        W35662   4.230  11.996   1.830 -0.2228 -0.1357  0.0830
19854W        W35663   9.759  17.387  11.542  0.0087 -0.1057 -0.0566
19855W        W35664  10.282  11.636  10.313  0.0594  0.0509 -0.0722
19856W        W35665  15.582   6.235   1.975  0.2184  0.1723  0.1564
19857W        W35666   2.092  11.264   2.091 -0.2549  0.0142  0.2828
19858W        W35667  15.099   5.960  14.471 -0.0498 -0.0424 -0.0291
19859W        W35668  15.527   5.408   3.345  0.0083 -0.0401  0.0276
19860W        W35669   7.545   1.803  13.314  0.2485 -0.1249 -0.3050
19861W        W35670   6.823   0.223   4.600 -0.1496 -0.1916 -0.3539
19862W        W35671   9.835  14.973  12.984  0.0741 -0.0535 -0.1578
19863W        W35672  10.697  13.628   3.319  0.2918  0.0936 -0.1931
19864W        W35673  16.765   5.362   1.993  0.0048  0.1836 -0.0003
19865W        W35674   3.775   9.573   0.324 -0.1189 -0.0468 -0.0140
19866W        W35675   8.724   4.400  10.263 -0.0093  0.6104 -0.1396
19867W        W35676  17.579   0.834   3.469 -0.1788 -0.1633 -0.1295
19868W        W35677   8.290   7.410  12.677 -0.2327  0.4261  0.2308
19869W        W35678  10.882  13.957   2.502  0.1032  0.0087 -0.1013
19870W        W35679   8.380  18.006   1.375 -0.2511 -0.3767  0.1578
19871W        W35680  13.370   4.571  15.772  0.1186 -0.0208 -0.0860
19872W        W35681   3.705   1.715   0.445 -0.0350 -0.2493  0.2079
19873W        W35682   3.687   4.172   4.584  0.1473 -0.0543 -0.0180
19874W        W35683   2.927  14.514  13.828 -0.1967 -0.0477 -0.0401
19875W        W35684   1.262   3.072   4.652 -0.3108 -0.1842 -0.1477
19876W        W35685   4.680   9.123   3.500  0.2650  0.1752 -0.1747
19877W        W35686  10.728  14.629  13.406 -0.3258 -0.0411  0.1922
19878W        W35687  16.737  10.437   2.437 -0.0235  0.1306 -0.1222
19879W        W35688   7.784   9.793   1.982 -0.1136 -0.2580  0.1624
19880W        W35689  15.244  13.980  15.149 -0.2724 -0.1116  0.1625
19881W        W35690   7.513   5.987  12.807 -0.0833  0.1389  0.0718
19882W        W35691  13.428   9.914  11.493 -0.1093 -0.2796  0.1388
19883W        W35692   3.535   0.721   1.559 -0.1368 -0.2287  0.3590
19884W        W35693   3.115   3.148   2.911  0.0042  0.2597  0.2533
19885W        W35694   3.625  17.098   3.521  0.0461  0.0642  0.0805
19886W        W35695   8.826  10.175   1.414 -0.0944  0.0038 -0.1331
19887W        W35696   9.551   6.898  10.661 -0.0310 -0.0443  0.1545
19888W        W35697   0.116   7.435  13.784  0.2618  0.0612  0.3226
19889W        W35698  11.211  14.159  12.217 -0.1109  0.0484 -0.0903
19890W        W35699   1.208   9.394  13.589  0.0629 -0.0862 -0.1284
19891W        W35700   5.828  10.789  11.018 -0.0489 -0.0013 -0.0841
19892W        W35701  13.280   4.058  12.544 -0.1891 -0.1252 -0.3103
19893W        W35702   8.281   9.880   1.885 -0.1861 -0.2058 -0.4287
19894W        W35703  12.069  11.192   1.966  0.1924  0.1147 -0.3179
19895W        W35704  12.756  11.481  12.081 -0.2190  0.2348  0.0462
19896W        W35705  15.900  11.372   3.002 -0.3342 -0.0237  0.2845
19897W        W35706   8.595   2.992  13.294  0.2048 -0.2801  0.0920
19898W        W35707   8.005  10.408  12.170  0.3514  0.0852  0.0864
19899W        W35708  14.552   7.021  13.572  0.0961 -0.0110 -0.0009
19900W        W35709   5.559   4.049  15.335 -0.0119 -0.0347  0.3110
19901W        W35710  12.305   4.435  13.059  0.0069  0.0311 -0.1543
19902W        W35711   0.432   2.003   0.597 -0.0101  0.0910 -0.1676
19903W        W35712  17.284  17.697   3.721 -0.0676 -0.0432 -0.0866
19904W        W35713  11.050   7.340  14.118 -0.2050  0.2800  0.1804
19905W        W35714   5.242   5.719  11.072 -0.2018 -0.1643  0.0084
19906W        W35715   3.699  10.972   6.130  0.0408  0.0766  0.2597
19907W        W35716   9.517  16.070   2.387 -0.1197 -0.0065 -0.0792
19908W        W35717  18.069   2.082  10.826  0.3618 -0.2212  0.3645
19909W        W35718   6.223   3.710  15.949  0.3467  0.1426 -0.1758
19910W        W35719   9.111  17.357  12.517  0.0348  0.0605  0.2603
19911W        W35720   9.075   8.046   5.850  0.0426 -0.1861  0.0892
19912W        W35721   1.696  12.898  11.298  0.2325 -0.3067  0.0548
19913W        W35722   3.013   4.218  14.732 -0.2300  0.1033  0.0238
19914W        W35723  14.927  11.932   4.052 -0.0169 -0.0063 -0.0046
19915W        W35724  16.467  15.317  11.849  0.1826  0.2629  0.1168
19916W        W35725  12.663  15.202  11.889 -0.0442 -0.0988 -0.3575
19917W        W35726   8.157   7.874   3.005 -0.2060 -0.0336 -0.0781
19918W        W35727   5.730   4.787   1.427  0.0448  0.2670 -0.1752
19919W        W35728   8.357   2.842   4.129 -0.1759  0.0237 -0.1066
19920W        W35729   8.103  18.117  14.347 -0.1927  0.5122  0.3100
19921W        W35730   2.283  13.253  14.572  0.1619  0.0373  0.1071
19922W        W35731  17.699  15.773  11.126  0.1530  0.1871 -0.2760
19923W        W35732   2.549  17.592  15.329 -0.3295  0.0832 -0.0127
19924W        W35733   1.837  12.070   5.801 -0.0549 -0.0458  0.3411
19925W        W35734   6.999   5.685  14.212  0.1411 -0.2127  0.4104
19926W        W35735   6.144   8.402   3.760 -0.1851 -0.1127 -0.0635
19927W        W35736   2.493   1.948   5.249 -0.1502 -0.1064  0.0955
19928W        W35737   4.846   9.598  12.439  0.1987  0.0454 -0.1420
19929W        W35738   9.189   2.569   5.327  0.1513 -0.3187 -0.2687
19930W        W35739  13.451  16.185   1.425  0.1261  0.1086 -0.2024
19931W        W35740   5.468  12.941   2.178  0.0079  0.0733  0.5671
19932W        W35741   2.055  16.373  12.616  0.0326 -0.1156  0.1289
19933W        W35742  18.009   9.895  10.130 -0.1883  0.2136  0.3983
19934W        W35743  10.178  15.824  16.026 -0.1664  0.2203 -0.2745
19935W        W35744   9.887  15.515  11.012 -0.1080  0.4970  0.0239
19936W        W35745  12.443  13.904  13.327 -0.0924  0.0550 -0.1534
19937W        W35746   2.916   5.161  13.447  0.1274  0.1006  0.1567
19938W        W35747   3.445   5.912  10.724 -0.0163  0.2376  0.2147
19939W        W35748   7.651  17.341  14.469  0.1605 -0.0777  0.0207
19940W        W35749  11.344  13.581  14.643 -0.1048  0.0399  0.0300
19941W        W35750  12.711   7.812  12.131 -0.0123 -0.0169 -0.1331
19942W        W35751   4.718   5.863  13.397 -0.1312 -0.3478  0.0068
19943W        W35752  13.031   5.816   0.708  0.2316 -0.0483 -0.0557
19944W        W35753   5.371  13.183  14.893  0.0615  0.1855 -0.1570
19945W        W35754  15.530   1.440  14.926 -0.0436 -0.2079 -0.0025
19946W        W35755  13.020   0.781   0.420 -0.4723  0.1281  0.0150
19947W        W35756  11.164   2.371  14.165 -0.2285 -0.1525  0.2391
19948W        W35757   9.778  16.881   2.375  0.1204 -0.2041 -0.2031
19949W        W35758  11.072   4.066  11.662 -0.0274  0.0715  0.1398
19950W        W35759   0.295   8.472  14.804  0.1457 -0.0202 -0.0533
19951W        W35760  11.261   5.139   5.777  0.3613 -0.0266 -0.2176
19952W        W35761   7.004   0.023  10.512 -0.1288  0.0116  0.0766
19953W        W35762   8.540   4.859  14.852  0.0694 -0.0104 -0.0418
19954W        W35763  13.139   5.855   4.285  0.0016  0.0196  0.3172
19955W        W35764  15.071   9.346  13.076  0.2568  0.0038  0.4816
19956W        W35765   1.056  14.260  13.704  0.3172  0.0313 -0.1491
19957W        W35766  16.687  11.768   2.289 -0.2382 -0.1008 -0.0676
19958W        W35767  16.798   0.680   1.953 -0.0340 -0.0635  0.1313
19959W        W35768   7.186  14.066   3.614  0.1111  0.2353  0.1366
19960W        W35769  17.074   0.819   2.520  0.0133 -0.3137 -0.2994
19961W        W35770   9.685  14.511   4.024  0.0581 -0.3332  0.0155
19962W        W35771   1.528  12.424   1.001  0.0195 -0.0676  0.1448
19963W        W35772   4.297  16.379   0.632  0.0683  0.0749  0.0139
19964W        W35773  15.113  15.146  12.085 -0.0698 -0.1823  0.0519
19965W        W35774   2.316  12.778  15.141  0.1685  0.1352  0.1160
19966W        W35775   7.775   8.723   0.484  0.0246 -0.0613 -0.1781
19967W        W35776  11.362  18.140   5.034 -0.1104 -0.3185 -0.1241
19968W        W35777   9.554   3.282   0.396  0.1472  0.1303 -0.0259
19969W        W35778   1.564   6.577  12.543  0.0414  0.0130 -0.2417
19970W        W35779  17.450  10.948   3.974 -0.1180 -0.1890  0.0161
19971W        W35780   2.377   2.150  12.039 -0.1746 -0.6887 -0.1271
19972W        W35781   9.578  14.160  10.982  0.1714 -0.0852  0.1111
19973W        W35782   6.080   8.314  12.713 -0.1275  0.0600 -0.0087
19974W        W35783  14.235  18.080  14.420  0.1354  0.2508 -0.0806
19975W        W35784  10.013  15.703   3.629  0.1010  0.2069  0.0184
19976W        W35785  15.768   3.833   1.058 -0.0905  0.1967 -0.2417
19977W        W35786   2.685  11.943  10.840  0.2079  0.2674  0.2682
19978W        W35787   4.910   6.843  12.487  0.1788  0.2379 -0.1004
19979W        W35788  16.120   8.729   0.744 -0.1150  0.0163  0.1086
19980W        W35789   6.269  14.180   2.817  0.0986 -0.0019  0.0173
19981W        W35790   8.674   2.392   5.455 -0.0783 -0.1294  0.5467
19982W        W35791  16.840   0.530   6.356 -0.1400  0.1000  0.1461
19983W        W35792   5.145   9.651  11.569  0.1355  0.1907 -0.0222
19984W        W35793  13.190  18.021  15.699  0.3151 -0.0005 -0.2410
19985W        W35794   7.405  11.095  14.162 -0.1644  0.0021  0.2610
19986W        W35795   2.672  12.040  13.557 -0.0229  0.1407  0.2924
19987W        W35796   8.876   4.072  12.649  0.1542 -0.1685 -0.2158
19988W        W35797  13.351   5.194   5.009  0.3593  0.0721 -0.1334
19989W        W35798  15.258   2.056   4.700 -0.0121  0.2070 -0.0894
19990W        W35799  16.580   7.304  11.127  0.1241  0.2098  0.0076
19991W        W35800  10.253   4.113   1.669  0.0828 -0.0960 -0.1466
19992W        W35801   1.339   0.789  14.277  0.0537  0.0940 -0.0881
19993W        W35802   1.741   7.969  13.994 -0.1458 -0.0546 -0.2871
19994W        W35803  13.584   1.332  13.136  0.3835  0.3269  0.1818
19995W        W35804   5.673  13.528  15.598 -0.2543 -0.0162 -0.2563
19996W        W35805  12.085  10.807  10.499  0.0278  0.2673 -0.2041
19997W        W35806   4.453  12.675  12.025 -0.1915 -0.3380 -0.3168
19998W        W35807   9.294  15.594   1.985  0.0016 -0.0507  0.0724
19999W        W35808  10.259  13.653   9.817  0.3136  0.0572 -0.2477
20000W        W35809   2.192  15.624   3.136  0.1742  0.0688 -0.0585
20001W        W35810   2.432  13.683   4.032 -0.1820  0.1902  0.2531
20002W        W35811  10.160  11.223  14.248  0.1321  0.0285 -0.1347
20003W        W35812  16.962  15.751  15.056  0.2514  0.0674 -0.0039
20004W        W35813  13.379  10.695   3.240 -0.0752 -0.0756  0.0147
20005W        W35814   5.446  10.299   5.047 -0.0407 -0.0429  0.0507
20006W        W35815  14.806   7.268  15.898  0.1400 -0.0786  0.3169
20007W        W35816   6.953   9.375  14.777 -0.0414 -0.3084 -0.1768
20008W        W35817   5.843   8.335  14.145  0.1545 -0.2705  0.3633
20009W        W35818  12.748   6.034   1.309  0.0048  0.0939 -0.2736
20010W        W35819  16.927  14.563  15.702  0.0010  0.0473  0.0790
20011W        W35820   1.045   9.228  11.873 -0.2958 -0.3026  0.0590
20012W        W35821   0.086  13.072  13.504 -0.1295  0.0100  0.2062
20013W        W35822  15.220  18.046  12.348  0.1442 -0.1182  0.0634
20014W        W35823  15.780  13.083   4.732 -0.0665 -0.1553 -0.1436
20015W        W35824   7.334  17.383   5.326 -0.1870 -0.0576 -0.1904
20016W        W35825   9.104   9.515   2.169 -0.1302 -0.1571  0.0391
20017W        W35826   1.101   1.465  15.728 -0.0005 -0.0043  0.0396
20018W        W35827   6.984  17.089   5.354  0.2358 -0.1875 -0.0721
20019W        W35828  17.913   6.597   1.701 -0.0702 -0.4472  0.2216
20020W        W35829   6.930   1.509   0.806 -0.3089 -0.3768  0.0857
20021W        W35830   6.258   6.085  12.560  0.1261  0.0410  0.2872
20022W        W35831   5.983   5.784  11.663 -0.0305 -0.2813  0.0731
20023W        W35832   3.499  17.653   2.884  0.1464 -0.0202  0.1902
20024W        W35833  13.375   7.693   1.727  0.2073  0.1833 -0.0211
20025W        W35834   3.310  10.712  15.645 -0.0360  0.0123  0.1694
20026W        W35835   9.089  10.241  14.374  0.0679 -0.0973 -0.0021
20027W        W35836   4.269   2.863   3.441  0.0720 -0.3550 -0.1100
20028W        W35837  16.442  18.130   1.842 -0.0075  0.0563 -0.1928
20029W        W35838   6.627   2.988   1.761 -0.2986  0.0697  0.1408
20030W        W35839  12.476  16.359   4.606  0.0455  0.3442 -0.0361
20031W        W35840   6.994   0.986  11.335  0.0177  0.3217  0.0681
20032W        W35841   5.465  12.622  15.042  0.1995 -0.3982 -0.1017
20033W        W35842   3.045   0.414   0.387  0.1075  0.0064 -0.0776
20034W        W35843  10.751  18.061   3.668 -0.2162 -0.1267 -0.0016
20035W        W35844   2.426  11.526  12.246 -0.0358  0.1687  0.0482
20036W        W35845  13.374  10.500  15.623 -0.1085 -0.1269  0.1074
20037W        W35846   6.645   1.706  11.902  0.1771  0.1257  0.1594
20038W        W35847   6.051  18.238   2.655  0.3124 -0.0112 -0.0177
20039W        W35848  12.542   9.252   2.354 -0.1764  0.1890  0.0371
20040W        W35849   9.942   6.202   0.726 -0.0800  0.1681  0.1118
20041W        W35850   2.122  14.752   1.216  0.1641  0.0390 -0.3116
20042W        W35851   2.441  12.778  13.941 -0.1619 -0.1859 -0.2319
20043W        W35852  10.336   2.524   0.895  0.3317 -0.0648 -0.1054
20044W        W35853   6.390   2.093   0.347 -0.1371  0.0030  0.1176
20045W        W35854   9.087   1.644   5.371  0.0536 -0.4001  0.2269
20046W        W35855   8.162   8.837   3.540 -0.1392 -0.1074 -0.1338
20047W        W35856  17.845   4.128   1.248  0.1254 -0.2896 -0.2399
20048W        W35857   1.949  13.416  13.258 -0.1338  0.1130  0.0367
20049W        W35858   0.005  15.905   4.098 -0.0298  0.1041  0.0390
20050W        W35859   5.719  12.551   2.403 -0.0719 -0.2405  0.0284
20051W        W35860   8.702  17.377   4.956  0.2747  0.0204 -0.0211
20052W        W35861   3.374  12.839   3.242  0.2637 -0.2162 -0.1400
20053W        W35862  16.073   3.781   2.029 -0.0216  0.1348 -0.1286
20054W        W35863  18.176   9.488   1.090  0.3143 -0.0288 -0.0898
20055W        W35864   5.819  11.720   2.686 -0.0856 -0.1264  0.4768
20056W        W35865   8.650   7.783  14.552 -0.0019  0.4127 -0.0888
20057W        W35866   7.021   8.579  13.849 -0.0317  0.0481  0.0684
20058W        W35867   2.518  12.772  12.775  0.3202 -0.1882  0.0905
20059W        W35868  16.230   5.145  15.821 -0.2434 -0.1316  0.2088
20060W        W35869   5.864   2.126   1.829  0.0931 -0.0552 -0.2216
20061W        W35870  10.785   2.029   5.203  0.0299  0.0358  0.0330
20062W        W35871  18.240   5.428   3.578 -0.0035  0.1440 -0.2185
20063W        W35872   1.383  13.956  11.726 -0.4213  0.2830  0.0534
20064W        W35873   7.988   6.023  13.837  0.2128  0.2668 -0.2489
20065W        W35874  17.598  15.380   6.105 -0.0091 -0.1180  0.0525
20066W        W35875  12.903   2.671  12.474 -0.0002  0.0090 -0.0535
20067W        W35876  17.088   5.424   4.224  0.1415 -0.0082  0.1666
20068W        W35877   4.343   2.094  12.730  0.1251  0.0363 -0.2305
20069W        W35878  12.949   3.637   1.172 -0.3666  0.0539  0.0417
20070W        W35879  12.879   8.701  14.841  0.0074 -0.0517 -0.0635
20071W        W35880  15.782   6.410   0.233  0.1728  0.0106 -0.3713
20072W        W35881   4.974   2.069   3.796  0.2220 -0.2560  0.3631
20073W        W35882  12.619  15.197  10.333  0.0882 -0.1188 -0.0972
20074W        W35883  15.391  14.883   0.417  0.1045  0.0181  0.1286
20075W        W35884  16.339  17.518   1.099  0.2685 -0.1708  0.0734
20076W        W35885   4.796  12.949  14.788 -0.4059 -0.2119 -0.0164
20077W        W35886   3.892  10.508   3.538 -0.2895 -0.1558 -0.0341
20078W        W35887   0.970  10.723   1.889 -0.0696 -0.0058 -0.0758
20079W        W35888   1.116  15.008  13.839  0.0400 -0.1778  0.0152
20080W        W35889  13.880   9.545   4.099 -0.0955  0.0259  0.0208
20081W        W35890  10.234   8.539   3.369 -0.0452 -0.1612 -0.1972
20082W        W35891   2.460   9.469   1.400  0.0849  0.1635 -0.0498
20083W        W35892   3.840   3.734  14.985  0.0720 -0.0464 -0.0921
20084W        W35893  10.009  12.814  12.728 -0.1263 -0.0760 -0.1686
20085W        W35894  18.056   7.147   4.350 -0.0124 -0.3991  0.0371
20086W        W35895   4.068   4.057  15.890  0.0748 -0.0963  0.0619
20087W        W35896  15.975   2.884   1.218 -0.1669 -0.1367 -0.0118
20088W        W35897  13.438  15.402  13.236  0.1714 -0.4070  0.1255
20089W        W35898   7.046   7.840   5.084  0.2520  0.0178  0.3751
20090W        W35899   7.649   5.743  10.998  0.1113  0.0029 -0.2473
20091W        W35900  13.697   2.129   1.999  0.0015 -0.2601 -0.1746
20092W        W35901  15.432   5.026   4.151  0.0116 -0.0798  0.1172
20093W        W35902  13.250  15.796   2.250 -0.3281  0.1736 -0.0788
20094W        W35903   4.828  10.277   0.524  0.0865  0.0844 -0.2867
20095W        W35904   5.609   0.294   3.373  0.0718 -0.0147 -0.0259
20096W        W35905   8.459   9.315   0.499 -0.3704 -0.2445  0.3443
20097W        W35906  18.062  10.926  15.102  0.1419 -0.1526 -0.0534
20098W        W35907  12.655   7.670  13.587  0.2589  0.1312 -0.0273
20099W        W35908  12.776  12.892  14.205  0.2750  0.3748  0.3405
20100W        W35909  17.459  15.180   4.614  0.2405 -0.3850 -0.0212
20101W        W35910   9.912   7.128   4.440  0.2273 -0.0313 -0.3293
20102W        W35911   8.672  17.378  11.774  0.0950  0.0168  0.0931
20103W        W35912   5.817   7.047  15.932  0.1300  0.1774 -0.0063
20104W        W35913  11.194  15.398  13.604 -0.2838  0.0088 -0.0233
20105W        W35914  14.109  11.772   2.529  0.1330  0.0021 -0.3598
20106W        W35915  16.447   4.377   5.920 -0.0760 -0.1665 -0.1364
20107W        W35916  12.714  15.740   2.514 -0.0022 -0.2850  0.0301
20108W        W35917  15.693   2.481  14.812 -0.1184 -0.2636 -0.1732
20109W        W35918  16.733  17.986  12.149 -0.0413 -0.0901 -0.0142
20110W        W35919  16.017   4.831  13.332  0.0237  0.0821 -0.2253
20111W        W35920  11.290   6.937  15.760  0.1630  0.0397 -0.0005
20112W        W35921   6.834   0.642  13.912  0.0357  0.2406 -0.1006
20113W        W35922   1.230   1.633   1.054  0.0681 -0.0423  0.0892
20114W        W35923  11.093  13.824   3.004 -0.1232 -0.3765  0.0460
20115W        W35924   7.422  14.485  12.078  0.0131 -0.1283 -0.1998
20116W        W35925  14.453  11.168   1.950 -0.3598 -0.2778 -0.2531
20117W        W35926  14.077   2.924   5.309  0.1630 -0.0541  0.2985
20118W        W35927   7.602  13.943  12.393 -0.4599 -0.1041 -0.0241
20119W        W35928  14.358  11.031   5.206  0.0236 -0.0155  0.0919
20120W        W35929   6.672   8.054  15.636  0.1576 -0.1179 -0.0565
20121W        W35930  13.944  17.836  13.307 -0.3531  0.2470  0.0800
20122W        W35931   9.657  17.000  14.474  0.1390  0.4304  0.2892
20123W        W35932   7.602   2.988   2.081  0.3040  0.3694 -0.0349
20124W        W35933  15.931   8.783   1.929  0.1470 -0.0025  0.0619
20125W        W35934  18.258   7.654  14.255  0.0655 -0.1349  0.1804
20126W        W35935  16.196   3.747  11.811  0.1262  0.1470 -0.3114
20127W        W35936   4.082  10.344   1.020  0.2838  0.0425 -0.1759
20128W        W35937  15.539  16.987   0.432  0.1764 -0.2630 -0.0905
20129W        W35938   8.445   5.272  15.426 -0.1168 -0.0412  0.0443
20130W        W35939  10.171   9.313   4.430  0.1659 -0.2800  0.1478
20131W        W35940  16.729  13.407  14.725  0.1195 -0.1767 -0.1201
20132W        W35941  17.438  16.360   4.238 -0.0505  0.0205  0.0753
20133W        W35942  10.667   2.195  14.884  0.0539 -0.1102 -0.0897
20134W        W35943   4.166   2.548   1.564 -0.1958 -0.1843 -0.1237
20135W        W35944  11.694  10.318  13.672  0.0640 -0.1928  0.0929
20136W        W35945  17.827   9.899  13.512 -0.0434  0.1071 -0.0357
20137W        W35946  11.288   6.402  15.866  0.3404 -0.4296 -0.0554
20138W        W35947   2.670  12.021   2.342 -0.1890 -0.0810 -0.1295
20139W        W35948  14.852   0.229  15.601  0.1586 -0.1694 -0.2652
20140W        W35949   2.033  15.646  14.855  0.0085 -0.2014 -0.0799
20141W        W35950  13.487   0.119  15.977  0.3439 -0.0850  0.1208
20142W        W35951   7.414   6.592  15.921  0.3945  0.0464 -0.0471
20143W        W35952   9.983   9.412  11.663  0.1264  0.0489  0.0690
20144W        W35953   2.187   6.351  10.711  0.0081  0.1875  0.2236
20145W        W35954   2.699   1.998  14.477  0.0394  0.0546  0.0912
20146W        W35955  12.247  16.889  11.014 -0.0201  0.0096  0.0071
20147W        W35956  14.537  11.109  14.968 -0.3039 -0.1903  0.0764
20148W        W35957  12.043  10.375   3.730  0.0156  0.0340  0.1120
20149W        W35958  11.112  15.008   3.414  0.0564 -0.1537 -0.1302
20150W        W35959  12.842   5.047  12.755 -0.2780 -0.2183 -0.0332
20151W        W35960  15.403   3.561   2.806  0.1220 -0.3470  0.4408
20152W        W35961   4.089   5.738  13.237 -0.1416 -0.2275  0.1947
20153W        W35962  13.447   1.752   0.002 -0.1496  0.0796 -0.0519
20154W        W35963  16.105   8.209  10.010  0.0061  0.0294  0.3435
20155W        W35964   3.459   2.531   3.422  0.0033  0.2937  0.1740
20156W        W35965  12.069  10.060  13.456 -0.1166  0.2942 -0.4274
20157W        W35966  17.603   2.023   0.541 -0.1074 -0.2942  0.0812
20158W        W35967   1.172  12.306   2.278  0.0269  0.0857 -0.0684
20159W        W35968  14.973   1.504  15.155 -0.4096  0.1652  0.0908
20160W        W35969   0.120  15.180  13.496  0.0765  0.1426 -0.0175
20161W        W35970   3.074   7.619  11.810  0.0987  0.0758  0.2601
20162W        W35971   2.584   5.917  15.981  0.4461 -0.1069  0.0134
20163W        W35972   7.032   1.932  13.681  0.0073 -0.0023  0.1397
20164W        W35973  16.526  13.618   1.666  0.1045 -0.1877 -0.0546
20165W        W35974  17.804   9.203   3.426 -0.1698  0.0199  0.3637
20166W        W35975   3.022   4.758   1.466 -0.0730 -0.1181 -0.0655
20167W        W35976   8.651   7.861  13.477  0.3378 -0.0469  0.0458
20168W        W35977  16.181   7.085  13.686 -0.1315  0.0338 -0.2657
20169W        W35978   8.400   1.370   4.759  0.1921 -0.1951 -0.2502
20170W        W35979   8.068   0.347  13.569 -0.1097 -0.0855  0.1854
20171W        W35980   5.867  12.682   0.298 -0.0434 -0.0450 -0.1185
20172W        W35981  14.288   0.181   0.790 -0.1114 -0.0108 -0.1046
20173W        W35982   5.171   0.805   3.951 -0.0064  0.0632  0.0646
20174W        W35983  17.285   4.278  11.641 -0.0084  0.1942  0.0762
20175W        W35984  10.013   4.845   5.251  0.1881 -0.0136 -0.0537
20176W        W35985   3.320   3.001  13.891  0.0516  0.0450 -0.0352
20177W        W35986  12.458   9.826  11.549 -0.0584 -0.1126  0.0463
20178W        W35987   0.547   5.615   5.112  0.0023  0.0395 -0.0933
20179W        W35988   1.052  15.901  15.632  0.0376 -0.1252  0.0634
20180W        W35989   5.995   6.660   1.135  0.1006 -0.1242  0.0648
20181W        W35990  17.334   4.773   1.432 -0.2962 -0.2134 -0.1431
20182W        W35991  14.711   8.277  12.228 -0.2567 -0.0294 -0.1050
20183W        W35992  18.101  14.579  15.692  0.2895  0.1266  0.1684
20184W        W35993  16.754  11.944  11.854 -0.2876  0.0091  0.1143
20185W        W35994   6.895   1.596   4.969  0.1317 -0.0497 -0.1083
20186W        W35995  11.838   2.520   3.894  0.0680  0.2264  0.1936
20187W        W35996   4.252   0.893  12.698 -0.0225  0.2359 -0.0055
20188W        W35997   2.064   2.282   2.676 -0.4011  0.0910  0.0522
20189W        W35998   9.164  16.133   3.250 -0.0262 -0.1185 -0.1088
20190W        W35999  10.966   8.324   9.941  0.0194 -0.0482 -0.0671
20191W        W36000  17.455  11.439   2.864  0.1741  0.0932  0.0575
20192W        W36001  10.766   4.762   1.632 -0.2005  0.0557 -0.2433
20193W        W36002  10.678   9.046   1.126 -0.0544 -0.0331  0.2000
20194W        W36003  10.285  12.193   3.201 -0.0908 -0.1643  0.3429
20195W        W36004   1.717   1.663  11.540  0.0020  0.0405 -0.3347
20196W        W36005   1.680   9.206   3.691  0.2346 -0.4281  0.0300
20197W        W36006   8.783   7.270  10.945  0.0368 -0.0314  0.4100
20198W        W36007  10.902   8.105   3.414 -0.2165  0.0998 -0.0208
20199W        W36008  14.373   8.821   3.929  0.0392 -0.0626  0.3044
20200W        W36009   1.633   4.814   3.781 -0.1266  0.1289  0.1970
20201W        W36010   4.703   6.464  12.763 -0.3259  0.3558 -0.0580
20202W        W36011   9.688   2.428   2.156 -0.1721  0.2642 -0.0417
20203W        W36012   3.819   2.124  14.227 -0.1344  0.1710 -0.0198
20204W        W36013  14.888   0.914   3.892 -0.0491  0.0578 -0.0323
20205W        W36014   6.559  15.255  15.359  0.0486 -0.1427  0.1995
20206W        W36015  13.328  11.409  12.209 -0.0379 -0.0659 -0.0393
20207W        W36016   7.558  13.756  11.155 -0.0724 -0.2710  0.0321
20208W        W36017   0.208   8.865   3.310 -0.1561  0.0330 -0.1038
20209W        W36018   0.105   5.534   4.842  0.0662  0.1688  0.3876
20210W        W36019   0.793  11.396   4.530 -0.1041 -0.1055 -0.2441
20211W        W36020  12.441  17.307   4.276 -0.0993  0.2671 -0.0569
20212W        W36021   7.980   5.060   4.994 -0.0400  0.1600 -0.1754
20213W        W36022  11.029  10.333  15.090 -0.0558 -0.1055 -0.2087
20214W        W36023   6.304   3.458  15.513 -0.0453 -0.1970  0.0520
20215W        W36024   8.326   4.768  15.690 -0.1828  0.0711  0.1377
20216W        W36025   5.113   8.794   3.298  0.0615 -0.0508  0.1604
20217W        W36026  17.667  10.618  15.478 -0.1533  0.1753 -0.0552
20218W        W36027   5.600  14.615   4.454 -0.1332  0.3177 -0.2157
20219W        W36028  13.630   2.118   0.697  0.2837 -0.0523  0.2766
20220W        W36029  11.718   4.389   5.739  0.1580  0.3364 -0.1226
20221W        W36030  11.074  16.461   0.117 -0.0137  0.1285  0.2122
20222W        W36031   6.344   8.883   0.326  0.0709  0.1096 -0.3009
20223W        W36032   4.418  11.101   5.390  0.2023  0.2153  0.3565
20224W        W36033   6.136   2.769  11.157  0.1777  0.3227  0.0297
20225W        W36034   1.076   7.411   4.481 -0.0328 -0.1633  0.0127
20226W        W36035  13.974  12.589   1.288  0.0989 -0.1482  0.2404
20227W        W36036   7.450  15.074   0.611  0.0795  0.2779  0.0450
20228W        W36037  10.366   3.799  12.693  0.2100 -0.1751  0.0685
20229W        W36038  13.081   2.517   3.086  0.1234 -0.2576 -0.2073
20230W        W36039   3.379   1.730  15.153  0.2140  0.1056  0.1081
20231W        W36040   8.079   1.498  14.251 -0.1244 -0.1083  0.2410
20232W        W36041   4.646  12.016   0.311 -0.2060 -0.1765 -0.2069
20233W        W36042   1.123   0.652  13.901  0.1375 -0.1556  0.1083
20234W        W36043  12.152   8.353  14.252  0.2657  0.3991  0.0629
20235W        W36044  16.155   9.068   4.082  0.0820 -0.0977 -0.1870
20236W        W36045   5.590   6.215   2.439  0.1281 -0.1730  0.0342
20237W        W36046   7.526  10.713  12.700 -0.0637  0.0359  0.2498
20238W        W36047   9.852   3.437   4.454 -0.2020  0.0009  0.4120
20239W        W36048   5.252   5.416   4.529 -0.3085 -0.6432 -0.3579
20240W        W36049   5.620   0.404   1.844  0.1671  0.3218 -0.2792
20241W        W36050   6.056  15.464  15.286 -0.1804  0.1017 -0.2669
20242W        W36051  13.869   3.026   2.096 -0.1590 -0.0717  0.0167
20243W        W36052  17.440  16.728  12.199 -0.0078  0.1191  0.1858
20244W        W36053   4.475   5.961   4.416 -0.2737 -0.0583  0.0054
20245W        W36054  11.766   6.720   4.715  0.1614  0.1296 -0.0125
20246W        W36055  11.176   8.174   0.670 -0.0752  0.1046 -0.3780
20247W        W36056  14.796   7.983  11.648 -0.0635  0.0462  0.2092
20248W        W36057   9.508  15.971  12.399 -0.0740 -0.0671 -0.2748
20249W        W36058   4.390  10.506   3.540 -0.2128 -0.1624 -0.1020
20250W        W36059   9.972  12.810   0.027 -0.1377  0.1672 -0.0810
20251W        W36060   3.684  15.948   2.732 -0.1217  0.1713  0.1907
20252W        W36061   8.242  11.731   0.852 -0.1120  0.2307 -0.1322
20253W        W36062  18.008   1.071  15.544 -0.0862  0.1774 -0.0031
20254W        W36063  12.772   3.255   5.900  0.0972 -0.3673  0.0414
20255W        W36064   8.842   2.987   4.013 -0.3088 -0.1270 -0.2728
20256W        W36065   4.474   4.308   4.235 -0.1339  0.3202 -0.0301
20257W        W36066  14.545   4.298  13.223 -0.1253 -0.1563  0.0866
20258W        W36067   8.741  15.660   4.134 -0.4461 -0.4267  0.0084
20259W        W36068  17.024  10.347   0.445 -0.0880  0.2201  0.1480
20260W        W36069   2.117   5.690  14.351 -0.1131  0.2879 -0.3323
20261W        W36070   9.541   5.557  11.092  0.0654 -0.0129  0.0582
20262W        W36071   2.272  12.135   1.283  0.2788  0.3182 -0.3235
20263W        W36072   1.849   0.394   3.937  0.1952 -0.0519 -0.0837
20264W        W36073   8.701   1.352   5.369  0.1374 -0.0078  0.0759
20265W        W36074   4.568   8.675  12.245  0.0830 -0.1362 -0.1428
20266W        W36075   5.341  17.887  15.589 -0.1601  0.2355 -0.4270
20267W        W36076   0.501   8.417   1.873  0.0518 -0.1729  0.1946
20268W        W36077   0.421   2.368   3.191  0.0281 -0.0680  0.0627
20269W        W36078  17.522   8.350   3.594 -0.2147 -0.0384 -0.0251
20270W        W36079   3.651   0.379  11.541 -0.2705  0.2585  0.1947
20271W        W36080   8.711  15.846   1.122 -0.0952 -0.0751 -0.1573
20272W        W36081  14.852  13.363   2.324  0.0161 -0.2657 -0.0148
20273W        W36082  16.179   0.657   2.903 -0.1772  0.0121 -0.1127
20274W        W36083  12.278   3.673   2.855 -0.1674 -0.1911  0.0995
20275W        W36084   2.263  16.932   1.565  0.2260 -0.2348  0.1461
20276W        W36085  13.787  13.774   3.153 -0.0416 -0.0905  0.0377
20277W        W36086   4.262  18.153   6.000 -0.0744 -0.1783  0.0783
20278W        W36087   5.363  16.563   5.153  0.0949 -0.0114 -0.0933
20279W        W36088  10.378   6.077   5.729  0.0475  0.1365 -0.0155
20280W        W36089   1.735  16.065  14.157  0.0304 -0.0750 -0.1114
20281W        W36090  11.791   7.037   3.720  0.1518 -0.2778 -0.2833
20282W        W36091  15.362   0.048  10.723  0.0369 -0.4844 -0.1038
20283W        W36092  16.356   7.904  13.064  0.2613  0.1012  0.2974
20284W        W36093  17.454  10.216   1.233 -0.2337 -0.0139  0.4452
20285W        W36094   8.684  13.880   0.021 -0.1884 -0.1046  0.0722
20286W        W36095   6.217  13.103   4.993  0.0669 -0.1115 -0.0555
20287W        W36096   2.604   1.767   0.531 -0.0675 -0.2387 -0.2562
20288W        W36097  14.473   5.783  13.554  0.0311  0.0612 -0.0028
20289W        W36098  10.669   9.193  11.425 -0.0165 -0.1511 -0.0374
20290W        W36099  14.785   1.905   4.794  0.0857  0.1407 -0.1413
20291W        W36100   2.794  11.766   1.941  0.0660 -0.0802 -0.1857
20292W        W36101   9.478   7.016  15.531  0.1544  0.1807  0.0110
20293W        W36102  15.005   4.168   2.265  0.1540 -0.0722  0.1950
20294W        W36103  10.506  12.327   0.454  0.0832 -0.0089  0.3614
20295W        W36104  16.412  16.120   5.083  0.0281  0.2592 -0.0476
20296W        W36105  17.420   3.893   2.833 -0.0375  0.0519 -0.1778
20297W        W36106  14.708  14.852  11.756  0.0532  0.2442 -0.1673
20298W        W36107  13.433   0.068  11.469 -0.2271 -0.0807  0.1743
20299W        W36108   6.621  13.812   2.968  0.1258  0.3897 -0.0916
20300W        W36109  13.869  11.221  15.578 -0.1377 -0.1854 -0.0635
20301W        W36110  12.471  12.020   1.471  0.0949  0.0693 -0.2567
20302W        W36111  14.818   1.075   2.514  0.2404 -0.4263 -0.1495
20303W        W36112   2.066   0.307   2.025  0.1960 -0.1934  0.1570
20304W        W36113   4.362   8.247   2.153  0.0939 -0.0038 -0.3480
20305W        W36114  12.868   8.496  12.329 -0.1449  0.0181  0.0348
20306W        W36115  17.283   4.252   2.522  0.2230  0.2417  0.1781
20307W        W36116  12.616   2.764   0.200  0.1673 -0.2559 -0.0740
20308W        W36117   3.107  12.257  10.952  0.0554  0.1493  0.5723
20309W        W36118  13.624   0.921   4.656  0.0838  0.2403 -0.0760
20310W        W36119  17.224  14.289   3.289 -0.2702  0.0695 -0.0265
20311W        W36120  13.978   1.024   2.341  0.1189  0.1337 -0.0470
20312W        W36121   0.900   6.918   0.959  0.2502 -0.2577  0.1724
20313W        W36122  14.023   0.839   4.301 -0.1029  0.1305  0.1899
20314W        W36123  13.147  16.082  13.566  0.2696 -0.1711  0.1882
20315W        W36124   3.557   0.791  10.272  0.2235  0.0177 -0.0911
20316W        W36125   8.441   9.421  13.178  0.1256 -0.0386 -0.2788
20317W        W36126   8.224  16.159   3.711 -0.2173 -0.3080 -0.1892
20318W        W36127  12.810  12.215   5.330  0.1517 -0.0239  0.1760
20319W        W36128   4.368   5.519   2.916  0.2878 -0.0282 -0.1152
20320W        W36129   6.975   0.953   0.708 -0.0042 -0.0226  0.0861
20321W        W36130  11.839  13.827   5.998 -0.1836  0.0693 -0.2154
20322W        W36131  15.102  18.177  11.338 -0.3669 -0.2198 -0.0036
20323W        W36132  17.504   7.870  14.788 -0.2110 -0.0147 -0.0734
20324W        W36133  10.372   3.076   0.265 -0.1530  0.1620 -0.0125
20325W        W36134  16.421   7.395  15.148 -0.1406 -0.1202  0.0009
20326W        W36135   9.497   3.991  13.331 -0.0186 -0.0083 -0.1038
20327W        W36136   3.310  14.504  14.262  0.1726  0.1307  0.0145
20328W        W36137  12.917   4.357  12.310 -0.0037 -0.1650  0.2154
20329W        W36138  11.913  14.774   0.051 -0.0546  0.0797 -0.0714
20330W        W36139   5.313   6.474  15.205  0.1379 -0.0124 -0.0260
20331W        W36140   4.240  14.611   1.377 -0.1723 -0.4549  0.2488
20332W        W36141   7.169   3.276   1.138 -0.0515 -0.0876 -0.0821
20333W        W36142   6.029  17.028  15.811  0.3497  0.1290  0.0985
20334W        W36143  13.965  14.335   1.492  0.1786  0.0198 -0.1233
20335W        W36144   2.464   7.638  14.579 -0.0439 -0.1655  0.2176
20336W        W36145   3.310   0.839  14.602 -0.1292 -0.1188  0.2524
20337W        W36146   2.721   5.834  15.463  0.1335 -0.0864 -0.0618
20338W        W36147   0.204  10.851  11.102  0.0864 -0.0730 -0.0169
20339W        W36148  10.095   9.621   0.969  0.0954 -0.0058 -0.3038
20340W        W36149   0.140   1.963   3.042  0.0976 -0.2071 -0.0571
20341W        W36150   5.417   8.627   5.330 -0.2237 -0.2586  0.2003
20342W        W36151  18.217  16.808   1.702  0.4405 -0.0849  0.1310
20343W        W36152   0.274   0.242  13.956 -0.1262 -0.0298  0.2343
20344W        W36153   6.265   0.293  14.567 -0.0005  0.0195  0.2508
20345W        W36154  10.974  17.501   1.489 -0.3315 -0.0323 -0.0498
20346W        W36155   6.238   2.991   2.050 -0.1207  0.2578 -0.1704
20347W        W36156  15.080  16.768   2.985  0.3550 -0.1151  0.2146
20348W        W36157   7.434   2.655   3.800 -0.2126  0.1322  0.2287
20349W        W36158  12.966   4.868   2.853 -0.0685  0.2227 -0.0672
20350W        W36159   2.466   9.263  11.036 -0.0373  0.2135  0.2033
20351W        W36160   9.822   3.183  14.353 -0.2239 -0.0403  0.0696
20352W        W36161  17.881   4.606  13.974 -0.0580 -0.0850  0.0488
20353W        W36162  12.727   0.213   4.677 -0.2126 -0.0121 -0.1783
20354W        W36163   0.396  15.368   2.960  0.2411  0.1511 -0.0632
20355W        W36164  13.709   0.896   3.163 -0.2238  0.2422  0.3096
20356W        W36165   1.275  10.513  12.313 -0.1171 -0.0088 -0.3353
20357W        W36166   8.149   1.434   3.015 -0.1059 -0.0592 -0.0074
20358W        W36167   1.121  16.288   0.500 -0.0221  0.3460 -0.1014
20359W        W36168  17.283   6.435  12.679  0.0430 -0.0002  0.0661
20360W        W36169  18.023  14.636  12.255 -0.0346 -0.0359  0.1164
20361W        W36170   3.993  13.383   5.341  0.1130 -0.0272  0.0528
20362W        W36171  11.639  10.036  14.699  0.0168 -0.0591 -0.1272
20363W        W36172  10.677  14.049   0.928  0.1680 -0.1908 -0.0323
20364W        W36173  13.336   3.957  14.650  0.0006  0.0699  0.1217
20365W        W36174  10.549   6.861  11.679  0.2001 -0.0750  0.1100
20366W        W36175  14.245  16.184  15.580  0.1224 -0.0450 -0.0502
20367W        W36176   6.450   6.039   3.309 -0.1219 -0.1855 -0.0934
20368W        W36177   1.644   1.244  15.576 -0.1878  0.3876  0.1844
20369W        W36178   1.952   1.816  13.213 -0.1639 -0.2443 -0.2502
20370W        W36179   4.952   6.634   2.927  0.2958 -0.1083  0.0302
20371W        W36180   4.135  17.580  12.850 -0.2975 -0.0831  0.1934
20372W        W36181   0.062  10.194  11.979 -0.1267  0.0212 -0.3177
20373W        W36182   6.233  12.971   0.390 -0.2041  0.0351  0.0822
20374W        W36183   0.653   4.171  14.017 -0.1812  0.1069  0.0186
20375W        W36184   0.310  13.498  13.508 -0.1192 -0.2694  0.2193
20376W        W36185   3.871   4.249   5.052  0.0109 -0.1166  0.2871
20377W        W36186   3.302   3.777  14.778  0.0354 -0.3953 -0.0282
20378W        W36187   8.126  10.999  11.262 -0.0929 -0.0039 -0.0093
20379W        W36188  15.084  16.822   0.630 -0.0372 -0.1149  0.2006
20380W        W36189  16.585   3.289   5.161 -0.1122  0.2683 -0.3130
20381W        W36190  13.456  10.981  15.503  0.1928 -0.3073  0.4720
20382W        W36191  16.951  13.518   2.099 -0.1796 -0.1307  0.0454
20383W        W36192  12.539   2.133  11.037 -0.4439 -0.3101 -0.0339
20384W        W36193  17.956   2.665   1.664  0.1589  0.0423  0.0289
20385W        W36194   7.504   7.764   1.636 -0.1318  0.2090  0.0225
20386W        W36195  14.749   2.318  13.081 -0.0963 -0.1540 -0.2954
20387W        W36196  17.798  16.314  13.303 -0.0879  0.3239 -0.2331
20388W        W36197   0.982   4.652  15.370  0.2734 -0.0600 -0.0011
20389W        W36198   9.094  11.763   9.982 -0.1268 -0.0159  0.0540
20390W        W36199  11.476  17.199  13.099  0.1933  0.0175 -0.1279
20391W        W36200  14.323   2.825   5.812  0.0906 -0.1201  0.0135
20392W        W36201  11.979  17.509   3.972  0.0116 -0.2646 -0.0136
20393W        W36202   1.200   6.314   4.950  0.2663  0.0199  0.2275
20394W        W36203  10.589  15.293  11.104  0.4603 -0.1290 -0.1747
20395W        W36204   8.266   3.701   4.600  0.0922 -0.0982 -0.1766
20396W        W36205   4.877  14.784  15.314 -0.2184 -0.1424  0.1147
20397W        W36206   8.252   4.933   0.510 -0.2041 -0.3784 -0.0561
20398W        W36207   0.502  13.808   4.408  0.0334 -0.0278 -0.1132
20399W        W36208  11.266  17.950  10.938  0.1061 -0.2193 -0.1775
20400W        W36209  15.780   5.434  10.661  0.2769 -0.1089 -0.1815
20401W        W36210   4.384  14.116  10.233  0.1892  0.0626 -0.2177
20402W        W36211   3.842  15.684  15.153 -0.0490 -0.1458 -0.1106
20403W        W36212   0.954  16.607   3.368 -0.0174  0.4638 -0.4231
20404W        W36213  14.517   4.707  14.195 -0.0126 -0.1885 -0.2040
20405W        W36214   3.758  14.121  15.112 -0.0623 -0.0790  0.1127
20406W        W36215   6.665   9.046   3.882  0.1189  0.1943 -0.0433
20407W        W36216   7.382   2.011  15.206 -0.0880  0.0451  0.1986
20408W        W36217   0.380   2.881   0.926 -0.1509  0.1052 -0.1917
20409W        W36218   5.629  16.580   3.464 -0.1071  0.1510 -0.4630
20410W        W36219  10.067  14.696   1.098  0.1115 -0.1223 -0.2336
20411W        W36220   2.927   6.853  12.420  0.0759  0.3827  0.3690
20412W        W36221   7.780   8.534   0.965  0.1848  0.2885 -0.1112
20413W        W36222  11.516   9.640  15.352 -0.2366 -0.0967  0.0941
20414W        W36223   4.126   2.717  16.042 -0.3213 -0.0568  0.1310
20415W        W36224   9.484  17.437   4.514  0.0148 -0.2308  0.1163
20416W        W36225   7.730   7.444   3.716  0.0333  0.0940 -0.1773
20417W        W36226   5.803   1.626   5.376  0.1063  0.2420 -0.0015
20418W        W36227  13.379   9.593  15.594 -0.0664  0.1602  0.0583
20419W        W36228   6.088   7.028  11.458 -0.2789 -0.1056  0.0821
20420W        W36229   4.292   8.210   0.433  0.0974 -0.1880  0.3090
20421W        W36230  17.452   6.405  11.709 -0.0173  0.0382 -0.2371
20422W        W36231  15.650  15.483  11.043 -0.0072 -0.0827 -0.0152
20423W        W36232   4.096  14.259   1.729 -0.0170 -0.0914 -0.1175
20424W        W36233  16.313   6.717   0.119  0.2524 -0.5290  0.0326
20425W        W36234   8.555   0.964   0.115 -0.2150 -0.2107 -0.1163
20426W        W36235  11.244  17.276   0.520 -0.0584 -0.0248  0.2847
20427W        W36236   0.879   2.777   0.909  0.1148  0.2122 -0.0999
20428W        W36237   2.414   9.018  11.464  0.1287  0.1713  0.1520
20429W        W36238   3.644  13.685  14.824 -0.1528  0.1582 -0.0667
20430W        W36239  17.325  14.393  11.399  0.0110  0.0692 -0.0063
20431W        W36240  12.994   3.233   3.327 -0.0714 -0.0845  0.2002
20432W        W36241   2.602  15.550  11.849  0.2101 -0.1001 -0.0003
20433W        W36242   0.121  10.219   4.005 -0.3661 -0.1955  0.1269
20434W        W36243   8.000  11.223  12.954  0.2880 -0.1553 -0.0581
20435W        W36244  17.657  11.520  14.508 -0.1544  0.1475  0.1455
20436W        W36245   5.166  15.368  13.947 -0.4792 -0.1798  0.2500
20437W        W36246   2.685   0.424  11.678  0.2062 -0.1934  0.0925
20438W        W36247   9.782   0.005   3.437 -0.1811  0.0108  0.2140
20439W        W36248  11.546  16.697  13.007  0.0502  0.0341  0.1626
20440W        W36249  11.528  14.190  11.306 -0.3264 -0.0365  0.2521
20441W        W36250  16.243   7.318  11.642 -0.0910  0.0242 -0.1007
20442W        W36251   1.775   7.944  12.065  0.1780 -0.3800 -0.3719
20443W        W36252   2.517   1.082  14.168 -0.2229 -0.2588  0.4344
20444W        W36253   8.368   7.759  12.283  0.1275  0.3070  0.0309
20445W        W36254  17.686  15.744   3.276 -0.1564 -0.0418 -0.1644
20446W        W36255  16.349  17.207  10.876 -0.0273  0.0652 -0.1620
20447W        W36256  16.046   2.113  12.040 -0.1609  0.2286 -0.2079
20448W        W36257   0.956   6.133  15.226  0.0293  0.0939 -0.1056
20449W        W36258  17.519   7.377  15.576  0.3371  0.2219 -0.1440
20450W        W36259  11.782   0.333   0.774 -0.0069 -0.0333  0.0220
20451W        W36260  10.112   3.374   3.404  0.0915  0.0843  0.1298
20452W        W36261  13.774   4.723  11.138 -0.0471  0.0784  0.3053
20453W        W36262  17.807  11.921  13.882  0.2708 -0.1563  0.0403
20454W        W36263   2.458   7.964   0.767 -0.0243 -0.1615 -0.0397
20455W        W36264   8.114  10.768  15.287  0.0696  0.3030  0.1622
20456W        W36265  15.957   6.968   0.285 -0.0313  0.2701 -0.0562
20457W        W36266  13.093   6.202  15.693  0.1155  0.2279 -0.1796
20458W        W36267  16.587  16.281   1.254  0.0350  0.1946  0.1436
20459W        W36268   9.833   7.999   2.103  0.0411  0.0702  0.0576
20460W        W36269  16.752   8.340  13.708 -0.1375  0.0727 -0.0625
20461W        W36270  16.636  15.046   0.016  0.0771  0.0695  0.0682
20462W        W36271   2.607  11.746  12.688 -0.2361  0.1405  0.1887
20463W        W36272  14.956  10.391   2.180  0.2044 -0.1280  0.1310
20464W        W36273   5.422  15.543  15.699 -0.3375  0.1032 -0.0526
20465W        W36274   7.787   1.617  15.309 -0.0267 -0.0725  0.1430
20466W        W36275   9.594   5.182  15.091 -0.2166  0.3145 -0.5290
20467W        W36276  15.256  15.670  15.259 -0.2463  0.2700  0.2242
20468W        W36277  11.306  17.679  13.163 -0.1947  0.1548  0.3862
20469W        W36278   1.441   0.574  13.220  0.0887 -0.2082 -0.2237
20470W        W36279   9.777   9.505   4.698  0.2264  0.3187  0.5093
20471W        W36280   0.306  17.499   0.561 -0.3591 -0.0912  0.0791
20472W        W36281   9.655  15.120  10.471  0.4150 -0.2595  0.0661
20473W        W36282   5.525  10.641   3.469 -0.1629 -0.1696  0.1763
20474W        W36283   3.094  13.438  10.390 -0.3193  0.0167 -0.0232
20475W        W36284   2.254   5.288  10.588 -0.2405 -0.0085 -0.0925
20476W        W36285   7.166   8.248   2.985  0.0475  0.1302 -0.1708
20477W        W36286  11.324  14.486  14.849  0.0566  0.1074  0.1058
20478W        W36287  17.983  12.094  12.511  0.0100  0.0528  0.0735
20479W        W36288  14.549   2.522  14.570 -0.1256 -0.0630  0.0703
20480W        W36289   2.563  17.725   3.885  0.2205 -0.0643 -0.1588
20481W        W36290  12.468   5.615   2.850 -0.0624 -0.0737 -0.0683
20482W        W36291  16.254   5.164   4.218  0.1400 -0.0984 -0.0010
20483W        W36292   0.317   1.712  15.641 -0.0765 -0.1747  0.1140
20484W        W36293   0.581  15.808  12.315  0.1145 -0.0278 -0.1130
20485W        W36294  14.518  14.263  11.148 -0.2987 -0.0484 -0.0017
20486W        W36295  11.838   1.248  14.219  0.0860 -0.0859  0.2150
20487W        W36296   2.197   8.167  11.859  0.2086 -0.0548 -0.1968
20488W        W36297   1.044  16.684   5.085  0.0282  0.0095 -0.1937
20489W        W36298   0.054   8.628   0.512 -0.0567  0.0334  0.0450
20490W        W36299  15.070  14.677   2.870 -0.2046  0.0792 -0.1197
20491W        W36300  13.739  14.751   1.694  0.0753  0.1979  0.1453
20492W        W36301  15.801  14.656   5.559  0.1843  0.0268  0.1596
20493W        W36302   9.956   0.219   5.278  0.0757  0.2730 -0.1369
20494W        W36303   8.158  15.217   4.678  0.1122 -0.0714  0.3293
20495W        W36304   6.185  11.117   4.651 -0.1243  0.0351  0.1487
20496W        W36305  18.205  10.966  14.422 -0.0950 -0.0744 -0.0144
20497W        W36306   5.923   1.371  13.239  0.0357 -0.0435  0.2143
20498W        W36307   6.405   2.754   5.696  0.1451  0.0336 -0.1777
20499W        W36308  16.043  11.253  15.910  0.0229  0.2695  0.0070
20500W        W36309   2.498  16.711  12.581 -0.0817 -0.0787 -0.1041
20501W        W36310   8.606   1.324  14.658  0.0508  0.0290  0.1252
20502W        W36311   7.116  10.549   2.153 -0.0140 -0.2543 -0.0430
20503W        W36312   7.818   5.831   0.309  0.1718 -0.0450  0.3242
20504W        W36313   8.989  14.800  14.656  0.0064 -0.1195 -0.2210
20505W        W36314  16.212  11.900  11.500  0.0639 -0.0888  0.3164
20506W        W36315  10.718   2.481   2.342 -0.1492 -0.3104  0.0805
20507W        W36316   9.227   5.503  15.245  0.0842  0.2108 -0.4578
20508W        W36317   4.701  11.871   4.996  0.0341  0.0325 -0.0710
20509W        W36318  15.421  12.274  11.785 -0.5052  0.2958  0.0677
20510W        W36319  14.252  11.315   2.765 -0.2760 -0.1309  0.0675
20511W        W36320  17.627   8.957  13.312  0.0385  0.1782 -0.0974
20512W        W36321  10.475  13.562  14.438 -0.0148 -0.0075  0.3518
20513W        W36322   0.003  13.600   2.711 -0.2037 -0.0411 -0.2236
20514W        W36323  10.786   9.909   0.236  0.0383  0.0264 -0.2967
20515W        W36324   1.978   6.549  11.547 -0.0092 -0.1080 -0.0164
20516W        W36325   0.784  15.278   3.784 -0.0700 -0.1037  0.1013
20517W        W36326   9.588   2.438  11.901 -0.0212 -0.4188 -0.1875
20518W        W36327   4.323   2.741   4.888 -0.1155  0.0159 -0.1142
20519W        W36328  15.992  16.910   5.148  0.0166 -0.5072 -0.0778
20520W        W36329  15.407   0.200  12.576  0.0691  0.2401 -0.1501
20521W        W36330   3.729  11.417  13.713  0.1248 -0.0379  0.3249
20522W        W36331  13.965  17.181  11.492 -0.2217 -0.3847  0.0723
20523W        W36332  17.126   7.054   1.303  0.1284 -0.4371 -0.1005
20524W        W36333  12.322  16.254  15.713  0.1442  0.4762 -0.0629
20525W        W36334  11.466   0.396   3.234  0.0228 -0.0063  0.0472
20526W        W36335   4.821   9.552  11.985  0.1271 -0.1741  0.2357
20527W        W36336  11.221   9.004   4.768  0.0886  0.3346 -0.2867
20528W        W36337  10.348  17.251   1.880  0.1560  0.1292 -0.0790
20529W        W36338   6.862   8.822   5.259  0.1741 -0.2845  0.1672
20530W        W36339  17.211   8.813   0.379 -0.0702 -0.1765  0.2566
20531W        W36340   0.108  15.116  12.585 -0.0033  0.1353 -0.1678
20532W        W36341   9.235   6.360  11.475  0.3111 -0.3434  0.0210
20533W        W36342   8.160   5.287   2.991  0.0567 -0.1683  0.2726
20534W        W36343  13.691  15.792   0.197  0.1753  0.1283 -0.1579
20535W        W36344  18.100   4.218   1.651  0.1859  0.1286  0.0458
20536W        W36345   8.702   1.962  14.092 -0.0257  0.2350 -0.0594
20537W        W36346   1.130   7.712   5.282 -0.1215  0.0588  0.0778
20538W        W36347   4.342   6.022   1.728 -0.1272 -0.0798  0.1913
20539W        W36348   6.374   5.432   0.261 -0.2218  0.3624  0.2638
20540W        W36349  10.280  11.606   3.541 -0.3591  0.1352 -0.0323
20541W        W36350  12.003   9.320  12.814 -0.1333 -0.2267  0.1246
20542W        W36351   2.697   8.839   4.438 -0.1183 -0.1544 -0.0251
20543W        W36352  11.536  12.095  15.591  0.1754  0.1361 -0.1345
20544W        W36353  13.279  17.797   0.895  0.0404 -0.2264 -0.1642
20545W        W36354   6.398   5.174  13.893  0.1046 -0.1165 -0.0188
20546W        W36355  11.870   1.312   1.041  0.1683 -0.0496  0.0434
20547W        W36356   4.956   7.953   3.346  0.0144 -0.2319 -0.0144
20548W        W36357  16.165   5.832  14.804  0.0384 -0.4143  0.1469
20549W        W36358  16.703   3.798  14.645 -0.1171  0.2128  0.1256
20550W        W36359   7.571   4.822   0.515 -0.2038  0.0341 -0.0760
20551W        W36360  10.444   9.209  14.347 -0.0203  0.2797  0.0025
20552W        W36361   0.230   1.291   2.315 -0.2056 -0.2709  0.0663
20553W        W36362   1.675  10.591  11.977  0.0300 -0.0305  0.1297
20554W        W36363  14.554   0.070  15.977  0.2819  0.0802 -0.1485
20555W        W36364  13.974  16.540  15.786  0.1383 -0.2352  0.2467
20556W        W36365  15.290   9.307   3.604 -0.2185 -0.1216 -0.0373
20557W        W36366   9.075  11.652   2.967  0.0780  0.2305 -0.0690
20558W        W36367  10.649   6.295  11.650  0.0970 -0.1414 -0.1287
20559W        W36368   9.659   8.438   0.680  0.3054 -0.0108  0.1793
20560W        W36369   6.138  15.382  11.925 -0.0650  0.1062 -0.1822
20561W        W36370  12.486   4.118   0.721 -0.4468 -0.1118 -0.3396
20562W        W36371  15.600  14.999   5.201 -0.0337  0.0976  0.0502
20563W        W36372  10.199   8.061  15.982 -0.1386 -0.2073  0.0259
20564W        W36373  18.072   5.747   3.208  0.2387 -0.1830  0.1744
20565W        W36374   5.827  12.276   3.879  0.0899 -0.1216  0.0296
20566W        W36375  16.781   8.389  12.131  0.0298 -0.0150 -0.0020
20567W        W36376   1.385   6.126   1.973 -0.0942 -0.0321 -0.0766
20568W        W36377   6.881   6.284  15.132  0.1009 -0.1421 -0.0820
20569W        W36378  15.091  17.106  14.690 -0.4041  0.2562 -0.0907
20570W        W36379  13.963  15.547  11.943  0.2210  0.0255 -0.2416
20571W        W36380  14.014   1.695  13.226  0.3689  0.0669  0.1927
20572W        W36381   5.349  17.115   5.228  0.0684 -0.1698 -0.0847
20573W        W36382  10.284   5.930  14.085 -0.0852  0.1013  0.1289
20574W        W36383  16.700  11.247   1.341  0.1645 -0.0135 -0.1243
20575W        W36384  15.630   0.580  13.369  0.1921  0.0606  0.1393
20576W        W36385  16.308  13.474  12.149 -0.2898  0.2987  0.0265
20577W        W36386  12.186   0.039   2.580 -0.0168  0.1003 -0.0906
20578W        W36387   2.807   6.410  14.178 -0.5030  0.0093 -0.4209
20579W        W36388   3.408   7.076   3.731 -0.2021  0.1718  0.0605
20580W        W36389  16.210  14.988  14.113 -0.2224  0.1321  0.1882
20581W        W36390   0.752  17.082   5.011  0.1353  0.0236 -0.5449
20582W        W36391  12.438   0.001  12.970  0.0909 -0.2319 -0.2187
20583W        W36392   6.004   9.914   2.954  0.0706  0.0138  0.0609
20584W        W36393   3.729  16.591  11.913  0.2471 -0.0067  0.2591
20585W        W36394   3.305  16.448   5.173  0.0774 -0.2587 -0.0731
20586W        W36395   3.402   6.403  11.823 -0.0868 -0.2081 -0.1913
20587W        W36396   7.834  15.244  11.636 -0.2065 -0.3143  0.0721
20588W        W36397  10.262   0.867   0.268 -0.1267  0.0546  0.0573
20589W        W36398  10.770   0.592  13.272 -0.0250 -0.0546  0.0269
20590W        W36399  12.574   8.581   4.504 -0.1437  0.1205 -0.2480
20591W        W36400  16.299   9.052   5.891 -0.1986 -0.0585  0.1459
20592W        W36401  13.065   4.336  15.362 -0.1602  0.0507 -0.0449
20593W        W36402  11.568  14.998  15.566  0.2364  0.2070  0.0130
20594W        W36403   0.850   2.169  14.494  0.0009 -0.0416 -0.0528
20595W        W36404  15.503   3.828  11.205  0.0967  0.0723 -0.1695
20596W        W36405  15.127   3.101  14.219  0.2068  0.1053  0.2646
20597W        W36406   4.541   5.930  11.499 -0.2723 -0.2801  0.0411
20598W        W36407   8.586   1.604   1.525  0.2861 -0.0945 -0.0104
20599W        W36408   2.092  17.311   0.345 -0.1699 -0.0629  0.2931
20600W        W36409   4.631   0.125   3.794 -0.1900  0.0473  0.2274
20601W        W36410  17.280   6.354   5.133  0.2733 -0.0646 -0.0789
20602W        W36411  17.479   9.670   2.817 -0.2620  0.0416  0.1341
20603W        W36412  10.578  11.831   0.858  0.1407 -0.0351  0.2012
20604W        W36413   6.094   3.935  15.309 -0.3663 -0.1762 -0.1263
20605W        W36414   7.725   6.566   0.393 -0.1327  0.0104  0.1746
20606W        W36415  13.752   7.344  13.819 -0.2681  0.1269  0.2196
20607W        W36416   1.638   7.087  12.452  0.1242  0.1151 -0.3682
20608W        W36417   5.224  14.555  11.518 -0.1001 -0.1247 -0.1838
20609W        W36418   0.048   0.019   0.443  0.0428  0.0750  0.0227
20610W        W36419  10.631   8.838  12.993  0.0065 -0.2212  0.2518
20611W        W36420  10.005  13.392   3.999 -0.0077  0.0854 -0.0329
20612W        W36421  17.066  12.806   3.894  0.0221 -0.1287  0.0348
20613W        W36422  11.231   1.667  12.940 -0.2315  0.1582 -0.0838
20614W        W36423  11.193  14.742   0.327 -0.1613  0.1543 -0.0992
20615W        W36424  15.876   4.335   4.261 -0.1348  0.2102 -0.1828
20616W        W36425   6.586   0.276   3.198  0.2240  0.0480 -0.0608
20617W        W36426  17.448   8.782   3.354 -0.4630 -0.0503 -0.0404
20618W        W36427  11.148  12.106  13.594 -0.4157 -0.3092  0.0831
20619W        W36428   5.988   6.527   4.573 -0.1742 -0.3346  0.0487
20620W        W36429  11.525  12.646   4.857 -0.2586  0.1214  0.0685
20621W        W36430  15.044  16.929   5.366  0.0653  0.0332  0.0529
20622W        W36431  11.701   3.482  12.258 -0.1659 -0.0453 -0.0710
20623W        W36432   7.901  15.023  15.182  0.0254 -0.0606  0.0406
20624W        W36433   7.598   6.594  12.252 -0.0058 -0.1731 -0.2745
20625W        W36434   4.665  10.922  15.223 -0.2528  0.2684  0.2423
20626W        W36435   1.575   4.748   4.308  0.2791 -0.2899  0.2598
20627W        W36436  16.064  17.099   0.339 -0.2661 -0.0388 -0.2703
20628W        W36437  11.186  11.970   0.008 -0.0769 -0.1448  0.0952
20629W        W36438   0.135   6.053   1.906  0.2467 -0.2287 -0.0290
20630W        W36439   3.866   8.426   2.667  0.0890  0.0220  0.2765
20631W        W36440  16.278   3.262   1.131  0.2639 -0.0710  0.1071
20632W        W36441   0.779   4.668   0.779  0.0153 -0.0379 -0.0836
20633W        W36442  11.222  13.935  15.639 -0.0923 -0.3092  0.2217
20634W        W36443  15.281   7.461   1.267 -0.1969  0.2711  0.0193
20635W        W36444   0.669  10.848   0.714 -0.0433  0.1187 -0.1965
20636W        W36445   8.033  11.644  10.689 -0.0269 -0.0669  0.0998
20637W        W36446   2.871   8.343   3.663  0.2163  0.0783 -0.0782
20638W        W36447   3.471   4.001  13.836 -0.0312 -0.0793  0.0804
20639W        W36448   6.752   6.542   0.718 -0.1289 -0.3207  0.0949
20640W        W36449   5.238   4.519   1.700  0.1325 -0.1843  0.3084
20641W        W36450   6.229  14.827   1.134 -0.0194 -0.2160  0.0019
20642W        W36451   5.946   6.430   5.081  0.0607  0.2204 -0.2175
20643W        W36452  11.165  11.881   1.678  0.0919  0.0053  0.1233
20644W        W36453  11.411  16.751   2.488 -0.2435 -0.3845  0.0799
20645W        W36454  15.697   9.143   4.548  0.0926  0.0593  0.0521
20646W        W36455   6.056  14.115   3.851  0.0298  0.2077  0.2886
20647W        W36456   6.353   9.060  15.494  0.3004 -0.1347  0.0195
20648W        W36457  17.754   6.820  12.342 -0.0061 -0.1850  0.1126
20649W        W36458   3.176  11.835  13.584  0.0308 -0.2601 -0.1151
20650W        W36459   1.649  11.853  15.454  0.0828  0.1643  0.5613
20651W        W36460  10.282  13.699  15.186  0.0456 -0.2606 -0.4711
20652W        W36461  14.067   4.330  11.420 -0.0737 -0.0874 -0.0325
20653W        W36462  15.609  13.400  15.780  0.0359 -0.1230 -0.2236
20654W        W36463   0.745   1.175   2.570  0.0738  0.0175  0.0492
20655W        W36464   0.833   5.348   4.743  0.1415 -0.2536 -0.0238
20656W        W36465   9.579   1.102  12.455 -0.0290 -0.2725  0.1136
20657W        W36466  17.132   6.436  12.200  0.1612  0.2931 -0.3305
20658W        W36467  14.858   0.107   2.579  0.0645 -0.0984  0.2661
20659W        W36468   8.193  17.397  11.150  0.2410  0.2180  0.3223
20660W        W36469  15.808   9.677   1.245 -0.0674  0.1036 -0.1773
20661W        W36470   2.945   5.327  12.995 -0.1454  0.1546  0.3698
20662W        W36471   5.467  15.886   4.184  0.0284  0.2693 -0.0031
20663W        W36472   3.809   5.926  15.111 -0.1501 -0.0234 -0.0416
20664W        W36473   4.674   0.657   2.160  0.1701 -0.3750 -0.2314
20665W        W36474   2.025  11.056   2.940 -0.0441  0.0098 -0.0035
20666W        W36475   8.857   5.420   5.806  0.2296  0.0848  0.1563
20667W        W36476   5.517   4.189  13.089 -0.1660  0.3459 -0.0741
20668W        W36477   6.568  12.148   1.965 -0.4356  0.1714 -0.2163
20669W        W36478  11.662   1.212   5.852 -0.0688 -0.1929  0.0690
20670W        W36479   5.040   3.922   0.607 -0.1215 -0.1253 -0.1074
20671W        W36480  14.609  14.038   1.049 -0.3697 -0.1515  0.1111
20672W        W36481  16.105  17.165   3.975  0.2838 -0.0455 -0.2539
20673W        W36482   7.666   7.163   0.927  0.2063 -0.1381  0.0030
20674W        W36483   2.419   2.810   2.320 -0.2052  0.2003 -0.0306
20675W        W36484   9.418  12.840  16.045  0.1427  0.2174 -0.0048
20676W        W36485   9.875  12.005  10.977 -0.1672 -0.1812 -0.1074
20677W        W36486  10.050   1.777  10.555  0.0428 -0.0201  0.1031
20678W        W36487   8.380   1.079   1.630  0.0972  0.0368 -0.2436
20679W        W36488  17.940   3.267   2.255 -0.0150  0.0319  0.0352
20680W        W36489   8.617   3.701   0.763  0.0346  0.2098  0.1246
20681W        W36490  14.366   2.443  13.386 -0.1893  0.0517 -0.2116
20682W        W36491   3.967   0.498   4.268 -0.0630  0.0199  0.1302
20683W        W36492   2.992  11.560  13.934 -0.0734 -0.0646  0.0863
20684W        W36493   4.209   8.493   4.395 -0.1878  0.0162  0.1681
20685W        W36494   9.112  10.636   2.276 -0.0865  0.2938 -0.0630
20686W        W36495   2.980  12.849   5.173 -0.2179 -0.0628  0.3143
20687W        W36496  10.791  13.589   1.231 -0.1798 -0.0140 -0.2485
20688W        W36497   5.050  12.868  15.239 -0.0032 -0.0923 -0.1731
20689W        W36498   6.008   0.957  14.178  0.0619  0.0559 -0.1942
20690W        W36499   1.327   6.798   3.846  0.0332  0.2883  0.0539
20691W        W36500   0.786   2.487   3.528 -0.0174 -0.2057  0.3349
20692W        W36501  12.970   1.818  12.257 -0.3339 -0.3578  0.1708
20693W        W36502   6.734   6.804   9.858 -0.2658  0.0575  0.0722
20694W        W36503   3.342  16.301   3.412 -0.1041  0.1994 -0.0862
20695W        W36504   9.646   4.254  15.593  0.2010 -0.3458 -0.1244
20696W        W36505  15.482  17.914   4.986  0.2067 -0.1325 -0.1093
20697W        W36506   9.569  13.076   1.621 -0.1044  0.0537  0.0774
20698W        W36507   4.522  13.595   1.286  0.0178 -0.0669 -0.0026
20699W        W36508  14.294   2.883  13.679  0.0728  0.0128  0.0166
20700W        W36509  14.999  11.433   4.028  0.0498  0.0704 -0.2146
20701W        W36510  18.213  16.668  11.293 -0.5160 -0.1978 -0.0913
20702W        W36511  15.144  17.823   3.411  0.2484 -0.2081 -0.1166
20703W        W36512  12.515  11.411  15.838 -0.0626  0.1740  0.1497
20704W        W36513   7.726   9.517   0.717  0.0972 -0.2103  0.1219
20705W        W36514   1.076   7.540  13.807  0.0743  0.1103 -0.2952
20706W        W36515  16.670   8.004  14.523 -0.1600 -0.1698 -0.0511
20707W        W36516   1.006  11.375  15.008  0.3615 -0.0480 -0.0073
20708W        W36517  10.240   7.900  11.786 -0.0978  0.2002 -0.3480
20709W        W36518   4.717  12.034   4.514  0.0068  0.2312  0.0597
20710W        W36519   5.050   4.484   2.995 -0.2809  0.0164 -0.0528
20711W        W36520   2.073  12.026   4.660  0.0407  0.0696  0.2659
20712W        W36521  16.429  13.857  13.430  0.2621  0.2653 -0.2128
20713W        W36522   8.025  17.384  15.150 -0.2380 -0.3032  0.0027
20714W        W36523  17.244  17.700  12.097 -0.0889 -0.0871 -0.2374
20715W        W36524   0.889  18.205  13.181  0.0178 -0.0270  0.1176
20716W        W36525   6.619  13.525  10.897  0.1407 -0.1388  0.4841
20717W        W36526  17.439   7.618   4.247 -0.0107  0.3384 -0.1285
20718W        W36527  13.227  15.687   4.222  0.0131 -0.0619 -0.2314
20719W        W36528  16.368   2.291  14.021  0.1884 -0.0234  0.0704
20720W        W36529   4.717   4.284   3.362 -0.1662  0.0834  0.2245
20721W        W36530   9.533   0.896   1.033 -0.1006 -0.0541 -0.1671
20722W        W36531  10.176   0.442   3.712 -0.1348  0.0386  0.0943
20723W        W36532   8.457  13.400  15.003  0.3816 -0.0088  0.0185
20724W        W36533   2.172   6.162   2.999  0.0590 -0.1556 -0.1939
20725W        W36534  14.982   1.571   1.730  0.1947 -0.1664  0.0811
20726W        W36535  12.925  17.854   1.276  0.3078  0.1376 -0.0246
20727W        W36536  16.180  11.877   0.932  0.0806  0.1075  0.0356
20728W        W36537  17.121  15.692  11.383 -0.0792 -0.0918  0.1493
20729W        W36538  17.446  15.667   1.458 -0.2873 -0.0331 -0.0250
20730W        W36539  15.489  12.956  12.791  0.0372 -0.2592 -0.0626
20731W        W36540  17.899  10.734  11.022 -0.1142  0.1808  0.1324
20732W        W36541   4.965   7.452   2.524  0.0906 -0.0662 -0.2971
20733W        W36542   6.418  13.441   0.624 -0.4375 -0.0264  0.0685
20734W        W36543   8.617   6.769  11.088  0.1964 -0.2395 -0.0362
20735W        W36544  17.430   7.699   0.037  0.0424  0.1801 -0.3468
20736W        W36545  17.392  18.085  12.445 -0.1544  0.0836 -0.0282
20737W        W36546  11.634  11.295   2.181  0.3808  0.0281 -0.0798
20738W        W36547   0.254   4.334  14.858 -0.1794 -0.1393 -0.0077
20739W        W36548   9.459  17.118   0.321 -0.0452  0.2054  0.0405
20740W        W36549   2.371   7.377  11.372 -0.0414  0.0183 -0.1005
20741W        W36550   6.026   7.181  12.605  0.1309  0.1699  0.1270
20742W        W36551   0.290   4.240  13.068 -0.0892  0.2470 -0.0552
20743W        W36552  11.282   8.508   3.176 -0.0393 -0.0724  0.2429
20744W        W36553  11.531   5.654   3.279  0.1852 -0.3893  0.0514
20745W        W36554   4.569   3.576   4.923  0.1455  0.2441  0.0277
20746W        W36555   8.825  15.807   2.030 -0.1387 -0.0207  0.1295
20747W        W36556  16.762   3.323  14.918 -0.1184 -0.3132 -0.0373
20748W        W36557   0.129  11.242   2.984 -0.0099 -0.0448 -0.0538
20749W        W36558  11.346   1.666   3.834 -0.0038 -0.1441  0.2648
20750W        W36559   4.150   4.172  13.762  0.0487 -0.0736 -0.1520
20751W        W36560   1.640   3.479   5.444  0.1023 -0.1174  0.1114
20752W        W36561   5.021  14.259   5.772 -0.0155 -0.0259 -0.0090
20753W        W36562   0.220  17.159  15.849 -0.1831 -0.1961  0.1676
20754W        W36563   4.367  16.579   3.191 -0.2592  0.0803  0.1873
20755W        W36564  12.137  11.050  11.825 -0.0897  0.1270 -0.0638
20756W        W36565   6.529   2.596   0.118 -0.1716  0.0590  0.0620
20757W        W36566  17.884  10.849   0.640  0.0862 -0.2298  0.0398
20758W        W36567   9.209  14.335  11.408  0.0412 -0.0594 -0.0571
20759W        W36568   9.521   4.823   4.391 -0.0383 -0.0150  0.0245
20760W        W36569   0.047   0.583  14.821 -0.2276 -0.0303 -0.0958
20761W        W36570   3.780   2.672  15.672 -0.0619  0.3814  0.2090
20762W        W36571  14.458   9.081  11.802 -0.2798 -0.2088  0.0397
20763W        W36572  11.656  14.241  10.812  0.3956  0.3283 -0.1593
20764W        W36573   5.983  16.636   4.170  0.0381  0.2886 -0.2888
20765W        W36574   2.815   7.149  15.743  0.0581 -0.6193 -0.1663
20766W        W36575   6.842  13.067  12.693  0.0011  0.0385  0.2672
20767W        W36576   4.762   9.475  10.604  0.3785  0.2817 -0.1041
20768W        W36577  11.658  10.160   2.654  0.0585 -0.1174  0.0536
20769W        W36578  15.908   4.746   1.702 -0.0277  0.2423 -0.2404
20770W        W36579   4.313  15.463  11.906  0.0263 -0.0812 -0.1732
20771W        W36580   8.739  13.709   6.087  0.0419  0.0285  0.0455
20772W        W36581  14.558  13.609  13.069  0.1213 -0.1165  0.0679
20773W        W36582  16.156  10.160  14.958 -0.2070 -0.0329 -0.1940
20774W        W36583   9.239  11.720   4.861 -0.3838 -0.2134  0.0665
20775W        W36584  13.161   6.717  13.561 -0.0937 -0.2253 -0.3066
20776W        W36585   1.712  17.797  15.739  0.0266 -0.0617  0.0831
20777W        W36586   5.493  16.101   5.542  0.0130 -0.2744 -0.0891
20778W        W36587   7.518  12.114  12.669 -0.0962  0.0801 -0.2628
20779W        W36588  10.343   5.296   2.272  0.3297 -0.0467  0.2467
20780W        W36589   3.370  17.952  14.849 -0.2767  0.0691  0.3686
20781W        W36590  12.581   6.025   0.821 -0.0945 -0.2465 -0.0627
20782W        W36591   9.919  13.287   5.681 -0.3169  0.2119 -0.2082
20783W        W36592  16.892  10.782   3.097 -0.1924 -0.2393  0.0097
20784W        W36593  17.274  16.266  14.232 -0.2057  0.5441  0.0556
20785W        W36594   8.223  17.180  11.623  0.1277 -0.0370  0.0935
20786W        W36595  16.968   4.754  15.404  0.0030  0.1276  0.3566
20787W        W36596   0.146  15.289  14.035 -0.0314  0.0937 -0.1469
20788W        W36597  13.670   6.643   0.003 -0.2753 -0.2110  0.2225
20789W        W36598  14.740  14.999   1.928  0.1447  0.1188  0.0597
20790W        W36599   0.511   3.865   0.143  0.0886  0.1256 -0.1000
20791W        W36600   9.648   4.457   3.440  0.4226  0.0810 -0.2336
20792W        W36601   2.636   0.376  12.695 -0.1759  0.0679  0.0367
20793W        W36602  13.395  13.915   4.283  0.1710  0.0285  0.0614
20794W        W36603  10.313  13.527   4.358 -0.2774  0.2559 -0.0791
20795W        W36604   5.274   7.628  11.895  0.0775 -0.5064 -0.0464
20796W        W36605   8.014   1.956  15.655 -0.0622 -0.1180  0.1350
20797W        W36606  14.028  12.657   2.380 -0.0905  0.0186  0.1290
20798W        W36607   1.536  10.556   4.527 -0.0655 -0.0660 -0.1779
20799W        W36608  13.557  12.883  10.811  0.2035  0.0007  0.1830
20800W        W36609  10.768   6.045  12.528  0.0310 -0.0371  0.0657
20801W        W36610  16.144  18.150  14.851  0.2635  0.0398 -0.3811
20802W        W36611  11.736  12.618   4.326  0.0802  0.2189 -0.0094
20803W        W36612   2.088   9.860   1.648  0.0094  0.4033  0.1835
20804W        W36613   4.448  11.303   3.037 -0.1173  0.0900 -0.0158
20805W        W36614   4.374   4.297   1.876 -0.0017 -0.0175 -0.0639
20806W        W36615  12.865   6.257  11.064 -0.1064 -0.1148  0.0804
20807W        W36616   2.176   8.100  16.034 -0.0011  0.3316 -0.2126
20808W        W36617   1.901   0.847  14.200 -0.0528 -0.4008  0.1043
20809W        W36618   5.114  11.895  12.095  0.1225  0.3101  0.2556
20810W        W36619  17.378  17.935   2.770  0.0655  0.0507 -0.0166
20811W        W36620   9.058   2.955  13.455  0.0819 -0.0814 -0.0197
20812W        W36621  10.110  14.384   4.176  0.0899 -0.0727  0.2179
20813W        W36622   3.291  11.101  12.941  0.0491 -0.2366  0.0997
20814W        W36623   6.627  14.088   4.328  0.0135  0.3967  0.0308
20815W        W36624   7.904   0.381  11.533 -0.0850 -0.2012  0.0239
20816W        W36625   6.246  12.544  11.217  0.0648 -0.1147  0.0566
20817W        W36626  10.648   9.779   1.718  0.0413 -0.0571  0.1447
20818W        W36627   3.891  16.021  15.977  0.3165  0.0057  0.1986
20819W        W36628  17.539   0.276  12.845  0.0045 -0.0047 -0.1305
20820W        W36629  15.294   4.655  12.596  0.2805 -0.0478 -0.1051
20821W        W36630   2.007   5.486  15.611  0.1073 -0.0526  0.0522
20822W        W36631   7.741  13.103   3.343  0.1731 -0.1524  0.0277
20823W        W36632  13.145   6.760   1.781  0.1935 -0.1271 -0.0020
20824W        W36633   7.478  14.074  11.504  0.0673 -0.3681  0.1803
20825W        W36634  11.216  17.787   0.502 -0.0751  0.1250  0.1043
20826W        W36635  10.667  10.061   4.876  0.1666 -0.1422 -0.0355
20827W        W36636   7.585  12.949   5.163  0.0510  0.0136  0.1595
20828W        W36637   0.812  17.445   4.425  0.0203  0.0878 -0.0362
20829W        W36638  18.062   4.100   4.831  0.0719  0.0520 -0.2394
20830W        W36639  11.367   1.434  14.285  0.0588 -0.0646 -0.0953
20831W        W36640  16.983   6.294  15.658 -0.1221 -0.0427  0.6101
20832W        W36641   5.446   4.724   2.284  0.1050  0.0576 -0.3320
20833W        W36642   9.204   1.732   4.297  0.1391  0.0484 -0.3721
20834W        W36643  17.959  15.686  15.410  0.1652 -0.0572 -0.0554
20835W        W36644  15.751   1.084   3.552 -0.2452 -0.0812 -0.0852
20836W        W36645  13.751  15.067  14.186 -0.3123  0.0191  0.0785
20837W        W36646   3.526   6.262  15.453 -0.3106 -0.2424 -0.2869
20838W        W36647   2.740  13.510  12.331  0.0274  0.1247 -0.2513
20839W        W36648   3.615   6.554   2.112  0.0863 -0.2257 -0.1880
20840W        W36649   4.846  17.646   5.621 -0.1986  0.2958  0.1498
20841W        W36650  12.773  14.858   3.353 -0.0768 -0.2438 -0.0682
20842W        W36651  11.554  15.573  13.999  0.1081  0.1737  0.0096
20843W        W36652   1.486  17.087   1.696  0.0326  0.5407 -0.1138
20844W        W36653   8.876  11.307   3.636 -0.2134 -0.4987 -0.2406
20845W        W36654   4.812   6.920  11.538 -0.0130 -0.2484 -0.1743
20846W        W36655  15.326  17.538  11.590  0.2319 -0.1743 -0.0249
20847W        W36656   1.800  15.623  13.946  0.1721 -0.0039 -0.1420
20848W        W36657   1.748   3.757  13.305 -0.0115 -0.0542 -0.2632
20849W        W36658  16.886   4.484   0.546 -0.3007  0.0845 -0.2733
20850W        W36659   6.789   1.671   4.089  0.1237  0.0627 -0.1538
20851W        W36660  16.103   6.437   3.510  0.0412  0.1349  0.2562
20852W        W36661   7.046   0.145  11.086  0.2507 -0.0341 -0.1511
20853W        W36662   4.812  16.588   1.477 -0.0185 -0.1425  0.1874
20854W        W36663  15.352  12.553   2.383  0.4669  0.1942 -0.1037
20855W        W36664   2.552   0.436   0.192 -0.0788 -0.3244  0.0105
20856W        W36665   3.561  15.489   1.957  0.2848 -0.0821  0.1780
20857W        W36666   2.399  12.402   9.775 -0.0376  0.3544 -0.1661
20858W        W36667  10.633  11.768  15.152  0.1270  0.0303  0.0009
20859W        W36668   5.016   9.591  13.332  0.3542  0.0944 -0.2300
20860W        W36669  17.616  17.196   0.275 -0.0787 -0.0322  0.0993
20861W        W36670  13.167  11.250   4.429 -0.1444  0.3126 -0.1641
20862W        W36671  16.502   5.868   4.755 -0.1866 -0.3094 -0.3010
20863W        W36672  16.681   5.530   1.536  0.2957 -0.1568 -0.0660
20864W        W36673  13.366   8.882  15.801  0.0179  0.1789  0.1540
20865W        W36674  16.097  14.866  14.791 -0.2135  0.1229 -0.0651
20866W        W36675  14.510  16.407  15.119 -0.1230  0.1785 -0.0543
20867W        W36676   9.119  14.233  10.904  0.0732 -0.0471 -0.1576
20868W        W36677   8.023   5.133  15.691 -0.1279  0.2096  0.0083
20869W        W36678   6.365   4.057  14.052  0.1553 -0.1593  0.2988
20870W        W36679  13.017   6.922   0.973  0.0465 -0.0559 -0.1113
20871W        W36680  15.243   0.009   3.717 -0.2926  0.1649 -0.0398
20872W        W36681  13.587   0.678  15.236  0.1219 -0.0337  0.1337
20873W        W36682   9.743   7.444   1.414  0.1616 -0.0940 -0.1227
20874W        W36683  10.071  15.517   2.251  0.1163 -0.0417  0.4893
20875W        W36684   4.161  13.379  12.606  0.3690  0.1895  0.0038
20876W        W36685   5.480  13.030  11.577  0.1807 -0.2149 -0.0773
20877W        W36686  13.806   3.593  15.160  0.2995  0.0912 -0.0754
20878W        W36687   9.699   1.907   3.547  0.1794 -0.1299 -0.3133
20879W        W36688   0.757  13.986  12.051 -0.2103 -0.2511  0.1677
20880W        W36689   4.432   9.963   2.908  0.2676  0.1341  0.1549
20881W        W36690   7.894   6.007  15.175 -0.1178 -0.1829  0.2711
20882W        W36691   7.159  10.054  14.272 -0.2877 -0.0895 -0.0707
20883W        W36692  10.953   1.910   1.044 -0.3342  0.0875 -0.1369
20884W        W36693  13.754  15.540  12.874 -0.4167  0.3499  0.0485
20885W        W36694   5.888  10.397  12.517  0.1018 -0.1342  0.0724
20886W        W36695   6.152  15.037  11.324 -0.2273 -0.0685  0.2043
20887W        W36696   0.215   4.441  10.249 -0.0661  0.1436 -0.1454
20888W        W36697  15.477  13.913   4.817  0.1370  0.1709 -0.0723
20889W        W36698   5.070   1.071  16.061 -0.1266  0.2206  0.1190
20890W        W36699   2.272  17.273  12.415  0.0803 -0.1340 -0.0281
20891W        W36700  10.706   5.475  12.583  0.2502  0.0819 -0.1905
20892W        W36701   4.839  15.051   1.195  0.0089 -0.1250 -0.3840
20893W        W36702  17.943   0.570  12.502  0.1550  0.0633  0.2100
20894W        W36703   2.951   6.413  12.626  0.0595  0.1414  0.0523
20895W        W36704   2.209   3.372  15.668 -0.1155  0.0344  0.3609
20896W        W36705  11.998  17.958  10.895 -0.3801 -0.2009  0.0592
20897W        W36706  14.732   8.656   4.796 -0.2096 -0.0166 -0.0772
20898W        W36707  15.432  11.651   3.316 -0.0419  0.1031  0.2006
20899W        W36708  14.472   6.436  14.852  0.2854  0.0990 -0.0030
20900W        W36709   3.370   7.649  11.375 -0.1141  0.1207 -0.0798
20901W        W36710  10.881  10.632   2.358 -0.1044  0.0859  0.0702
20902W        W36711  16.537  10.899  11.619  0.1459  0.0650 -0.1528
20903W        W36712   0.033  12.974  11.492 -0.2239 -0.1409 -0.1407
20904W        W36713  15.267  11.635  13.047 -0.1147  0.1997  0.0143
20905W        W36714  18.036  14.243  14.803  0.2961 -0.0665  0.0068
20906W        W36715   2.599  15.145   3.253 -0.1439  0.1140 -0.1943
20907W        W36716  12.556  12.939   3.850 -0.0048 -0.0002 -0.2478
20908W        W36717   0.278  14.803  12.202 -0.0093 -0.3591  0.0550
20909W        W36718   2.128   2.482  13.301  0.0351 -0.0327 -0.1715
20910W        W36719   1.880   0.648  11.270  0.0275 -0.0596  0.1652
20911W        W36720   8.665  14.569   2.804 -0.0064  0.0175  0.2190
20912W        W36721   1.158  11.866   4.041  0.0250 -0.0085 -0.2556
20913W        W36722   4.695   0.014   3.303  0.0097  0.2210  0.2443
20914W        W36723   6.441  16.775   3.907  0.0500  0.1028  0.0203
20915W        W36724   1.952   6.770  15.902 -0.2117 -0.2465  0.2204
20916W        W36725   3.389   5.247  13.846 -0.0871 -0.3708 -0.0291
20917W        W36726  17.343  11.110   2.196  0.0578 -0.0860  0.1648
20918W        W36727   7.930  16.901  15.299  0.0833 -0.0309  0.1354
20919W        W36728  15.905  10.736  12.723 -0.0417 -0.1680 -0.0011
20920W        W36729   6.762  10.250   3.439  0.1007  0.4181  0.1481
20921W        W36730   0.763   8.652   3.688 -0.1852  0.0548 -0.0715
20922W        W36731   3.772   1.308  10.993  0.3106  0.2145  0.2073
20923W        W36732   2.019  15.185  13.680 -0.0883 -0.0508  0.0857
20924W        W36733  16.514  10.904   2.248 -0.0890 -0.1247  0.3177
20925W        W36734  10.613  12.489  11.317  0.3043 -0.3389  0.0298
20926W        W36735  16.124   5.413  15.114  0.1500  0.2276 -0.0756
20927W        W36736   3.370  10.563   2.268 -0.0314 -0.0144  0.4874
20928W        W36737   4.865  10.906   4.222 -0.0578  0.0962  0.0247
20929W        W36738   5.074  18.103   2.181  0.0164  0.1629  0.1667
20930W        W36739   2.108   5.614  13.876  0.0838 -0.3066 -0.0209
20931W        W36740   2.657   8.427  15.080 -0.0403  0.1938  0.1492
20932W        W36741  16.071   0.197   1.940 -0.0442 -0.2299 -0.0193
20933W        W36742   1.427  14.128   0.167 -0.0293  0.2573 -0.1757
20934W        W36743  10.978  11.863  14.141 -0.0206  0.2692 -0.2346
20935W        W36744  10.762   9.812   2.281 -0.1613  0.1572  0.3366
20936W        W36745   1.793  12.969   5.599 -0.0278  0.0259  0.2019
20937W        W36746  17.162   2.789   4.172 -0.0782  0.1208 -0.2829
20938W        W36747   0.447  10.313  13.812 -0.0025  0.2116  0.2033
20939W        W36748   8.110   9.281  12.771  0.0357  0.1105  0.0224
20940W        W36749  11.102  10.105  14.641  0.2829 -0.0798 -0.2188
20941W        W36750   8.370   0.747  13.732 -0.0262 -0.3076 -0.1488
20942W        W36751   1.220  15.409  14.814  0.1350 -0.1746 -0.2067
20943W        W36752  17.880   8.344  12.719 -0.0157  0.3299 -0.2618
20944W        W36753   7.739   0.459   0.699  0.2555 -0.0460 -0.3011
20945W        W36754  11.608   6.722  13.709  0.0023 -0.0586 -0.0004
20946W        W36755  14.825  15.981  12.136  0.1283  0.0304  0.0192
20947W        W36756   5.487   5.794  14.602 -0.0415  0.1454 -0.0071
20948W        W36757   1.893   6.010   2.217  0.1340 -0.0011  0.0306
20949W        W36758  16.978   2.227  12.648 -0.0027  0.0789  0.0181
20950W        W36759   4.861   2.652  15.738  0.0431 -0.0930 -0.0766
20951W        W36760   7.645   0.838  15.966  0.0710 -0.2011  0.1387
20952W        W36761   4.087   7.980  11.185 -0.1497  0.0957 -0.1546
20953W        W36762   0.732  17.231  12.840 -0.0179  0.1728  0.2015
20954W        W36763  17.076  17.524   1.744 -0.1402 -0.0273  0.2763
20955W        W36764   6.367   1.811  14.989  0.2394  0.0320 -0.2320
20956W        W36765  14.188   3.844  12.553 -0.0379 -0.2841 -0.1460
20957W        W36766   7.217  12.297   3.181  0.2256 -0.3559 -0.0267
20958W        W36767   0.084   0.184   3.458 -0.1649 -0.1377 -0.5027
20959W        W36768   3.851  15.193  13.855 -0.2321 -0.1152 -0.0216
20960W        W36769   5.676   6.250   1.415 -0.1230 -0.2789  0.2285
20961W        W36770   9.258   8.634   1.545 -0.1280  0.1051 -0.1574
20962W        W36771   8.895  16.134   2.780 -0.2733 -0.0332  0.0511
20963W        W36772  13.065   8.103   0.414  0.3493 -0.1129  0.0699
20964W        W36773   6.858   2.660   2.591 -0.0958 -0.0549 -0.0166
20965W        W36774  11.183  14.584  13.061  0.1784  0.2185  0.3312
20966W        W36775  10.922  17.611   3.599 -0.0784 -0.0337  0.2821
20967W        W36776  17.860   4.087   2.522 -0.0685 -0.1012  0.1013
20968W        W36777   8.562  11.363   1.053 -0.1589 -0.0511  0.0227
20969W        W36778  16.019   0.135  14.437  0.3196 -0.0580  0.0105
20970W        W36779   2.542  15.293  12.755 -0.1592  0.0615  0.3977
20971W        W36780   7.642  16.052  10.833  0.3031  0.1205 -0.0358
20972W        W36781   4.207  12.931  10.882 -0.2112 -0.1521  0.0624
20973W        W36782   8.833   0.368   4.538 -0.0841 -0.1285 -0.0441
20974W        W36783   2.539   7.719  15.824 -0.1750  0.0819  0.1508
20975W        W36784   0.683  12.767   1.286 -0.1085  0.0865 -0.1558
20976W        W36785  13.764   4.519   4.423 -0.0764  0.0417 -0.0034
20977W        W36786   4.993   5.866  14.608  0.2749 -0.1182  0.0145
20978W        W36787   4.268  12.863   4.493  0.0031  0.0891  0.1830
20979W        W36788  10.769   5.343   5.523  0.3806 -0.1887  0.1028
20980W        W36789  11.580  18.117  14.634 -0.0874  0.1124 -0.1027
20981W        W36790   5.517  17.228   1.657 -0.1421 -0.1254 -0.0345
20982W        W36791   9.622  11.386   0.068  0.0047  0.0623 -0.0693
20983W        W36792   3.630   8.448  14.804 -0.2184 -0.0526 -0.0142
20984W        W36793   6.076   6.146  14.099 -0.0015 -0.0691 -0.0235
20985W        W36794  17.990  11.428  11.678  0.0162  0.2240  0.1011
20986W        W36795  15.658  13.693   2.804 -0.0952  0.5277  0.0446
20987W        W36796   1.919   0.731  15.498 -0.0220 -0.1111 -0.1631
20988W        W36797   2.150   5.376   4.847  0.1447  0.2691  0.2701
20989W        W36798  11.590   4.814  11.825 -0.1202  0.0123 -0.1789
20990W        W36799  13.205  13.713  12.850 -0.3321 -0.0898  0.2142
20991W        W36800  15.195   3.628  13.976  0.3210  0.1885  0.0859
20992W        W36801   3.716   9.910  14.662 -0.3031 -0.0717  0.2572
20993W        W36802   6.177  15.390   1.088 -0.2297 -0.0178 -0.0709
20994W        W36803   4.646   7.368   0.223 -0.2876 -0.0839  0.1088
20995W        W36804  12.444  13.435  12.518 -0.1663 -0.0098 -0.1366
20996W        W36805  14.284  15.474   1.649 -0.1152  0.1747  0.1629
20997W        W36806  10.099   2.059   3.917 -0.0885 -0.2774  0.1619
20998W        W36807  14.351  17.807   0.860  0.1998 -0.1280 -0.0685
20999W        W36808   4.464  13.868  15.714  0.0763 -0.3344 -0.0624
21000W        W36809  17.600  15.659  15.739  0.1537 -0.0465  0.2605
21001W        W36810  15.367   6.801  11.490 -0.3138 -0.0714 -0.3679
21002W        W36811   4.693  10.237  10.934 -0.0301  0.1765  0.0348
21003W        W36812  13.534   3.118   5.119  0.2573  0.1594 -0.0142
21004W        W36813  10.537  11.218  10.952  0.1341 -0.0492 -0.1220
21005W        W36814   9.224  11.183  14.085 -0.2520 -0.0671  0.2653
21006W        W36815  14.256  15.356  12.949  0.2497 -0.2334 -0.0548
21007W        W36816   0.296  16.542   2.244 -0.0212 -0.0911 -0.1104
21008W        W36817  14.060   3.823  14.827  0.3124 -0.1214  0.2501
21009W        W36818  17.172   4.145  13.572 -0.1797  0.1815 -0.1940
21010W        W36819   0.931   0.404   5.076  0.1962  0.1019  0.1125
21011W        W36820   4.906  17.356   5.251 -0.1201  0.1872 -0.1046
21012W        W36821   1.835   0.421   4.838 -0.0158 -0.0024  0.1117
21013W        W36822  15.695  15.702   2.110  0.2361  0.0314  0.0179
21014W        W36823   4.825   6.220   1.663  0.2696 -0.2702  0.1248
21015W        W36824   7.905  15.792   1.566 -0.2405 -0.0860  0.0646
21016W        W36825  15.435   4.488  10.606  0.0993  0.0581  0.0203
21017W        W36826  12.775  12.703  12.768 -0.1616  0.2869 -0.2024
21018W        W36827   8.432   8.229  15.884 -0.3805  0.0145  0.4876
21019W        W36828   8.959  17.009   1.677  0.6010  0.0282 -0.0775
21020W        W36829  15.732  12.759  11.835  0.4213 -0.0306  0.1362
21021W        W36830   9.375  12.239   1.813 -0.1292  0.0151  0.2784
21022W        W36831   5.577  10.367  15.406 -0.0699  0.0898 -0.0843
21023W        W36832   8.921  11.264  15.199 -0.0491  0.2204  0.2932
21024W        W36833   6.929  14.756   3.022 -0.1041 -0.1440 -0.0357
21025W        W36834  17.564   5.157   4.231  0.5487  0.0895  0.0430
21026W        W36835  11.699  14.966   0.531 -0.2632  0.1160  0.2528
21027W        W36836  16.164   3.239   1.635  0.0279  0.2633 -0.0914
21028W        W36837  15.840   5.401  16.026  0.0445  0.0385 -0.2923
21029W        W36838   7.487   5.531   1.893  0.2300  0.1211 -0.2224
21030W        W36839  10.113  14.670   5.091  0.1389 -0.0284 -0.1051
21031W        W36840   0.779   1.618   4.669  0.0069 -0.2114 -0.3162
21032W        W36841   9.437  11.840  15.219 -0.0372 -0.0405 -0.2489
21033W        W36842   1.424  12.970  15.090  0.1296  0.0849  0.0705
21034W        W36843   5.257  17.670  14.812 -0.1149  0.1101  0.0082
21035W        W36844  11.261   3.674  14.702 -0.0154  0.0599  0.2307
21036W        W36845   6.744  16.152   5.690 -0.2331  0.0374 -0.0239
21037W        W36846  11.015  11.645  12.199 -0.1533  0.1270  0.0530
21038W        W36847   1.716   8.561  14.680  0.0448 -0.1162 -0.1961
21039W        W36848  12.422   7.715  10.402 -0.2659  0.1493  0.1516
21040W        W36849  12.014  16.158   3.030  0.2173  0.2859  0.0607
21041W        W36850   7.355  16.407   2.069 -0.0361 -0.1188 -0.1221
21042W        W36851   7.524   8.088  12.716  0.3053  0.0192 -0.2968
21043W        W36852  16.809  17.372   2.145  0.0007  0.2922  0.2014
21044W        W36853   1.038   7.584   3.897 -0.1903  0.1582 -0.1488
21045W        W36854   7.399   7.569  12.646  0.4400  0.3350 -0.1525
21046W        W36855   8.305   2.855  14.073 -0.0323 -0.0036 -0.1795
21047W        W36856   3.042   3.919  14.048  0.3200 -0.1694 -0.1389
21048W        W36857   0.232  17.774   1.697  0.2785 -0.2232 -0.2600
21049W        W36858   5.891  11.882  14.455 -0.0678  0.0338 -0.1654
21050W        W36859  10.670  15.634  13.156  0.2549 -0.0693  0.0890
21051W        W36860   0.238  13.444  11.436  0.2028 -0.1446  0.1277
21052W        W36861  18.000  10.344   1.916 -0.0104  0.1533 -0.0520
21053W        W36862   2.265   2.356  14.671  0.0997 -0.1189 -0.0384
21054W        W36863   6.341   1.758   4.209  0.1911 -0.0296 -0.0024
21055W        W36864   9.565  16.818   4.412 -0.4325  0.1083 -0.2105
21056W        W36865   4.948   7.850  15.804  0.0120 -0.0137  0.1670
21057W        W36866   1.720   4.416   1.117  0.0935  0.0906 -0.1284
21058W        W36867  14.402   8.515  12.617  0.2087  0.3508  0.1475
21059W        W36868   7.915   6.197   1.618 -0.1578  0.1779  0.0094
21060W        W36869   0.459   0.732   4.383 -0.1654 -0.2362  0.0704
21061W        W36870  14.308   0.535   4.597  0.4219 -0.1355 -0.1013
21062W        W36871   4.270   9.764   4.636  0.0130 -0.0360  0.2293
21063W        W36872   0.720  14.442   1.358  0.2248 -0.0724 -0.0135
21064W        W36873   8.510  14.614   5.099 -0.2012  0.0269 -0.2063
21065W        W36874   1.713  17.885  13.139 -0.0954 -0.0044 -0.2071
21066W        W36875  12.131  17.897   5.715  0.1747 -0.2584  0.0072
21067W        W36876   0.906  12.602   3.420 -0.1551 -0.0548 -0.3322
21068W        W36877   2.579   6.001  11.297  0.1829 -0.4383 -0.2419
21069W        W36878   2.826  12.682  14.240 -0.0103  0.0903 -0.0437
21070W        W36879  17.398   6.521   3.451 -0.2711 -0.0962  0.1635
21071W        W36880   5.810   5.727  10.796  0.0003 -0.0684 -0.0445
21072W        W36881   8.005   5.161  14.859 -0.1180 -0.1371  0.1084
21073W        W36882  12.008  17.283  14.893 -0.0350 -0.0691  0.1367
21074W        W36883   4.673  10.000  12.167 -0.3417 -0.0725 -0.1732
21075W        W36884  15.831   3.311  14.565 -0.2313  0.1556 -0.0842
21076W        W36885   6.446   7.086   4.079 -0.1661  0.0266 -0.1347
21077W        W36886  18.083   4.036   4.063  0.0112 -0.0548  0.0294
21078W        W36887   5.230  15.460   3.375 -0.0728 -0.0456  0.1049
21079W        W36888  14.914   3.557  14.411 -0.3729 -0.1016 -0.2066
21080W        W36889   7.527  15.270   1.092 -0.3220 -0.0849 -0.1968
21081W        W36890  12.462   4.295  14.365  0.2292 -0.0201  0.1690
21082W        W36891   8.240   6.460  15.706 -0.2112  0.1731  0.1208
21083W        W36892   0.572   1.505  12.810 -0.0004 -0.0407 -0.2843
21084W        W36893   7.047   1.669  10.933  0.3491 -0.0515  0.1709
21085W        W36894  12.000  13.399   1.953 -0.3709  0.3542  0.2542
21086W        W36895   7.324   6.878   0.707  0.2018  0.0410 -0.3966
21087W        W36896  18.119  11.825  13.550 -0.3206 -0.1038 -0.3297
21088W        W36897   4.937  12.313  13.786  0.0216  0.1827 -0.0036
21089W        W36898  16.776   7.192   2.265 -0.1556  0.2111  0.1677
21090W        W36899   3.727  14.151   2.391  0.3466  0.2402 -0.0701
21091W        W36900   5.170  10.842   1.651 -0.0121 -0.0191 -0.1552
21092W        W36901   7.849  13.278  14.854 -0.2193  0.1414  0.1306
21093W        W36902   9.319  17.813  14.711  0.1013 -0.2040  0.0081
21094W        W36903   7.588  11.344  15.615  0.0622 -0.0401 -0.0773
21095W        W36904   1.398  11.387  15.342 -0.0621  0.2902  0.1348
21096W        W36905   9.533   1.219  12.928 -0.1392 -0.0828 -0.0316
21097W        W36906  17.020  12.895  13.870  0.2508  0.0958 -0.1105
21098W        W36907   0.990   8.801   2.160 -0.0753 -0.0255 -0.0675
21099W        W36908   9.385   8.636  15.796  0.2730  0.1685 -0.1428
21100W        W36909  11.260   5.487  15.775  0.1570  0.0507 -0.0064
21101W        W36910   3.463   9.632  14.083  0.0428 -0.0252  0.1987
21102W        W36911   1.084  10.891   5.301  0.0652 -0.0439  0.1496
21103W        W36912   1.253   6.917  12.751  0.5336 -0.0642 -0.1065
21104W        W36913  14.349   8.645   1.103 -0.1415 -0.3306  0.1467
21105W        W36914   3.796  10.025   5.373 -0.2906 -0.0712 -0.1262
21106W        W36915   8.689  14.129  13.202  0.1559  0.0880  0.0541
21107W        W36916  18.142   0.302  15.249  0.0630 -0.1240 -0.3556
21108W        W36917   8.502   2.415  14.361  0.0142 -0.3633  0.0158
21109W        W36918  15.297  13.054   2.417  0.0305  0.0600  0.1596
21110W        W36919  18.241  10.266   5.027  0.2021 -0.1810 -0.1917
21111W        W36920   1.194   6.212   2.958 -0.0239  0.0354  0.0539
21112W        W36921   4.742   8.744  12.785 -0.2150  0.2950  0.0514
21113W        W36922  18.042   8.392   4.290  0.2347 -0.0594 -0.0186
21114W        W36923  13.587  12.321  10.766 -0.0729  0.2257 -0.0195
21115W        W36924   3.405   0.194  12.084 -0.0495 -0.0593  0.2316
21116W        W36925  13.576  13.525  12.198  0.1075  0.0205 -0.0560
21117W        W36926   8.400  15.701  14.117  0.1402  0.0103  0.0851
21118W        W36927   1.793   3.333  15.401 -0.2890  0.0707 -0.0260
21119W        W36928  14.819  15.200   5.174  0.1665 -0.1105 -0.0870
21120W        W36929  13.652   7.232   2.598  0.0490 -0.1874  0.1650
21121W        W36930  13.792   0.912   0.497  0.2252  0.0464  0.0048
21122W        W36931  10.684   4.183  12.691  0.0587 -0.0954 -0.0804
21123W        W36932  11.700   1.664   4.936 -0.1748 -0.2966 -0.0011
21124W        W36933  17.116   9.985   3.667 -0.0465 -0.0690  0.2549
21125W        W36934   4.381  11.676   4.505 -0.1554 -0.1242 -0.1316
21126W        W36935  14.282  13.199   2.820 -0.2748 -0.2209  0.1301
21127W        W36936   5.427   9.929   5.374 -0.1866 -0.0562 -0.0682
21128W        W36937   6.849   3.026   5.822  0.1071  0.1804 -0.2991
21129W        W36938  13.165  12.189   3.991  0.0243  0.0447  0.2367
21130W        W36939  16.479  12.646  12.850  0.1336  0.0795 -0.0307
21131W        W36940   3.587   3.427  12.725  0.1297  0.1343  0.0204
21132W        W36941  13.882  16.801  14.380  0.3292 -0.0012  0.1330
21133W        W36942   7.487  12.269   4.095  0.1416 -0.1037  0.0142
21134W        W36943  15.836  17.175  10.858 -0.1531  0.0029 -0.0264
21135W        W36944   4.237  12.316  10.111 -0.0934  0.1678  0.0117
21136W        W36945   8.505  10.496   5.861 -0.3232 -0.0089  0.1965
21137W        W36946   5.599  17.542   1.296 -0.0407 -0.1409 -0.0043
21138W        W36947   4.487  14.635   0.070  0.2680 -0.2087  0.0454
21139W        W36948  14.976  11.089  11.061  0.1708 -0.0469  0.3056
21140W        W36949   8.106  16.813   3.479  0.0117  0.0623 -0.1929
21141W        W36950   2.978  16.609   2.529 -0.1408 -0.1789 -0.0594
21142W        W36951  11.559  16.070  14.229  0.0976  0.1870  0.1115
21143W        W36952   8.632  10.870  12.462 -0.1594 -0.1071 -0.2705
21144W        W36953  16.872   7.613   1.567  0.0060 -0.2627  0.0709
21145W        W36954  13.870   9.964   0.158 -0.1091 -0.1191 -0.0878
21146W        W36955   0.791   4.034  12.258  0.0209  0.0161 -0.1152
21147W        W36956   1.720  17.615   0.540 -0.0035  0.0193  0.2460
21148W        W36957  18.212   2.617  12.047  0.0736 -0.0871 -0.1249
21149W        W36958   5.872   5.333   3.687 -0.2134 -0.1974 -0.0651
21150W        W36959  10.796   9.029   2.244 -0.1054  0.3333 -0.0487
21151W        W36960   4.511  11.505  15.022 -0.2572  0.0787 -0.1407
21152W        W36961  11.250   3.465  15.927 -0.1454 -0.0686 -0.1104
21153W        W36962   1.143  16.929  11.496  0.2191 -0.1799  0.1052
21154W        W36963   0.587  16.270   1.893 -0.0328  0.0943  0.1874
21155W        W36964  15.826  11.410  11.608 -0.0618 -0.0293 -0.0452
21156W        W36965  15.622   3.585   3.224 -0.1527  0.1148 -0.0307
21157W        W36966  12.982   0.707  14.218  0.2587  0.0457  0.2770
21158W        W36967  16.652  11.287   2.536 -0.0834  0.2041 -0.1447
21159W        W36968   6.262  12.614  13.240  0.0543 -0.0490  0.0690
21160W        W36969  10.674   9.369  12.654 -0.0268  0.0033 -0.2630
21161W        W36970  16.641   6.472   2.813  0.1806  0.2282 -0.1754
21162W        W36971   8.701   4.190   5.165  0.1887  0.2125 -0.3206
21163W        W36972   5.320  12.669  11.908  0.1525  0.3503  0.1655
21164W        W36973   4.113  13.356  13.129 -0.3112 -0.1866  0.0952
21165W        W36974  13.374   2.522   0.691  0.1119 -0.2390 -0.0792
21166W        W36975  10.228  13.775  12.194 -0.1945  0.1465 -0.1880
21167W        W36976   7.019   8.856  11.468  0.1176  0.1830  0.1008
21168W        W36977   0.178  11.527   0.246  0.0137  0.0815  0.1378
21169W        W36978   4.581   6.718   3.169 -0.2082 -0.1455 -0.2344
21170W        W36979   0.836  15.188   3.272 -0.0530  0.3541  0.0713
21171W        W36980  16.857  17.445   6.025 -0.1586 -0.0941 -0.1656
21172W        W36981  12.954  16.603   1.723  0.2345 -0.0065  0.0117
21173W        W36982  14.911   0.834  12.896 -0.1441  0.2528  0.1880
21174W        W36983   3.453   3.473  13.425 -0.0116 -0.0418  0.0158
21175W        W36984  10.753   7.262   2.816  0.0461  0.1703 -0.1013
21176W        W36985   8.289   0.106   1.811 -0.0112  0.3343  0.1249
21177W        W36986  15.120  12.706  13.027  0.0919 -0.0718  0.2122
21178W        W36987  12.963  10.898  11.497 -0.0972  0.1568  0.0546
21179W        W36988   2.290  15.248  15.778 -0.4055  0.0437 -0.0448
21180W        W36989   2.492  12.028  12.227 -0.1764  0.0066 -0.1088
21181W        W36990   6.687   6.499  10.757  0.1438  0.1481 -0.1552
21182W        W36991   2.164  11.534  11.769  0.0113 -0.0836  0.0014
21183W        W36992  11.346  13.040  12.217 -0.0908 -0.1684 -0.2614
21184W        W36993  11.359   6.616   4.498  0.2288 -0.1680 -0.0784
21185W        W36994  17.931  16.154  15.122  0.3088  0.2829 -0.2240
21186W        W36995   1.814   0.504   5.340  0.1444  0.3210  0.1789
21187W        W36996   5.480   9.419  15.436  0.1628  0.0042  0.0215
21188W        W36997  11.929   4.831   4.865 -0.1409 -0.1736 -0.2241
21189W        W36998   5.888   8.271   2.308  0.0298 -0.1091 -0.1118
21190W        W36999   0.123  11.617  10.252  0.2966 -0.3907  0.1513
21191W        W37000   3.586   2.403  11.290  0.0897  0.0122  0.0990
21192W        W37001   1.131  14.370  10.334  0.0606 -0.0789  0.1480
21193W        W37002   8.778   6.675   2.992 -0.0627 -0.1185  0.0735
21194W        W37003  12.820  18.001   5.753  0.0195  0.2265 -0.1890
21195W        W37004  16.031   5.999   4.820 -0.0810  0.2511 -0.0982
21196W        W37005  13.856  18.170  11.867  0.2490 -0.1261  0.0476
21197W        W37006  16.623   5.658  11.100 -0.3613 -0.1383 -0.1540
21198W        W37007  17.920   3.229  11.318 -0.2014  0.0488 -0.2234
21199W        W37008  16.550  12.251   4.251  0.1926  0.0837  0.2139
21200W        W37009  13.469  15.110   3.258  0.0680  0.1453  0.0898
21201W        W37010  16.270  12.181  12.947 -0.2789 -0.0360  0.2523
21202W        W37011   0.990   9.017  12.331  0.0421 -0.0670 -0.0620
21203W        W37012   7.745   8.164   2.916  0.1645  0.0404 -0.0372
21204W        W37013  11.740  12.562  15.640  0.1371  0.0341  0.1550
21205W        W37014  13.505   4.489  15.286  0.2302  0.1225 -0.0793
21206W        W37015   4.725  10.499   3.925 -0.2083  0.0392 -0.3430
21207W        W37016  10.396  13.296  14.913 -0.0005  0.1532  0.1902
21208W        W37017   1.525  13.441   5.477 -0.0296  0.2256  0.3418
21209W        W37018   2.525   9.921  13.890 -0.1989  0.1160 -0.0423
21210W        W37019   0.920   4.654  15.841 -0.2289 -0.0957 -0.2777
21211W        W37020  15.217   4.035  15.224 -0.3471  0.0672  0.0052
21212W        W37021   5.607   4.917  11.262  0.0448  0.1022  0.0323
21213W        W37022  13.957   3.380  12.499  0.4444 -0.1831 -0.0488
21214W        W37023  14.516   6.273  13.970  0.0193 -0.0290 -0.1245
21215W        W37024   7.248   8.767   0.103  0.0121 -0.1216 -0.0921
21216W        W37025   3.302   4.994   1.101 -0.0875  0.3662 -0.2014
21217W        W37026  10.283  13.144   0.268  0.1217 -0.1088  0.0643
21218W        W37027   0.412  11.893  16.032  0.0976  0.0810 -0.0427
21219W        W37028   8.681  10.519  14.554  0.0147 -0.1386 -0.2237
21220W        W37029  14.866  15.922  12.658  0.0911  0.0063 -0.1743
21221W        W37030   9.585  17.032   4.904 -0.0598  0.2951 -0.1846
21222W        W37031  15.088  11.023  14.832 -0.1803 -0.2132 -0.2907
21223W        W37032  10.064  16.445   4.039 -0.0941  0.1296  0.0904
21224W        W37033  11.027  11.049  15.713 -0.1098  0.0829  0.3010
21225W        W37034  12.015  12.911  11.186 -0.1924 -0.1006  0.1898
21226W        W37035  13.649  14.036  15.416  0.0149 -0.0581  0.1110
21227W        W37036   7.739  13.261  15.857 -0.4136  0.0414  0.0135
21228W        W37037  12.465  13.058  15.793  0.1408 -0.1042  0.1709
21229W        W37038   5.289   6.915   3.934  0.1837 -0.1623 -0.0796
21230W        W37039  14.302  11.391  14.074  0.3521  0.1082 -0.1431
21231W        W37040   3.914  12.370   4.028 -0.0021  0.1395 -0.1373
21232W        W37041   4.411  12.027  12.539  0.0366 -0.1592 -0.0193
21233W        W37042  16.011   9.247  15.825  0.0582  0.2729 -0.3173
21234W        W37043  15.393   6.296  11.519  0.0348  0.2435 -0.0080
21235W        W37044   5.456  12.503  11.447 -0.1439  0.4946  0.0874
21236W        W37045  12.117  14.809   2.500  0.0789  0.0820 -0.0866
21237W        W37046   8.505  18.139  13.918  0.0968 -0.1538 -0.2038
21238W        W37047   4.930  11.252   5.214  0.0339  0.2085 -0.0064
21239W        W37048   5.184  12.262   4.430 -0.1572  0.0752  0.2044
21240W        W37049   3.449  11.265  10.725  0.1773  0.1703 -0.0690
21241W        W37050   3.184   8.417   1.118 -0.0433  0.2257  0.0579
21242W        W37051  10.496   7.736   3.792 -0.2039 -0.1554 -0.3656
21243W        W37052   3.257   7.707  12.278  0.1584  0.2229 -0.3705
21244W        W37053   2.868   7.342  12.357  0.1399 -0.0838  0.1846
21245W        W37054   2.577  16.353   2.610 -0.0118 -0.1120 -0.2590
21246W        W37055  13.850  10.166   3.924 -0.0398  0.0601  0.0965
21247W        W37056  13.971   7.678   5.582  0.0671  0.0434  0.1965
21248W        W37057  12.264  17.215  15.332  0.0035 -0.0381 -0.1734
21249W        W37058  12.488  15.538   3.544 -0.1753 -0.1207 -0.1850
21250W        W37059   6.232  15.950   2.767 -0.1991  0.0486  0.1320
21251W        W37060  11.915  10.002  11.604 -0.4534 -0.1405 -0.0294
21252W        W37061   2.560   4.308   3.118  0.0397 -0.1439 -0.1247
21253W        W37062   4.409  12.463  14.763 -0.1782 -0.1578  0.1723
21254W        W37063   1.929   6.542  13.886 -0.3128 -0.1369 -0.0676
21255W        W37064   5.783  10.513  13.598 -0.3000  0.0706 -0.1459
21256W        W37065  18.049  16.711  15.872 -0.2348  0.1091  0.2193
21257W        W37066  12.990   3.699   5.660  0.0383 -0.3413  0.3149
21258W        W37067   3.088  10.529   0.297 -0.0598 -0.3840  0.1094
21259W        W37068   8.390   7.174  15.395  0.2534 -0.1076 -0.1244
21260W        W37069   9.607   3.176  14.889  0.2570  0.0320 -0.0345
21261W        W37070  12.505   2.703  12.819 -0.1344  0.4230  0.1874
21262W        W37071  14.412   6.583  15.336  0.1795 -0.0059 -0.1384
21263W        W37072   4.288  13.191   5.014  0.2614 -0.0712 -0.0694
21264W        W37073   7.048   6.974   1.109  0.0577 -0.3690  0.1078
21265W        W37074  11.435   7.400   3.396 -0.1162  0.2943 -0.0535
21266W        W37075   6.725   4.734  14.375  0.1275 -0.2804 -0.0071
21267W        W37076  14.256  14.342  11.676 -0.2847 -0.3194 -0.0656
21268W        W37077  16.418   5.525   1.114 -0.1285  0.0991  0.0727
21269W        W37078  11.004   2.523   4.303  0.0103  0.1895  0.0253
21270W        W37079   8.586  17.794  14.709  0.2041  0.0161 -0.2487
21271W        W37080  15.395  16.893  12.926  0.0580 -0.0998 -0.0387
21272W        W37081   4.481   8.746  10.614 -0.2122 -0.0510 -0.1045
21273W        W37082   6.300  10.576   3.683  0.0903  0.0732 -0.0735
21274W        W37083  13.053  11.700  12.970  0.2599 -0.1149 -0.0726
21275W        W37084   1.963   3.986  14.832 -0.1145  0.1194 -0.1015
21276W        W37085  13.088   3.338   2.319  0.1448 -0.2672  0.0865
21277W        W37086  11.210   3.407   4.502 -0.0822  0.0845  0.2338
21278W        W37087  12.438   8.119  15.762  0.2566  0.0071  0.0364
21279W        W37088   0.621  16.848   5.451 -0.0432  0.1758 -0.0431
21280W        W37089  15.576   5.646  12.770 -0.0443  0.0553 -0.2579
21281W        W37090  16.877   7.716   0.233  0.3096 -0.1092  0.2913
21282W        W37091  16.450  11.484  11.752 -0.0923  0.1715  0.2340
21283W        W37092   4.162  17.817  14.330 -0.1956  0.0729 -0.0709
21284W        W37093   6.866  14.462  12.344  0.0128  0.0744 -0.1464
21285W        W37094   7.085   5.051   2.076  0.1710 -0.4313 -0.3088
21286W        W37095   4.828  13.765   3.435  0.2413 -0.3502  0.2101
21287W        W37096  11.103  15.618   3.178 -0.0651  0.1545 -0.0127
21288W        W37097   4.275  11.173  12.915  0.2055  0.0744 -0.5131
21289W        W37098  13.461  11.835   2.324  0.1590 -0.0168  0.1162
21290W        W37099  10.648   0.491  12.808  0.0595  0.2840 -0.1402
21291W        W37100   2.572   6.793   1.954  0.0385 -0.0378 -0.0617
21292W        W37101  13.965  16.192  13.833  0.0076 -0.4259 -0.0463
21293W        W37102   8.670   4.513   1.284 -0.0605 -0.3916  0.0133
21294W        W37103  13.758   0.078   3.457 -0.0852  0.1119  0.1422
21295W        W37104  11.222  16.971  11.239 -0.0997  0.0667 -0.1375
21296W        W37105  10.158   4.180  14.114  0.2054  0.0551 -0.2400
21297W        W37106   3.447  10.191   9.775 -0.0854 -0.1258  0.1969
21298W        W37107   7.081   1.207   3.622 -0.0075 -0.1618  0.1051
21299W        W37108  15.755  12.847  14.168  0.0133  0.1895  0.0401
21300W        W37109   4.181  17.679   2.366  0.1782 -0.1060 -0.0006
21301W        W37110   3.241   0.783  13.466 -0.1680  0.0829 -0.2790
21302W        W37111   0.549  15.995   4.136  0.2865 -0.3661 -0.3101
21303W        W37112   9.646   0.111   1.811  0.1061 -0.1366  0.0121
21304W        W37113  11.761   4.447  12.156  0.0468  0.2389  0.0957
21305W        W37114  17.878  11.064  15.585 -0.2020  0.0817 -0.2743
21306W        W37115  12.932   4.203  14.507  0.1107  0.2212  0.1860
21307W        W37116   1.650   1.304  13.796 -0.3503  0.0540 -0.3147
21308W        W37117  12.328   9.924   0.768  0.2161 -0.3845  0.1421
21309W        W37118   2.146  16.479   1.757  0.0217 -0.0099  0.3782
21310W        W37119   0.719  16.933   3.769 -0.0285  0.1806 -0.1808
21311W        W37120   7.392  16.577  14.127  0.0570  0.2028 -0.0210
21312W        W37121   9.497  16.392   6.255 -0.0180 -0.1970  0.2144
21313W        W37122   2.949  18.203  15.058 -0.1044  0.0695 -0.1027
21314W        W37123  16.331   0.973   1.042 -0.0702 -0.1895 -0.0677
21315W        W37124   2.767   4.956  15.689  0.0749 -0.0167  0.1054
21316W        W37125   1.716   3.313  15.915  0.1353 -0.2987  0.0266
21317W        W37126   3.086  14.969   4.867 -0.0628  0.0396 -0.0219
21318W        W37127  13.908   8.692   0.887 -0.4097  0.0434  0.0651
21319W        W37128  12.594   6.449  14.522 -0.0857 -0.0485 -0.0202
21320W        W37129   7.598  11.517   4.446 -0.0119  0.0442  0.0052
21321W        W37130  16.147   7.222   1.040  0.1386 -0.0975 -0.1800
21322W        W37131   4.679  15.553   4.745 -0.0799 -0.1129 -0.2023
21323W        W37132  13.254   4.129   1.447  0.0022 -0.3029  0.1804
21324W        W37133   8.850   8.969  14.059  0.0986 -0.0277 -0.2218
21325W        W37134   5.186  17.995   4.700 -0.0160 -0.1493  0.0886
21326W        W37135   1.109   2.801   4.190  0.3296 -0.1552 -0.0294
21327W        W37136  16.992  11.322   0.419  0.0379 -0.0595 -0.1796
21328W        W37137   6.026   5.874  14.725 -0.1126 -0.1791  0.1305
21329W        W37138  15.711   1.558  12.566  0.1813  0.0908  0.0786
21330W        W37139   8.064   4.806   1.374 -0.0565 -0.2887 -0.0293
21331W        W37140   0.271   4.066  15.759  0.0861 -0.0279 -0.0886
21332W        W37141   6.185   4.954   2.966  0.1524  0.0483  0.1138
21333W        W37142   5.152  13.866   0.768  0.1586  0.0283  0.1434
21334W        W37143   7.073   0.573  13.489  0.1211  0.2368 -0.1463
21335W        W37144  10.142  17.260  12.815  0.3498  0.0675  0.4144
21336W        W37145   1.281  17.846   1.883  0.3220 -0.0811 -0.3120
21337W        W37146   5.704   4.519  14.578 -0.0574  0.1885 -0.2237
21338W        W37147   7.459  17.803  11.677  0.2688 -0.1712 -0.1998
21339W        W37148   7.486  13.197   4.193  0.0945 -0.0943  0.0361
21340W        W37149  10.755  17.475   1.998 -0.1350 -0.0760  0.0828
21341W        W37150  10.859  15.688  14.425  0.2204  0.0375  0.1064
21342W        W37151   5.633   5.285  15.469 -0.0675 -0.1297 -0.0437
21343W        W37152   0.941   1.121  12.670  0.0751 -0.1365  0.2065
21344W        W37153  16.271   0.746   1.989 -0.0264  0.2983 -0.0606
21345W        W37154   9.009   3.823   3.554  0.1334 -0.0241  0.1902
21346W        W37155   6.165   6.275  13.039 -0.0800 -0.2597  0.2615
21347W        W37156  11.858   9.247  12.109  0.2120  0.5066  0.0251
21348W        W37157  14.701   2.444   1.188  0.1684  0.1216  0.2371
21349W        W37158  17.330   9.694  14.284 -0.3089 -0.2278 -0.0310
21350W        W37159  15.597   4.324   1.675  0.0473  0.0037 -0.1415
21351W        W37160   3.899   1.514  11.512 -0.0078  0.1742 -0.0436
21352W        W37161   7.798   9.979  12.069  0.1120 -0.0778  0.0923
21353W        W37162   6.755  16.661  12.569  0.0908  0.0650 -0.0444
21354W        W37163   5.993   5.402   1.230  0.1416 -0.0146  0.2304
21355W        W37164  17.883  17.357  13.428 -0.0797  0.1778  0.1135
21356W        W37165   6.450  15.664  13.578  0.1649  0.2204  0.1894
21357W        W37166   9.582  16.489  15.827 -0.0195 -0.0501  0.2090
21358W        W37167   5.121  14.997   1.617 -0.1953  0.1571 -0.3463
21359W        W37168   6.701   4.285   3.114 -0.0484  0.1681 -0.0422
21360W        W37169   4.790  16.296  10.397  0.1038 -0.1916  0.0501
21361W        W37170   6.345  12.284   5.160 -0.0530 -0.1752  0.0187
21362W        W37171   6.926  15.223  15.048  0.1348 -0.0878  0.2472
21363W        W37172   9.493  17.720   6.038  0.2944  0.4284  0.0977
21364W        W37173   2.641  17.916   0.688 -0.3882  0.2643  0.1730
21365W        W37174  11.109   3.928   4.585  0.0599  0.0968  0.0117
21366W        W37175  14.278  10.055  12.609  0.1161  0.2318 -0.3955
21367W        W37176  10.589   2.031   3.661 -0.0945  0.1967  0.2028
21368W        W37177   5.597   3.706  12.682  0.1278  0.1091  0.1991
21369W        W37178  13.727   0.575   5.634 -0.0578  0.0503  0.4149
21370W        W37179   6.227   8.296  13.298  0.4076  0.0369 -0.1433
21371W        W37180  11.277   0.068   1.305 -0.2128 -0.2279 -0.1244
21372W        W37181   5.184   0.603  13.751  0.3443 -0.0819  0.4383
21373W        W37182   6.273   4.963   5.372  0.0085 -0.2013 -0.2324
21374W        W37183  17.579   7.922   3.826  0.3442  0.1557 -0.2015
21375W        W37184   2.131  14.144  11.179  0.1924 -0.2622  0.0796
21376W        W37185  12.507   9.544  15.195 -0.1763  0.2471  0.1351
21377W        W37186  12.694   2.041  11.839 -0.0431 -0.1266  0.1476
21378W        W37187  13.388   9.467  13.685  0.0017 -0.2183  0.0005
21379W        W37188   4.236  13.828  12.152  0.2273  0.1055 -0.0009
21380W        W37189  10.239  16.901  13.637  0.1821  0.4099  0.0269
21381W        W37190  12.659   9.997  12.933 -0.0500 -0.2526 -0.0848
21382W        W37191   9.276   0.797   2.818  0.2293  0.0967  0.1997
21383W        W37192  12.658   3.223   0.442  0.0257 -0.1144 -0.2409
21384W        W37193  14.887   5.926  13.274  0.5089 -0.1697  0.2531
21385W        W37194   7.977   8.599  11.564 -0.3211 -0.0133  0.1906
21386W        W37195   3.140   4.551  15.832  0.2476  0.1255  0.0341
21387W        W37196   8.277   9.665  14.218 -0.1938 -0.0623 -0.0934
21388W        W37197  13.353  15.737  10.709  0.0034 -0.1607  0.0598
21389W        W37198   0.957  16.766  15.089  0.0206  0.0408 -0.1196
21390W        W37199  13.188   1.989   0.905  0.5339 -0.0317 -0.0849
21391W        W37200   2.717   6.795   1.508 -0.2614  0.1002 -0.2709
21392W        W37201   3.202  17.915   0.579  0.0630 -0.2890  0.0532
21393W        W37202  13.776   9.794  11.913 -0.0568 -0.2883  0.0202
21394W        W37203  13.845  15.019  12.039  0.1442 -0.0090 -0.4147
21395W        W37204   2.927   0.361  15.414  0.1082 -0.1585 -0.1998
21396W        W37205   7.438   5.605  11.927 -0.0482  0.0457  0.0003
21397W        W37206  14.913   7.353  14.523  0.0702 -0.0683  0.2011
21398W        W37207   7.794  16.665  12.438 -0.1920 -0.3603 -0.0796
21399W        W37208  12.781   8.804  14.370 -0.1588 -0.0036  0.0041
21400W        W37209  10.132  16.172  14.826  0.0946  0.1537  0.0133
21401W        W37210  17.220   2.734   5.542 -0.2402 -0.0183  0.0381
21402W        W37211  11.561  10.505  15.604 -0.1324  0.3016 -0.1129
21403W        W37212  10.302   4.436  13.664 -0.2292 -0.1291  0.1689
21404W        W37213   4.786   0.222   2.350 -0.2807  0.1248 -0.0742
21405W        W37214  16.099   3.260  11.946 -0.0226 -0.0531 -0.0115
21406W        W37215   8.908  17.072  11.475  0.2516  0.1195 -0.1269
21407W        W37216   8.028   5.118   4.050 -0.0578 -0.0909 -0.0478
21408W        W37217  15.534  14.110   1.240 -0.0356  0.0883  0.0634
21409W        W37218  16.177  14.402   1.755 -0.0925 -0.0005 -0.0488
21410W        W37219  16.219   5.278   2.820 -0.2848 -0.1181 -0.1908
21411W        W37220  13.259   8.952  14.562 -0.1181 -0.1820  0.2469
21412W        W37221   2.266   4.564  13.205  0.2134  0.1022  0.2121
21413W        W37222   2.923   8.824  14.846  0.3228 -0.2581  0.2967
21414W        W37223  17.839  17.652   4.752  0.1671  0.2081  0.0437
21415W        W37224  12.158   1.803   0.907  0.2582  0.0140 -0.2519
21416W        W37225  10.461  10.136   3.504  0.1861  0.0597  0.1049
21417W        W37226   9.095  15.034  15.606  0.1690 -0.0160  0.0100
21418W        W37227  11.169  12.506   2.572 -0.1797 -0.2674 -0.0040
21419W        W37228   3.312  10.071  15.433  0.2535 -0.1005  0.1070
21420W        W37229   8.114  15.437   0.318 -0.0775  0.1318  0.1974
21421W        W37230  10.851   6.531  12.525 -0.1927  0.0044  0.1241
21422W        W37231   9.467   8.131  14.654 -0.0613 -0.0270  0.0607
21423W        W37232  14.817  10.450   4.116  0.0637 -0.1064 -0.0131
21424W        W37233   3.557   6.832  15.483  0.1479 -0.5657  0.2898
21425W        W37234  17.424  15.872  15.317 -0.2667  0.0179  0.0654
21426W        W37235  17.309  13.081   4.218  0.0961  0.0833  0.1605
21427W        W37236  16.202   5.219  11.725  0.0302  0.0823 -0.0415
21428W        W37237   5.526   5.254   1.182  0.3182 -0.2540  0.1105
21429W        W37238   1.247  16.103  11.009  0.0972  0.0435  0.0789
21430W        W37239   1.649   6.415   3.104 -0.0104 -0.0337 -0.1502
21431W        W37240   8.424   2.391  12.579  0.1096  0.0229 -0.0303
21432W        W37241   1.294   2.384   2.770  0.1976 -0.0079 -0.0831
21433W        W37242   6.019  17.987   4.487 -0.0072 -0.1928 -0.2168
21434W        W37243  11.930  11.265   3.029  0.3933 -0.2966 -0.3269
21435W        W37244  11.976   7.999   0.016 -0.2518 -0.0560  0.3907
21436W        W37245   8.272  14.172  13.464 -0.0300 -0.4723 -0.1204
21437W        W37246   4.416  16.250  11.538  0.1162  0.1878  0.2693
21438W        W37247   0.366   0.056  13.033 -0.0978  0.0263  0.2229
21439W        W37248  11.708  16.972   4.503 -0.1761 -0.1509  0.1613
21440W        W37249   2.992  10.804   1.926 -0.0016 -0.0541  0.1076
21441W        W37250   8.822   1.622   0.857 -0.3185 -0.1751 -0.0067
21442W        W37251   5.947  12.869   3.633  0.1956 -0.4400 -0.0902
21443W        W37252   1.949   0.376  12.423 -0.2281  0.0074  0.2123
21444W        W37253  17.482  12.788   1.012 -0.0558  0.2018  0.1443
21445W        W37254   0.669  12.599  13.589 -0.2352 -0.1848 -0.0866
21446W        W37255   2.968  16.873   4.077  0.0047  0.1342  0.1689
21447W        W37256  16.183  10.099  15.474 -0.0663  0.1086  0.1821
21448W        W37257   3.810   2.983   4.703 -0.2353  0.0892  0.3749
21449W        W37258  11.824  11.228  15.117 -0.0716  0.3120  0.2142
21450W        W37259  15.074   1.670  11.416 -0.2161 -0.1156  0.1851
21451W        W37260  12.339   0.277  14.301  0.3360 -0.0437 -0.2447
21452W        W37261   8.075  17.023   1.343  0.0351 -0.0734  0.2482
21453W        W37262  17.077   8.392   4.454  0.1290  0.1233  0.0082
21454W        W37263   8.034   6.485   5.199  0.0348  0.0319  0.0108
21455W        W37264  16.225   6.669   4.443  0.0855  0.0341  0.1058
21456W        W37265   7.250   6.285  11.630  0.1303  0.3484  0.0646
21457W        W37266  12.679  16.391   5.737  0.0959  0.4537  0.0570
21458W        W37267   3.357  10.749  13.287 -0.1859 -0.3260  0.3234
21459W        W37268   6.843  15.230   5.574  0.2370 -0.0218  0.2417
21460W        W37269  18.230  11.988   5.392 -0.1068  0.1607  0.1598
21461W        W37270   8.795  13.389  12.424 -0.1452  0.0682  0.1871
21462W        W37271  13.143   5.525  13.177  0.2014  0.0992  0.1803
21463W        W37272   1.907  10.068   2.587 -0.0503  0.1067  0.2214
21464W        W37273  15.256   1.205  13.784 -0.1005  0.0124 -0.1149
21465W        W37274   6.142   9.725  13.429 -0.1778 -0.1643 -0.1215
21466W        W37275   2.466  16.746   5.072  0.0002  0.0688 -0.1881
21467W        W37276  13.903  17.253  10.797 -0.4771  0.0050  0.4829
21468W        W37277   9.829  18.048   1.375  0.1845  0.0938 -0.0734
21469W        W37278   2.475  13.344   5.780  0.1849  0.0394 -0.3763
21470W        W37279   1.231  17.237   2.592  0.2648  0.1461  0.1624
21471W        W37280  15.502   9.697  12.108 -0.0602 -0.0986 -0.0411
21472W        W37281  11.531   7.204  13.942  0.3176  0.0254 -0.1816
21473W        W37282  12.489   7.944   5.103 -0.1123  0.1648 -0.1522
21474W        W37283   2.437  10.873  13.034  0.1600  0.0312  0.0209
21475W        W37284   9.935  17.834   0.578  0.1146 -0.0311 -0.1098
21476W        W37285   9.893  12.734   3.168  0.1087 -0.3699  0.0285
21477W        W37286  16.556  16.806   1.105 -0.0466 -0.0514 -0.0226
21478W        W37287   8.812  11.767  12.865  0.0102  0.1253 -0.2711
21479W        W37288   0.463  16.302   4.614 -0.0057  0.0976  0.0169
21480W        W37289  14.939   0.619   3.410 -0.3176 -0.0545 -0.1665
21481W        W37290   8.524   0.054   0.170 -0.1027 -0.2612 -0.1013
21482W        W37291   1.966   7.285  13.338 -0.0501 -0.1444  0.1788
21483W        W37292  17.001  14.565  13.897  0.1896  0.2203  0.0374
21484W        W37293  15.082  16.249  14.018  0.1210  0.1960  0.0376
21485W        W37294   2.309   1.527  10.759  0.0076  0.1660 -0.1393
21486W        W37295  13.392   8.636   0.976 -0.2322 -0.2136  0.1106
21487W        W37296  12.342   2.751   2.418  0.1016 -0.1869 -0.1728
21488W        W37297  11.796  11.978   0.470 -0.5217 -0.1759 -0.2040
21489W        W37298   7.829  13.458   5.084  0.0917 -0.2015 -0.2464
21490W        W37299  13.947   9.625  12.338 -0.0077 -0.2019 -0.0699
21491W        W37300   6.889  15.759  15.265  0.0611  0.1906 -0.0124
21492W        W37301  18.141   7.671  11.575 -0.3101 -0.2654  0.0410
21493W        W37302  16.251   0.417   0.177  0.1032 -0.0753  0.1358
21494W        W37303   7.828  10.991   3.687 -0.1518 -0.0180 -0.1576
21495W        W37304   9.485  13.552  10.449 -0.1153 -0.0101 -0.1078
21496W        W37305   8.170   4.870  15.244  0.0556  0.0636 -0.0164
21497W        W37306  12.054   9.887  12.438 -0.0701  0.4324  0.0562
21498W        W37307   1.533   1.970  10.865 -0.0271  0.1820 -0.0119
21499W        W37308   4.610  10.669   5.261 -0.0224 -0.1156  0.1350
21500W        W37309   3.118   5.364   4.407  0.0547 -0.1781 -0.0282
21501W        W37310  10.943  12.264   3.908 -0.2446 -0.0768 -0.0126
21502W        W37311   2.649  12.176   0.057 -0.1204  0.1447  0.0457
21503W        W37312  15.129  11.528   1.455 -0.0213  0.1164 -0.0110
21504W        W37313   7.625  13.838   5.406 -0.0900 -0.1671 -0.1058
21505W        W37314   6.618  17.346   3.862 -0.1237  0.0275 -0.0609
21506W        W37315   9.239   1.783  15.129 -0.1697  0.0279  0.0030
21507W        W37316  16.166   2.988   5.277  0.0616  0.1197  0.0261
21508W        W37317  10.329   1.952  12.122 -0.1012 -0.0265  0.0477
21509W        W37318  12.709  13.139   1.503 -0.2836 -0.1287 -0.2728
21510W        W37319   4.452   5.454   1.886 -0.0807  0.0866  0.1075
21511W        W37320  12.197   4.464   0.474  0.0073 -0.0814 -0.0264
21512W        W37321   7.956   8.346  12.869  0.2330  0.0764  0.1111
21513W        W37322   1.503   6.257  14.191 -0.1285  0.0333  0.3489
21514W        W37323  16.149   2.925   4.189  0.2778  0.1497  0.1602
21515W        W37324   9.447  10.869   4.978 -0.0213 -0.2954  0.1282
21516W        W37325   7.802   4.100  11.830  0.1156  0.1456  0.2098
21517W        W37326  18.180  15.128  12.047  0.0107  0.0545  0.1278
21518W        W37327   0.443   3.654   4.544 -0.1680 -0.0101  0.3570
21519W        W37328   2.715  18.009  12.071  0.0183  0.0438  0.1938
21520W        W37329  16.319  10.647   3.251  0.1410  0.1492 -0.0960
21521W        W37330  13.514   9.970   4.996  0.0150 -0.0321  0.2604
21522W        W37331  13.306  14.889  14.334  0.0835  0.0841 -0.0748
21523W        W37332   0.357   3.942  15.227  0.0837 -0.1133 -0.0211
21524W        W37333  14.643   0.076  11.091 -0.3055  0.1716 -0.1954
21525W        W37334  13.817  13.004   2.712 -0.1848 -0.1206  0.0443
21526W        W37335   5.170   4.690   4.463 -0.2741 -0.0348  0.1998
21527W        W37336  15.313  15.313  12.579  0.0106  0.1578  0.0119
21528W        W37337   2.554  17.656   1.110  0.1705 -0.1887  0.1356
21529W        W37338   9.375   1.539   3.620  0.1602 -0.0664 -0.3001
21530W        W37339  11.675  15.827   2.592 -0.0960  0.0149 -0.0262
21531W        W37340   3.496   0.535   0.655 -0.0173  0.1994  0.0823
21532W        W37341   9.781  10.158  12.264  0.1527 -0.0568  0.2202
21533W        W37342  16.727   1.260  13.071  0.1646  0.1929  0.0643
21534W        W37343   3.409   8.332   3.378  0.1161  0.1414  0.2583
21535W        W37344   6.419   3.474   2.273 -0.3721  0.3688 -0.1092
21536W        W37345   3.731   0.709  11.155  0.0066 -0.2406 -0.1480
21537W        W37346  16.982  15.950   3.677 -0.2076  0.0072 -0.0307
21538W        W37347   1.820  17.313  14.459  0.0841  0.1714 -0.0217
21539W        W37348  12.374  15.636   1.219 -0.0342 -0.0967  0.1433
21540W        W37349  13.921  15.257  11.397  0.2877  0.1269 -0.1265
21541W        W37350   8.870  17.044   0.329 -0.1970  0.3065  0.0531
21542W        W37351  11.942   5.977  13.904 -0.2132 -0.3943 -0.2145
21543W        W37352  13.185  10.715  12.809 -0.2020  0.2432 -0.1200
21544W        W37353   0.652  16.944  11.568  0.1693 -0.0802 -0.3276
21545W        W37354   4.117   8.205  15.515  0.1990 -0.0524 -0.2475
21546W        W37355  17.345   5.337   3.771  0.1520  0.2045 -0.1665
21547W        W37356  11.318   6.393  10.446 -0.2019  0.0773 -0.1016
21548W        W37357  10.198  14.672   3.675 -0.1000 -0.0820  0.0319
21549W        W37358  13.536  10.372   0.046  0.0339 -0.3537  0.1971
21550W        W37359  13.099   9.022   4.580  0.1732  0.2844 -0.1005
21551W        W37360  16.498   0.322  13.608 -0.0369 -0.0445  0.1254
21552W        W37361  11.279   7.780   2.491  0.1952  0.0298  0.2011
21553W        W37362   1.681   4.055   1.524 -0.1466 -0.1004  0.1315
21554W        W37363   4.896  15.525   0.785 -0.0721  0.1526  0.3760
21555W        W37364   5.956   6.151   2.071  0.3871 -0.0780 -0.0969
21556W        W37365  12.982   1.966   3.126 -0.0732 -0.0950 -0.1725
21557W        W37366   7.164   7.287  12.997 -0.3474  0.0386 -0.3751
21558W        W37367   7.009  15.385   1.057  0.3913  0.0076  0.1684
21559W        W37368   9.382  16.671   0.754  0.0897  0.0111 -0.1949
21560W        W37369  10.911   6.396  14.583 -0.2173 -0.1758 -0.1394
21561W        W37370  17.792   2.654   1.164  0.2745  0.2625 -0.2336
21562W        W37371   2.410   3.794  15.012 -0.2783  0.0490  0.0063
21563W        W37372   9.170   0.699  10.089 -0.3169  0.0840 -0.1024
21564W        W37373   4.994   3.628   4.069 -0.0270  0.0369  0.0541
21565W        W37374   1.873   4.474  15.577  0.0746  0.1908  0.1924
21566W        W37375  13.030  16.149   2.448 -0.2770  0.0690  0.2242
21567W        W37376   8.140  16.312   0.375  0.2329 -0.0733  0.1140
21568W        W37377   4.545  11.482   0.992  0.2274 -0.1175  0.0989
21569W        W37378  17.550  13.146   0.356  0.0670  0.0673  0.1488
21570W        W37379  12.615  13.913  15.288 -0.1990 -0.0381 -0.1377
21571W        W37380   8.840  14.330   2.420 -0.0266  0.0732  0.1750
21572W        W37381   4.292  14.030   0.540  0.2105 -0.3240  0.0770
21573W        W37382   1.455  16.290   3.265 -0.0057 -0.0701  0.0977
21574W        W37383  16.324  12.314   0.600 -0.1215  0.0008  0.1363
21575W        W37384   8.867   3.070  16.023  0.1387  0.0770  0.0549
21576W        W37385  15.735  15.497  16.007 -0.2296 -0.1677 -0.1708
21577W        W37386   4.469  16.756   4.750  0.2414 -0.2926 -0.2571
21578W        W37387  17.159  12.439  14.073 -0.1961  0.0481  0.2081
21579W        W37388   4.195   5.528  15.531 -0.0032 -0.0518 -0.3694
21580W        W37389  10.856   9.948   3.785 -0.0359  0.0982 -0.0604
21581W        W37390  16.630  16.544  12.350  0.0857  0.0607  0.0671
21582W        W37391  11.377   6.466  11.669 -0.4412 -0.1334 -0.2737
21583W        W37392  15.996   8.460  15.059 -0.0955 -0.2622 -0.0927
21584W        W37393   0.390  10.127  14.344 -0.1044  0.0141  0.1025
21585W        W37394  13.273   8.912  13.109  0.1219  0.0700  0.2568
21586W        W37395  14.533  12.517   2.225  0.0086 -0.0470 -0.1958
21587W        W37396  12.427  14.317  11.542  0.4129 -0.0024 -0.2614
21588W        W37397  16.097  12.118   4.455 -0.0087 -0.3715 -0.0757
21589W        W37398  15.965  11.644   0.114  0.2016 -0.2341 -0.2136
21590W        W37399  13.974   1.545   4.520 -0.0022 -0.1242 -0.1030
21591W        W37400  11.313   3.989   5.694  0.1060 -0.0395  0.0220
21592W        W37401   2.914  15.943  13.251  0.1669  0.2136  0.3536
21593W        W37402   7.985   7.103  15.001  0.2141 -0.0884 -0.0504
21594W        W37403   0.852  17.038   2.848  0.1109 -0.1041 -0.0210
21595W        W37404  13.531  11.117   3.460 -0.1852  0.1381 -0.0189
21596W        W37405   2.894  10.012   3.559  0.1421  0.0611 -0.0879
21597W        W37406   3.854   6.001  10.001  0.1556 -0.0118  0.2135
21598W        W37407   4.256   6.882   9.936 -0.1809  0.1234  0.1672
21599W        W37408   5.569   1.820  13.175  0.2315 -0.0877  0.1269
21600W        W37409   6.971  16.606  11.476  0.0650 -0.1166 -0.0760
21601W        W37410   1.618  15.859  13.270  0.0970  0.0180  0.0457
21602W        W37411   5.564  11.163  13.251 -0.3395 -0.0732  0.0205
21603W        W37412   1.229   6.568   2.405  0.1326  0.0287  0.0499
21604W        W37413   0.899   8.747  16.027  0.0033 -0.3194  0.1808
21605W        W37414   9.394   7.842  12.986 -0.2503 -0.0910 -0.0712
21606W        W37415   7.982   4.516   0.427 -0.1793  0.0249  0.0468
21607W        W37416  15.458   8.075   0.913  0.1622  0.1061  0.0331
21608W        W37417   9.418  15.738  14.311 -0.2818  0.1567 -0.0311
21609W        W37418   1.443   3.679   0.724  0.2322  0.1458  0.0046
21610W        W37419   9.662   0.172  10.714  0.0568 -0.2491  0.2445
21611W        W37420  13.242  12.389  11.930 -0.1892  0.4282 -0.0141
21612W        W37421   1.306   3.053  13.238  0.1811  0.2229  0.1386
21613W        W37422  18.075  15.977  12.960  0.2323 -0.5005 -0.2271
21614W        W37423   2.874  12.709  13.700 -0.0184  0.2004 -0.0318
21615W        W37424  16.964  17.822   2.543  0.0335 -0.2363 -0.0661
21616W        W37425  16.769  11.720   2.795 -0.2139  0.1085 -0.1266
21617W        W37426  15.693  16.774  15.042 -0.3026 -0.0642  0.0858
21618W        W37427  14.656   2.539  12.500 -0.1672 -0.1184 -0.0606
21619W        W37428  13.064   6.438  14.217 -0.0354 -0.1397 -0.2689
21620W        W37429  10.469   5.026  12.541 -0.0676  0.1202  0.1819
21621W        W37430   3.812   3.796  12.424  0.0802  0.2251  0.1382
21622W        W37431   7.951  15.763  11.469 -0.0810  0.1637 -0.1430
21623W        W37432  14.270   1.280  10.626  0.0343  0.1440  0.0653
21624W        W37433   7.837   4.501  15.975  0.1686 -0.0375  0.0593
21625W        W37434   2.150  14.342  11.869 -0.1609  0.0539 -0.0487
21626W        W37435   9.333   8.820   2.728  0.2778 -0.0001  0.0944
21627W        W37436   8.935  15.414   2.930 -0.1538 -0.2422  0.0186
21628W        W37437   3.919   8.517   1.436 -0.0011  0.2233  0.1320
21629W        W37438  14.759   5.556   4.510 -0.1262 -0.0440 -0.0436
21630W        W37439   2.960  13.053  12.116  0.1209  0.0317 -0.1762
21631W        W37440  11.758  12.794   6.242 -0.1052 -0.0096 -0.1335
21632W        W37441   1.707   4.932   0.251  0.0292  0.1470 -0.1177
21633W        W37442   6.155   5.888   2.511 -0.0531 -0.1517 -0.1576
21634W        W37443   8.546   8.859   3.857  0.0147 -0.1314 -0.2608
21635W        W37444   6.733   9.547   9.887  0.2128 -0.3452 -0.2795
21636W        W37445   3.597   3.633   9.799 -0.0796  0.0436 -0.0261
21637W        W37446   2.510   6.316  13.236 -0.1440 -0.1471 -0.2833
21638W        W37447   7.393   7.162  14.074 -0.2745  0.2359 -0.2590
21639W        W37448  16.417   6.785  12.818  0.3406  0.0282 -0.0025
21640W        W37449   1.192   1.091  15.213  0.3360  0.1143  0.4113
21641W        W37450  14.470  17.766  13.502 -0.2014 -0.2273  0.0842
21642W        W37451   3.269  15.411   0.111 -0.0121  0.4798 -0.1287
21643W        W37452  11.054   3.199   3.795  0.1535 -0.0028  0.1234
21644W        W37453   5.384  17.153   3.078  0.1440 -0.0071  0.0823
21645W        W37454   4.611  17.818  14.601 -0.0533  0.1803  0.0660
21646W        W37455  17.420  15.079   2.217 -0.2644  0.0519  0.2888
21647W        W37456  12.923   9.241   2.708  0.0185  0.1583  0.1886
21648W        W37457  18.166  18.138  10.396  0.1289  0.0263 -0.3066
21649W        W37458   2.779   3.903  11.542  0.0551 -0.0026  0.2935
21650W        W37459   5.612   9.579   3.549  0.1078  0.0498  0.0774
21651W        W37460  16.971   1.676  13.819  0.2054  0.1759  0.3220
21652W        W37461  14.203  13.056  11.665  0.0382 -0.0629  0.0866
21653W        W37462  13.506   5.410   2.455  0.0088  0.2434  0.2180
21654W        W37463  10.736  12.653  10.827  0.1172 -0.0257  0.0082
21655W        W37464   8.829   1.461  11.393 -0.0253 -0.1524  0.2314
21656W        W37465  17.909  13.025   1.301  0.1514 -0.1941  0.2945
21657W        W37466   3.522   4.203  12.704 -0.0424  0.2082 -0.1941
21658W        W37467  14.329  16.863  12.255  0.0398 -0.3032  0.0576
21659W        W37468  14.296  13.897  14.056  0.3167 -0.0241 -0.1216
21660W        W37469  17.796  13.646  13.203 -0.1404  0.2753  0.0552
21661W        W37470  15.963  11.086  14.579 -0.0099  0.3177  0.0169
21662W        W37471  14.881   4.898  13.858  0.1441 -0.0518  0.0607
21663W        W37472  14.462   3.814  13.412  0.0485 -0.1635  0.1857
21664W        W37473  15.437  14.272   3.586  0.2692 -0.0356  0.0339
21665W        W37474  12.951   5.570  12.702  0.1185  0.0535 -0.2679
21666W        W37475   0.900  17.520   2.850  0.1478 -0.2380  0.1214
21667W        W37476  10.594  16.382   2.331  0.0076  0.1596  0.1446
21668W        W37477  11.625   0.697  14.822  0.3164 -0.1225  0.3963
21669W        W37478   1.045   5.464   2.710 -0.4066 -0.0210  0.0368
21670W        W37479   6.871   1.112  13.734  0.2207  0.1208 -0.0961
21671W        W37480  14.557   0.207  14.596 -0.2018 -0.2236  0.3236
21672W        W37481  14.237   6.234   1.184 -0.2720  0.0998  0.0046
21673W        W37482   3.620   5.357  10.645 -0.1483  0.0871  0.0701
21674W        W37483  15.343  16.993   5.877  0.2679  0.1587  0.0563
21675W        W37484   3.061  16.471   4.415 -0.0215 -0.0841  0.1703
21676W        W37485   3.731   8.883   0.582  0.0930 -0.0241 -0.0640
21677W        W37486  14.510   0.407   5.173 -0.0366 -0.3980  0.1414
21678W        W37487   5.037   6.745   4.857  0.1196 -0.1958  0.1108
21679W        W37488   3.077   8.096  11.509  0.2551 -0.0743 -0.0082
21680W        W37489   2.437  14.578  14.689  0.0322 -0.2181 -0.0531
21681W        W37490   5.103  17.137   2.464 -0.2879 -0.2287 -0.2824
21682W        W37491   0.567  11.986  11.960 -0.1405  0.1094  0.0819
21683W        W37492  17.605  16.148   1.230 -0.2506 -0.0056 -0.0493
21684W        W37493   7.768   4.389   0.937  0.3012 -0.1376 -0.0345
21685W        W37494   1.224  10.825   0.560 -0.2816 -0.1315  0.2724
21686W        W37495   6.009  15.689  13.221 -0.4574 -0.1321  0.0194
21687W        W37496   4.576   7.982  10.816  0.1952 -0.0903 -0.0802
21688W        W37497   5.713  15.547   3.479  0.0024  0.1278  0.1986
21689W        W37498  11.871   5.305   3.509  0.0104  0.1563  0.2510
21690W        W37499  14.415   5.167   0.023  0.1341 -0.0732 -0.1750
21691W        W37500   2.480  11.411   4.156  0.0286 -0.0121 -0.2347
21692W        W37501  15.710   5.812   2.958 -0.1832 -0.0330  0.0215
21693W        W37502   5.980  17.444  13.219  0.0106  0.0410  0.0425
21694W        W37503  16.777   9.120   1.778 -0.2871  0.0637 -0.1520
21695W        W37504  15.620   1.398  10.531  0.0675  0.2846 -0.2366
21696W        W37505  15.109  12.745   0.899  0.1486 -0.0578 -0.1222
21697W        W37506  17.580  12.194  11.235  0.1465  0.2218  0.0131
21698W        W37507  12.884  15.793   0.143  0.1924  0.2766  0.1732
21699W        W37508   8.584   3.371  14.678 -0.0639  0.0546 -0.2337
21700W        W37509  12.371  15.399   1.767  0.1500  0.3674 -0.0485
21701W        W37510  14.297   1.038   0.591  0.1011  0.0778 -0.1212
21702W        W37511   0.247   1.151  15.545  0.1344 -0.1974 -0.0598
21703W        W37512   2.174   5.206  14.253 -0.2364  0.4195 -0.2621
21704W        W37513   4.374   2.567  15.501  0.0905  0.0040 -0.0886
21705W        W37514  13.768   7.681  15.685 -0.2174  0.1753 -0.1728
21706W        W37515  12.688  15.085   0.426  0.0841  0.0858  0.3398
21707W        W37516  10.246   1.557  14.267  0.1820  0.0795  0.2269
21708W        W37517  15.965   9.241   3.462  0.0814  0.0623 -0.0503
21709W        W37518   5.077  17.447   1.360 -0.0598  0.3400  0.3660
21710W        W37519   6.277  11.713   0.239 -0.0531 -0.2370 -0.0597
21711W        W37520  17.532   5.334  14.861 -0.0266 -0.1085  0.1811
21712W        W37521   3.161   4.968  12.168 -0.2942  0.1612  0.1666
21713W        W37522   0.208  12.715  13.838 -0.1660  0.0242  0.2190
21714W        W37523  11.004   4.531  11.523  0.1138 -0.0481 -0.2251
21715W        W37524  12.119  10.838   3.779  0.2377 -0.1879 -0.2620
21716W        W37525  17.484   3.471  14.442 -0.2544 -0.1832  0.1812
21717W        W37526  15.951   2.381   1.327  0.1989 -0.3586 -0.0415
21718W        W37527   8.447  10.191   3.281  0.1368  0.1015 -0.1659
21719W        W37528   8.114   8.381  13.522 -0.1361 -0.1031  0.0521
21720W        W37529   1.912   5.267   3.749  0.2056  0.1533  0.0040
21721W        W37530  16.294   1.156   1.605  0.2304  0.1056  0.1310
21722W        W37531   9.033   8.758   3.625 -0.0258  0.3323 -0.3114
21723W        W37532   9.068  16.639   3.005 -0.1605 -0.1265 -0.0422
21724W        W37533  10.800   5.979   4.578 -0.0103  0.0957 -0.0508
21725W        W37534   6.582   6.178   0.300 -0.0981 -0.0943  0.2601
21726W        W37535   6.380   2.124  11.959 -0.0989 -0.2298  0.2472
21727W        W37536  13.300   6.214   4.556  0.1210  0.0894  0.1552
21728W        W37537   1.182   6.308  11.325 -0.1137 -0.0702 -0.1236
21729W        W37538   5.542  15.416  14.600 -0.2403  0.0469  0.1212
21730W        W37539  13.064   4.828  10.522  0.3756  0.1485 -0.0963
21731W        W37540  12.707  14.070   4.914  0.0950 -0.0071  0.1459
21732W        W37541   6.362  17.302  15.168 -0.1045 -0.0752 -0.1296
21733W        W37542   6.909   5.020   2.608  0.0031 -0.3486  0.0909
21734W        W37543  12.522   2.777   4.762  0.0313  0.1532  0.0238
21735W        W37544  10.721   1.522  11.314  0.0873  0.1942  0.1292
21736W        W37545  12.151  14.286  13.499  0.0516  0.0614 -0.0903
21737W        W37546   8.753   7.036  13.301 -0.0420 -0.2804 -0.0962
21738W        W37547  12.486   5.784  11.788  0.0114  0.1036  0.1110
21739W        W37548   9.150  12.732  12.352  0.1560 -0.0594 -0.1649
21740W        W37549  17.544  15.997   2.422 -0.1929  0.1833  0.1397
21741W        W37550   8.454   1.780  15.965  0.0670  0.0411  0.0628
21742W        W37551  17.250   7.331  11.623  0.2111 -0.0360 -0.0681
21743W        W37552   0.160   3.874   1.935  0.0990 -0.1019 -0.0068
21744W        W37553   0.507  16.005   5.016  0.0602  0.0846 -0.0648
21745W        W37554   5.521   3.076   1.587  0.4508  0.0510  0.1016
21746W        W37555   6.576   5.261   4.668 -0.1085  0.0929  0.0405
21747W        W37556   6.922   8.326  11.441 -0.2040  0.3914 -0.2188
21748W        W37557   0.432  12.150  13.774  0.2534 -0.1206 -0.0350
21749W        W37558   3.067  12.884  15.625  0.2430 -0.1572 -0.1528
21750W        W37559  13.407   1.729   1.702  0.0803  0.1629 -0.3260
21751W        W37560   0.930  17.884  13.600  0.0870 -0.0305 -0.2020
21752W        W37561   6.245   3.676  14.342  0.2761 -0.1738  0.1316
21753W        W37562  10.934   6.486   1.836 -0.2389 -0.1820  0.1421
21754W        W37563  12.584  15.580  12.227 -0.0147  0.0836 -0.1001
21755W        W37564   5.813  10.144  13.183 -0.1563 -0.2313  0.1050
21756W        W37565   5.076  16.769  10.372  0.1050  0.2858 -0.1332
21757W        W37566  10.249  13.131   0.787 -0.1356  0.1736 -0.1836
21758W        W37567  12.874   3.932  13.659 -0.2295  0.2044  0.2605
21759W        W37568   9.927   0.120  14.449 -0.3526  0.0245 -0.3862
21760W        W37569  15.967   6.827  11.568  0.0610 -0.0572 -0.0725
21761W        W37570  12.755  16.257  12.204  0.0209  0.2455 -0.2517
21762W        W37571   6.024  10.168  11.805 -0.1037  0.0377 -0.1373
21763W        W37572  11.582   5.440   2.760 -0.1712 -0.0731  0.1037
21764W        W37573  11.243   6.067   1.999 -0.2347  0.1207 -0.3370
21765W        W37574   2.289  13.855  15.958  0.2497 -0.0992 -0.0276
21766W        W37575  13.409  14.848  11.722  0.2354 -0.0349  0.1868
21767W        W37576   1.618  16.752   3.733  0.0326 -0.1879  0.0578
21768W        W37577  10.317   3.661   2.312  0.4413 -0.0558  0.1274
21769W        W37578   3.654   5.227   0.768  0.0419  0.0137 -0.0197
21770W        W37579  12.480  14.755  11.758 -0.2647 -0.3056  0.0254
21771W        W37580  10.142  13.230  14.400  0.1350  0.2531  0.0563
21772W        W37581   5.189   0.950   2.367 -0.2663  0.0479 -0.1228
21773W        W37582   6.750   1.928   1.946 -0.1065  0.0090  0.1742
21774W        W37583   3.341   0.585  15.644 -0.2867  0.0883 -0.1642
21775W        W37584  17.896   8.565   0.968 -0.3366  0.0352 -0.1160
21776W        W37585  15.144   4.089  11.888  0.0908 -0.0877  0.0665
21777W        W37586  15.111   0.333   5.954  0.1874 -0.1489 -0.3059
21778W        W37587   1.488  10.584   1.984  0.0224 -0.0357  0.0546
21779W        W37588   1.465  15.630  11.012 -0.3244  0.2019 -0.0840
21780W        W37589   6.237   6.290  11.782  0.0871 -0.0999  0.3587
21781W        W37590   4.298   3.494   1.105  0.1381  0.2418 -0.0001
21782W        W37591  10.264   8.092  11.339 -0.0185 -0.1192  0.0797
21783W        W37592   6.682  10.264  10.426  0.2660  0.0217 -0.2416
21784W        W37593   2.332  17.593   5.093 -0.2240  0.0243  0.2966
21785W        W37594   2.573   4.020  11.960  0.0644  0.1749 -0.2521
21786W        W37595   4.886   7.745  12.256 -0.1558 -0.1117 -0.0126
21787W        W37596  16.132  14.347   3.083 -0.1862 -0.1217  0.1742
21788W        W37597  10.987   5.556   6.305  0.3249 -0.1640 -0.0500
21789W        W37598   6.004   5.781   3.516  0.0780 -0.2401  0.0232
21790W        W37599   1.869   6.955   1.936  0.1387 -0.1482  0.2121
21791W        W37600   9.614   4.011   2.292 -0.0992 -0.0223  0.3272
21792W        W37601  16.694   1.342   0.785 -0.1438 -0.2125 -0.0542
21793W        W37602   8.057   0.722   3.458  0.0290 -0.0470 -0.0616
21794W        W37603   4.020   6.701   5.420 -0.0263 -0.1477  0.1832
21795W        W37604   2.002   3.223   4.482 -0.2147  0.0456 -0.1067
21796W        W37605   8.628  14.655   1.123  0.0385  0.0976  0.1492
21797W        W37606   4.680  11.206  15.994 -0.0822  0.0102 -0.1863
21798W        W37607  17.828  18.260   2.677 -0.2516  0.0251 -0.0740
21799W        W37608   4.720  16.564  13.261 -0.0300  0.0030 -0.1364
21800W        W37609  13.747   5.893  14.987  0.1149 -0.1941  0.1162
21801W        W37610  12.837  12.243   0.642 -0.1167  0.0748  0.1407
21802W        W37611   9.898   9.024   4.829  0.0219 -0.2135 -0.1452
21803W        W37612  12.695   7.240  12.164 -0.1131  0.0976 -0.0165
21804W        W37613   0.034   2.115  14.526  0.0236 -0.2196  0.0845
21805W        W37614   3.018   5.967  14.100  0.2666  0.0597  0.0463
21806W        W37615  11.270   8.149  12.827  0.1688  0.0790 -0.2317
21807W        W37616   0.199   2.205  15.828 -0.0925  0.3111  0.0320
21808W        W37617   7.232  16.912   4.484 -0.0012 -0.1221  0.0263
21809W        W37618   6.366  14.092   4.735 -0.2156  0.2086 -0.0111
21810W        W37619   6.081  13.682  15.255  0.0243  0.0781  0.0942
21811W        W37620   3.199   9.805  15.842  0.0048  0.2507  0.3202
21812W        W37621  10.610  17.889  11.310 -0.0764 -0.1210 -0.0103
21813W        W37622  17.249  14.660   2.492  0.0680 -0.1146  0.0905
21814W        W37623  14.213   8.907   3.248 -0.1208  0.0876  0.0949
21815W        W37624   9.797   9.176   1.123 -0.1370  0.0683  0.1940
21816W        W37625   9.871  13.477   0.881  0.0794 -0.2568  0.1141
21817W        W37626   3.325   8.530   2.127  0.2253 -0.0256  0.2082
21818W        W37627  14.987  13.138   3.905  0.0962 -0.0979 -0.2746
21819W        W37628   0.306  11.574   2.538 -0.0386 -0.2529  0.0464
21820W        W37629  13.113  12.281  11.439  0.0888 -0.1484  0.0206
21821W        W37630   2.707  17.224   3.709 -0.2758  0.1300 -0.1481
21822W        W37631   3.116   3.396  14.297 -0.2399  0.2500 -0.1095
21823W        W37632  14.116  17.227   4.614  0.0848 -0.4973 -0.0280
21824W        W37633  10.374   8.752   0.651  0.4271  0.2698  0.1152
21825W        W37634   4.914  11.653   0.110  0.1956  0.0023 -0.0241
21826W        W37635   9.715  17.475  14.782  0.1061 -0.1665 -0.0764
21827W        W37636   3.597   2.907   0.007  0.0972 -0.0671 -0.2621
21828W        W37637  17.133   6.475   1.373  0.1090  0.1134  0.1108
21829W        W37638   3.054  12.708  14.761 -0.1767 -0.0794 -0.0475
21830W        W37639   2.547   0.041  14.045  0.5134 -0.2328  0.1344
21831W        W37640  17.928  16.929   5.496  0.2234 -0.0118 -0.0186
21832W        W37641   8.725   6.973   0.304  0.0805  0.3519  0.2250
21833W        W37642  17.426   1.906  12.933 -0.0753  0.1037 -0.0620
21834W        W37643  13.284   2.538  14.221 -0.0486 -0.2257  0.1290
21835W        W37644   7.689  16.076  15.274  0.0837 -0.1772  0.2000
21836W        W37645   2.354   3.732   0.393  0.1760  0.2175 -0.0439
21837W        W37646  15.179   0.376  11.112 -0.1786 -0.0801  0.0230
21838W        W37647   5.467   2.942   3.850 -0.0869  0.0127 -0.1936
21839W        W37648   1.512  15.299   4.162 -0.0264 -0.1417 -0.0596
21840W        W37649   9.155   7.158  12.498 -0.0665 -0.0518  0.0547
21841W        W37650  16.755   7.122  11.626 -0.3136 -0.3218 -0.0409
21842W        W37651   6.404   8.903   4.908 -0.0515 -0.1042 -0.0296
21843W        W37652   2.973  14.031   6.090  0.1585 -0.4049  0.0263
21844W        W37653  13.809   7.210  14.845  0.0902  0.1123  0.4445
21845W        W37654  13.383   3.136  15.481  0.3671  0.1060 -0.0134
21846W        W37655   3.159  17.037   0.644  0.0125  0.1145  0.0618
21847W        W37656  17.567   8.400   5.826 -0.0324 -0.0841 -0.0887
21848W        W37657  13.489   7.947   0.740 -0.2062 -0.0954  0.0618
21849W        W37658  13.988  18.182   2.524 -0.1009  0.0119 -0.0112
21850W        W37659   7.660   5.514   3.699  0.0426 -0.2244  0.0921
21851W        W37660   9.288  14.108   1.325 -0.1815 -0.0123  0.4001
21852W        W37661  12.609  13.553  12.007  0.2440 -0.3752  0.2381
21853W        W37662  16.603  12.017   3.772  0.2363 -0.2910 -0.0942
21854W        W37663  17.932   2.617  13.960 -0.2252  0.1567 -0.2637
21855W        W37664   8.315  15.339  14.506  0.1432  0.0076  0.2018
21856W        W37665  16.526   1.426   4.657 -0.0083 -0.0401 -0.3718
21857W        W37666   8.019  14.227   1.639  0.1010  0.2092  0.4660
21858W        W37667   2.941   0.427   1.971  0.0711  0.0678 -0.0530
21859W        W37668  13.870  12.276   3.193  0.0678  0.1792  0.1412
21860W        W37669   6.813   3.679  14.791  0.1768 -0.0436 -0.0797
21861W        W37670   6.478  13.097  15.787 -0.0565  0.0317  0.0275
21862W        W37671  10.157  12.257  11.817  0.1195 -0.0018  0.1384
21863W        W37672  13.796   0.454   4.615 -0.0704 -0.0561  0.2223
21864W        W37673  13.090  17.259  14.228  0.2094  0.0371 -0.1734
21865W        W37674  12.431  13.250  13.048  0.0952  0.1456 -0.0734
21866W        W37675  14.119   2.435   1.808 -0.1745 -0.0174 -0.0767
21867W        W37676  10.696   0.779   5.170  0.1586  0.0971 -0.0677
21868W        W37677  14.831   6.919   3.394 -0.0024  0.2776  0.4068
21869W        W37678  12.888  18.161   6.252  0.1549  0.0698 -0.2073
21870W        W37679   1.905   0.318   3.010 -0.1475  0.1141 -0.0057
21871W        W37680  17.791   5.265   0.833  0.3248 -0.0202 -0.1010
21872W        W37681  15.309  17.706   0.105 -0.0211  0.0701  0.4557
21873W        W37682   6.952  13.282   0.476 -0.1235  0.2340 -0.0540
21874W        W37683   9.354  17.833   4.193  0.2799  0.0953 -0.0758
21875W        W37684  17.583  10.898  10.618  0.0520  0.2382  0.1935
21876W        W37685   5.749   0.233   6.128 -0.0265  0.0484 -0.0981
21877W        W37686   6.493   3.692  12.199  0.0732 -0.0740  0.0035
21878W        W37687  14.455   0.495  11.974 -0.1000  0.0766  0.2146
21879W        W37688   7.019   8.870   3.644 -0.2224 -0.0868 -0.0717
21880W        W37689  11.525   9.668   0.772 -0.1657 -0.2534 -0.0932
21881W        W37690   5.456   3.462   1.883  0.1376  0.1180  0.0021
21882W        W37691   4.724  18.100  14.103 -0.0166  0.0991  0.0355
21883W        W37692   3.296  10.933   5.208  0.0412 -0.1213  0.1089
21884W        W37693   0.484  12.625  15.089 -0.1344  0.4499  0.0143
21885W        W37694  17.639  14.338   2.532  0.0962  0.1361 -0.0202
21886W        W37695   2.710  10.440  14.033 -0.0572 -0.1404 -0.0242
21887W        W37696  11.254   7.955  12.118 -0.1945 -0.0046  0.0559
21888W        W37697   4.318   3.751  13.951  0.1659 -0.0716 -0.0363
21889W        W37698   7.117  17.742  12.671 -0.2502  0.1658  0.0431
21890W        W37699  15.293   0.358  15.820  0.0465 -0.2997 -0.1942
21891W        W37700   4.591  15.424   4.185 -0.1941  0.3932  0.0776
21892W        W37701  15.266   9.172   4.240 -0.0020 -0.2570  0.1827
21893W        W37702   3.664  14.895  13.468 -0.1510  0.0738  0.1077
21894W        W37703   4.393   6.247   0.747 -0.0204  0.1896  0.2292
21895W        W37704   9.330  14.407  11.885  0.0294  0.1775 -0.0591
21896W        W37705   0.194   5.869  15.186  0.2320  0.2411  0.0629
21897W        W37706   8.832  15.142   3.968  0.1501  0.1804 -0.2425
21898W        W37707   7.694   6.430  15.508 -0.0184 -0.3954 -0.1514
21899W        W37708  17.015   3.114  14.114  0.0117  0.3358 -0.1417
21900W        W37709   8.112   9.585   2.344  0.2242  0.2549  0.1386
21901W        W37710   2.713   8.030   4.746 -0.0629  0.4539  0.3329
21902W        W37711  16.681  11.799   1.237 -0.2238  0.2988  0.0704
21903W        W37712   6.725  11.762  11.108 -0.1407 -0.3905 -0.1510
21904W        W37713  17.945   8.338   0.523  0.1171 -0.0214 -0.2908
21905W        W37714  11.405  11.675   3.369  0.0958  0.0249 -0.0291
21906W        W37715   3.338  17.732   3.359  0.2013 -0.1342  0.1797
21907W        W37716   7.984   6.862  15.460 -0.3638 -0.1610  0.0835
21908W        W37717   9.432   3.527  14.548  0.0183  0.2220  0.2002
21909W        W37718  10.401  11.373   4.073 -0.1253  0.1941  0.0936
21910W        W37719   9.294  12.151   3.021  0.0713 -0.1735 -0.0741
21911W        W37720   0.043  17.348  15.296  0.0411 -0.2271 -0.0638
21912W        W37721   0.641   0.706   2.424  0.0978 -0.0213  0.0204
21913W        W37722   6.771   1.738  14.691 -0.3287  0.0398 -0.0708
21914W        W37723   6.691   8.346   2.251  0.1310 -0.2633  0.2454
21915W        W37724   0.283   3.875  12.243  0.0910 -0.4274 -0.0300
21916W        W37725   3.659  11.837  10.807 -0.1435  0.1385  0.1695
21917W        W37726  10.360  14.551   4.607 -0.1707  0.0056 -0.2855
21918W        W37727   4.837   2.412  11.205 -0.1419 -0.3939 -0.0274
21919W        W37728  12.409   3.341   1.625 -0.4056  0.1325  0.1311
21920W        W37729  12.742  11.562   1.491 -0.1668 -0.4515  0.0099
21921W        W37730   8.955   3.969  11.890  0.0655  0.0298 -0.0392
21922W        W37731   4.988   8.814  13.738  0.2673 -0.0272  0.0164
21923W        W37732   0.609   1.047   2.025 -0.3238  0.1334 -0.1125
21924W        W37733  15.962  13.795   4.997 -0.1525 -0.0893 -0.1054
21925W        W37734  11.986   1.417   0.531  0.1632  0.0630 -0.0611
21926W        W37735   8.030   5.962  15.711 -0.1283 -0.0187 -0.0747
21927W        W37736  11.995   4.335  14.222  0.0601 -0.1565  0.2021
21928W        W37737  10.821   1.307  12.155 -0.2788 -0.0314  0.0509
21929W        W37738   6.974   3.391   0.643  0.2231 -0.0984 -0.0240
21930W        W37739  14.663   8.408  11.163  0.1243  0.0838 -0.0754
21931W        W37740  11.924  12.454   3.021  0.1313  0.1987  0.0516
21932W        W37741   1.920  10.666  11.457 -0.1766  0.0143 -0.0511
21933W        W37742  16.783   1.251  15.434  0.1744  0.3006 -0.1883
21934W        W37743   5.101  14.065   3.065  0.2010 -0.4302 -0.0108
21935W        W37744   9.830   7.501   2.586 -0.0168 -0.1509 -0.1970
21936W        W37745  17.778   4.462  14.468 -0.0179 -0.0318 -0.0384
21937W        W37746   9.103  11.074  12.216 -0.1856 -0.0469 -0.4434
21938W        W37747  14.871  13.862  14.859  0.0100 -0.0823  0.1175
21939W        W37748  13.447   2.144  14.420  0.2648  0.2767 -0.1292
21940W        W37749   1.056   1.397   4.311 -0.0927  0.0696 -0.1818
21941W        W37750  10.431   6.575  12.113  0.0550 -0.0151  0.2451
21942W        W37751   1.660   5.691  11.306  0.5113  0.0241 -0.1614
21943W        W37752   1.518   5.669   2.054 -0.1045 -0.1324  0.1425
21944W        W37753  13.841  11.706  11.794  0.1442 -0.3795 -0.1164
21945W        W37754   7.588   7.090  16.052 -0.2255  0.3067  0.1544
21946W        W37755   8.785  13.406  15.761  0.1589 -0.3623 -0.1548
21947W        W37756  13.787   1.827   2.968  0.2487 -0.1462 -0.0888
21948W        W37757   9.700   0.444  12.407  0.1790 -0.1276 -0.0395
21949W        W37758   7.637  10.302  15.461  0.0176  0.1590 -0.2238
21950W        W37759   4.066  17.232   5.853  0.1918 -0.1649 -0.0231
21951W        W37760  14.250   4.669  15.975  0.0350 -0.1784 -0.1231
21952W        W37761   6.472  13.491  12.631  0.1632  0.0796 -0.0242
21953W        W37762   9.275  14.658  11.044 -0.0983 -0.0528  0.1814
21954W        W37763   7.075   3.266  14.542  0.0312 -0.2503  0.0569
21955W        W37764  17.027  15.112  15.772  0.1180  0.2627  0.0623
21956W        W37765  11.632   8.937  13.751  0.1318  0.3032  0.0407
21957W        W37766   7.003  11.133  11.845 -0.1143  0.1449 -0.2890
21958W        W37767   7.654  15.928   5.806 -0.2185  0.1981 -0.0366
21959W        W37768  14.404  13.531   5.195  0.1166  0.0575 -0.0479
21960W        W37769   0.083  11.067  11.706 -0.3490 -0.0530  0.0106
21961W        W37770  13.391   4.032   3.246 -0.1184  0.1488 -0.1088
21962W        W37771   6.311  10.727  15.199  0.3191 -0.0025  0.1462
21963W        W37772  15.302   0.949   3.090 -0.0938  0.2246  0.2356
21964W        W37773  13.319   5.070   4.489 -0.1401  0.1391 -0.0708
21965W        W37774   5.712  16.149  13.158 -0.0192  0.0268 -0.1919
21966W        W37775  13.864   6.725  14.467  0.0769  0.1410  0.0943
21967W        W37776  16.860  16.351  10.517  0.2134  0.1130 -0.0223
21968W        W37777   3.767   7.333  14.072 -0.1244 -0.1475  0.1491
21969W        W37778   8.253   0.763  12.203  0.0384 -0.0661 -0.1900
21970W        W37779   7.163  10.791   4.731 -0.0576  0.1384 -0.0364
21971W        W37780   8.129   5.311  11.319 -0.0157  0.1549 -0.1380
21972W        W37781   7.984  12.698   5.461 -0.2130 -0.1581 -0.0151
21973W        W37782   5.846  12.863   4.131 -0.0563 -0.0024  0.4698
21974W        W37783   5.952  17.042   4.460  0.1749 -0.0949  0.3654
21975W        W37784  12.430  14.960  13.242  0.1884 -0.1154  0.3512
21976W        W37785   8.835   7.694   5.480  0.1452  0.3762  0.2675
21977W        W37786  11.559   3.880  13.203  0.1051 -0.1120 -0.1981
21978W        W37787  10.819   3.591   4.828  0.1556  0.3592  0.1220
21979W        W37788   0.775   6.041  12.150 -0.0106  0.3190  0.0515
21980W        W37789   9.838   8.212  11.117 -0.2464  0.1511  0.0269
21981W        W37790  15.663   5.315   5.030  0.1537  0.2123  0.0675
21982W        W37791   9.986  10.926  13.337  0.0771  0.0245 -0.1567
21983W        W37792   2.606   1.721  15.711  0.2290  0.1272 -0.0775
21984W        W37793   0.794   8.676   4.791 -0.1635 -0.1243 -0.4493
21985W        W37794  17.616   7.860  11.301  0.0720 -0.1359  0.3551
21986W        W37795   2.533  11.514   2.321 -0.0461  0.1638 -0.0031
21987W        W37796   4.144  16.158   3.534  0.2188  0.0299  0.0673
21988W        W37797  12.630  14.943   4.263  0.0322 -0.0260  0.0282
21989W        W37798   4.842   4.573  12.215  0.1944 -0.3766 -0.3564
21990W        W37799   9.742  13.406   1.958  0.0454 -0.0094 -0.0517
21991W        W37800  13.212   9.144   3.195  0.1476 -0.0045  0.2007
21992W        W37801  14.507   0.636   3.637  0.1589  0.3357 -0.0127
21993W        W37802   1.143   4.764  11.740 -0.0076 -0.0288 -0.0547
21994W        W37803  11.641   2.551  13.097 -0.0937 -0.0904 -0.0488
21995W        W37804   6.370   4.384   2.304 -0.2012  0.1068 -0.0765
21996W        W37805   1.335   1.233   2.957  0.1140 -0.1358  0.1464
21997W        W37806  15.253   7.165  15.562  0.1313  0.1484 -0.1696
21998W        W37807   0.245   6.867  13.114  0.4147 -0.1067 -0.0387
21999W        W37808  13.043  11.243  14.300  0.0698  0.2122 -0.2822
22000W        W37809   5.807   6.306   6.038 -0.0040  0.1784 -0.0169
22001W        W37810   8.321   6.262   3.941 -0.0030  0.1348  0.1080
22002W        W37811   0.631   3.065   2.361  0.0184 -0.1241  0.1717
22003W        W37812   6.268  10.084   4.015  0.4172 -0.0575  0.0389
22004W        W37813   1.508  11.530  10.676 -0.0317 -0.0387  0.0728
22005W        W37814  11.832  12.945  11.742  0.0180  0.1789  0.2573
22006W        W37815   7.074  14.829  11.113 -0.1431 -0.3096 -0.2554
22007W        W37816  13.879  14.745   4.644  0.0204 -0.2592 -0.0408
22008W        W37817   0.187  11.010  13.490  0.0401 -0.1458 -0.1967
22009W        W37818  11.984   2.251   4.999  0.0606  0.0603 -0.2323
22010W        W37819   1.740  17.748  11.770 -0.0390  0.3119 -0.1251
22011W        W37820  12.354  16.557   0.103 -0.1821  0.0635 -0.1283
22012W        W37821  10.209  11.354  11.450 -0.0747 -0.3311 -0.1423
22013W        W37822  11.556  15.373   1.648 -0.2155 -0.2096 -0.0638
22014W        W37823   5.921  17.082  13.604  0.0775  0.0521  0.0207
22015W        W37824  17.110   1.595   1.831  0.3705 -0.0131  0.0660
22016W        W37825  17.878  18.059   0.577 -0.2710  0.3068  0.0345
22017W        W37826   3.919  15.484   5.107 -0.0921 -0.3584 -0.1323
22018W        W37827   7.367  17.387  14.075  0.0541 -0.1065 -0.0555
22019W        W37828  11.045  13.015  11.189 -0.2299 -0.0639  0.1974
22020W        W37829   5.234  13.430  15.287  0.4016  0.0819  0.3483
22021W        W37830   2.639   1.068   2.534  0.1720 -0.0869  0.1617
22022W        W37831   2.392   8.747  13.311  0.2283 -0.1623  0.0768
22023W        W37832  12.357   5.967   3.263 -0.0728 -0.0687  0.0978
22024W        W37833   0.857  12.561   4.530 -0.1730 -0.3193 -0.1635
22025W        W37834  15.929   5.185   1.991  0.1564 -0.1783 -0.3876
22026W        W37835  15.764  15.061  13.529  0.3765  0.1886  0.1329
22027W        W37836   9.875   9.497  15.719  0.1553  0.0953 -0.0651
22028W        W37837  14.827  12.046  11.788 -0.0307  0.0502  0.2490
22029W        W37838   8.154  11.348  12.078 -0.0213 -0.1813 -0.0645
22030W        W37839   4.748  16.773  10.782 -0.1078 -0.2931 -0.3380
22031W        W37840   0.393   1.051  14.968  0.0245 -0.2815 -0.0338
22032W        W37841  12.342  17.310   2.421  0.1639 -0.2295 -0.1311
22033W        W37842   4.522   9.716   4.131  0.1382 -0.1204 -0.2914
22034W        W37843  18.060  12.275  12.062  0.1388  0.1041  0.0965
22035W        W37844  15.370  12.279   1.955 -0.2218  0.0923  0.2866
22036W        W37845  14.402   1.193   5.224  0.1014  0.1565 -0.1809
22037W        W37846   3.071  13.703   0.800 -0.2243 -0.3130 -0.0833
22038W        W37847  10.828  14.389   2.173 -0.2051 -0.2264 -0.3177
22039W        W37848   1.959  13.716   2.333  0.0329 -0.1442  0.2630
22040W        W37849   7.704   3.481   2.072 -0.0733 -0.2640  0.0879
22041W        W37850   9.540   9.975  13.560  0.1097 -0.1816 -0.2768
22042W        W37851   2.137  17.588  15.988 -0.2066 -0.1891  0.1647
22043W        W37852   9.710   9.440   2.691  0.0473  0.1481  0.0968
22044W        W37853   4.803   9.872  15.604 -0.1342  0.1740 -0.0813
22045W        W37854   1.401  13.026   2.892 -0.1896  0.0141  0.3670
22046W        W37855  11.729   6.688  15.789 -0.1651  0.1159  0.0688
22047W        W37856   4.829   2.902  10.969 -0.1841  0.0216  0.0233
22048W        W37857   6.054  16.745   2.720  0.2134 -0.0230  0.0393
22049W        W37858  12.401   6.529   4.026 -0.2533 -0.1963  0.4228
22050W        W37859  16.081   0.361   4.147  0.0991  0.2571 -0.0700
22051W        W37860   8.531  16.253  13.278 -0.3288  0.0909 -0.3191
22052W        W37861  10.569   4.647  12.872  0.0715  0.1029 -0.0175
22053W        W37862  13.544   7.148   4.134 -0.2710  0.1196 -0.0398
22054W        W37863  15.179  16.717   4.896 -0.3054 -0.1551  0.1366
22055W        W37864   2.661   7.044   3.797 -0.0682  0.2244  0.2030
22056W        W37865  15.991   2.167   5.372  0.4286 -0.1802 -0.1145
22057W        W37866  15.015   7.730   1.768  0.0679  0.1788 -0.1567
22058W        W37867  15.652   0.386  15.386  0.1719  0.0558  0.0936
22059W        W37868  10.102   7.954  14.663 -0.1157 -0.0138  0.1251
22060W        W37869   0.887   6.992   1.564  0.3450 -0.0509  0.1883
22061W        W37870  11.538  15.755  11.068 -0.0732  0.1807 -0.0368
22062W        W37871  18.176  11.702   2.799  0.1884  0.0521  0.1143
22063W        W37872   8.482  14.698  12.682  0.1213 -0.0598  0.2407
22064W        W37873   1.785  18.213   2.711  0.2927  0.0679 -0.1882
22065W        W37874  14.021  11.531   4.031 -0.4701  0.0179  0.2552
22066W        W37875   2.401   6.504  12.781  0.0038  0.1856 -0.2504
22067W        W37876  17.826   7.795  15.633 -0.0419  0.2780  0.1306
22068W        W37877   5.295  16.960  12.149  0.0745 -0.1466  0.3191
22069W        W37878   6.422   9.486   1.659  0.3055  0.1107 -0.0055
22070W        W37879   0.668   0.615   0.253 -0.4034  0.2446  0.1724
22071W        W37880  14.742   0.988  15.318 -0.0818  0.2371 -0.0194
22072W        W37881   7.629   3.116  13.529 -0.2521  0.1672 -0.0286
22073W        W37882  12.337   2.829   5.578  0.1338  0.1086  0.3211
22074W        W37883  17.614   6.315   1.106 -0.1238 -0.1345  0.0269
22075W        W37884  15.073   7.861  12.098  0.1961  0.1741 -0.0682
22076W        W37885   8.987   0.251   5.930  0.2073 -0.2474  0.0670
22077W        W37886   8.549   9.452   2.006  0.0146  0.0024 -0.1617
22078W        W37887   8.527   2.374  13.830  0.0784  0.0076 -0.3997
22079W        W37888   7.890   3.958   5.361  0.0744 -0.0633  0.1600
22080W        W37889  13.884   8.340   0.115 -0.2513 -0.0601 -0.2340
22081W        W37890   8.829   4.458  12.235 -0.1633 -0.0736 -0.0002
22082W        W37891  11.486   3.391   0.839  0.0455 -0.1273  0.2742
22083W        W37892  13.734  10.298  11.364 -0.2755 -0.2355  0.0866
22084W        W37893  12.278  12.049   0.577 -0.1004 -0.0248  0.3261
22085W        W37894  16.089  10.322  13.040  0.0593 -0.0761  0.1152
22086W        W37895   1.397   0.995  14.718  0.0020 -0.4706 -0.0439
22087W        W37896   0.428  17.123  13.244 -0.2460  0.0057 -0.4163
22088W        W37897   3.528   4.665  11.959 -0.0561 -0.1099  0.3638
22089W        W37898   1.573   5.862   4.202 -0.0055  0.1680  0.2533
22090W        W37899  16.048  18.042   3.288  0.0343  0.0117  0.0623
22091W        W37900   4.604   8.166   4.404 -0.1495  0.3366  0.1326
22092W        W37901  10.021   2.654  11.729  0.0246 -0.1616 -0.2700
22093W        W37902  12.282  12.084   1.937  0.0010  0.0676  0.1254
22094W        W37903  14.218  11.439  15.180 -0.0153 -0.0646  0.0254
22095W        W37904   1.766   5.626   5.002 -0.1655 -0.0199  0.2949
22096W        W37905  15.551   2.582  13.951  0.0772 -0.0385 -0.0885
22097W        W37906  15.303   2.503   1.879 -0.0133  0.0136 -0.0090
22098W        W37907  11.746   9.028   4.935 -0.0172  0.1830  0.0931
22099W        W37908   9.084   7.831   0.335 -0.2436  0.0927  0.3934
22100W        W37909  12.971   1.905  15.951  0.0307  0.1253 -0.1581
22101W        W37910  16.317  12.377   5.122  0.3073  0.1585 -0.1816
22102W        W37911   6.747   2.466   3.017  0.1775 -0.1030 -0.3659
22103W        W37912  14.173   2.409   4.869  0.0867  0.1045  0.2612
22104W        W37913   1.600  16.173   0.678  0.1320  0.3328  0.0465
22105W        W37914  17.553   6.810   1.252  0.2227 -0.0268 -0.0016
22106W        W37915  14.547  16.692  10.958 -0.0509  0.0153 -0.1563
22107W        W37916   9.529   0.172   1.258  0.3528  0.1103  0.1996
22108W        W37917  18.117  14.976  10.930 -0.2115 -0.0316  0.2703
22109W        W37918  12.906  12.643   4.593  0.0143 -0.3854  0.1851
22110W        W37919   4.522  14.181   2.748  0.0038  0.1469  0.1471
22111W        W37920   3.168  12.151  13.215 -0.1126  0.2670  0.1595
22112W        W37921   7.564  12.002  14.090  0.0270 -0.4227  0.1735
22113W        W37922   2.511   9.697  15.163  0.0492  0.0483 -0.1772
22114W        W37923   7.328   9.541   2.875  0.0193  0.0828 -0.1206
22115W        W37924   7.795   4.466   5.560  0.0031 -0.2603 -0.0440
22116W        W37925   2.459   5.483  15.784 -0.1979 -0.2384  0.4639
22117W        W37926  17.023  13.908   4.028  0.4530  0.1082 -0.0178
22118W        W37927   9.520   3.499  15.582  0.1340  0.2110  0.1107
22119W        W37928   5.067   1.886  13.166 -0.2325  0.0800  0.0945
22120W        W37929  17.449  14.567   5.461 -0.0494 -0.1025 -0.0376
22121W        W37930  11.737   0.402   1.984  0.0006 -0.1729 -0.0581
22122W        W37931   4.948   7.225  11.212  0.0483 -0.1133  0.1588
22123W        W37932   4.711   3.605  12.068  0.1248  0.1506  0.0504
22124W        W37933  11.615  13.810   3.708  0.0843 -0.3734 -0.0946
22125W        W37934  16.900   1.923   5.182 -0.0612  0.1419 -0.0186
22126W        W37935  12.042   6.471  13.907 -0.0277 -0.2459  0.1108
22127W        W37936  16.147  13.368   2.836 -0.3799 -0.0617  0.2254
22128W        W37937   6.186  16.338   2.521 -0.1803  0.1555 -0.2225
22129W        W37938  10.273   8.553  13.056 -0.0926 -0.3056  0.0716
22130W        W37939  14.640   7.027  12.037  0.0055 -0.0104  0.0556
22131W        W37940  17.495  15.719   4.686 -0.2951  0.0911  0.1000
22132W        W37941  14.686  10.375  13.181 -0.2302  0.1692 -0.0007
22133W        W37942   9.109  14.358   4.587  0.3246 -0.1855 -0.1551
22134W        W37943   2.010  10.969  14.974 -0.0775 -0.2840  0.1633
22135W        W37944  12.558   1.678  15.308 -0.0520  0.0583  0.1385
22136W        W37945  12.529   8.905  11.287 -0.0132  0.1299  0.2216
22137W        W37946  17.501   6.025   0.570 -0.1709 -0.0088  0.0912
22138W        W37947  14.867   0.817   1.160 -0.1228 -0.0716  0.0695
22139W        W37948  13.488  12.242  12.724 -0.0929  0.4337  0.0569
22140W        W37949   4.394   4.058  12.744  0.0614 -0.2893 -0.0377
22141W        W37950   0.948  13.369  12.851  0.0028  0.2304 -0.0136
22142W        W37951   7.490   4.657  11.057 -0.0327  0.1582 -0.1981
22143W        W37952   3.828  17.023  11.731 -0.3518  0.0618 -0.1036
22144W        W37953   1.880  17.990   3.156  0.0577 -0.2965  0.2093
22145W        W37954   6.350  14.872   2.204  0.0795  0.2350  0.0857
22146W        W37955   3.442   4.142  12.056  0.3391 -0.1235 -0.0510
22147W        W37956  11.131   1.404   4.209  0.2111 -0.1219  0.1540
22148W        W37957   3.685   1.010  14.981 -0.1314 -0.1241  0.1124
22149W        W37958  10.038   1.143  13.205  0.2323 -0.1150 -0.0753
22150W        W37959  16.722   2.987   4.345  0.1282  0.0261 -0.0605
22151W        W37960   7.419   7.970  11.410 -0.0885  0.0228 -0.1100
22152W        W37961  12.353   3.909   1.808 -0.2521  0.4173  0.0688
22153W        W37962   2.820  15.470   0.384 -0.1480 -0.0643 -0.0966
22154W        W37963  17.507   9.088  11.905 -0.0453  0.1977  0.1639
22155W        W37964   2.845   8.648  11.603  0.2443  0.1343 -0.1163
22156W        W37965   0.809   8.692  10.824 -0.0695  0.2962 -0.2045
22157W        W37966   7.401   7.807   2.152 -0.0544 -0.3368 -0.1194
22158W        W37967  10.897  16.526   1.633  0.2831  0.1142 -0.3032
22159W        W37968   8.802   8.209  12.534 -0.1264  0.2269 -0.0216
22160W        W37969  10.894  16.450  14.944 -0.1097  0.1959  0.1134
22161W        W37970   4.659   8.665   2.186 -0.0236 -0.1266 -0.4175
22162W        W37971   2.702   6.880  13.458 -0.2085  0.1901 -0.0682
22163W        W37972   9.402   6.213   2.550 -0.1269  0.1590  0.2322
22164W        W37973  13.857  17.812  14.254  0.1185 -0.0810 -0.1328
22165W        W37974   5.239   0.795   4.462 -0.0604  0.0608  0.1181
22166W        W37975   6.508  17.989  15.444 -0.0015 -0.3907 -0.1477
22167W        W37976  16.086  10.885  15.546 -0.0448  0.0329  0.0825
22168W        W37977   6.453   0.673  14.355  0.1018 -0.1167 -0.0568
22169W        W37978   2.032   0.540  13.812 -0.1637  0.2145 -0.2649
22170W        W37979   5.556  10.680   4.059 -0.1106 -0.1384  0.1354
22171W        W37980  14.478   2.384   0.337  0.0334 -0.0542  0.1273
22172W        W37981   6.613   3.334  12.542 -0.0574  0.0372  0.1043
22173W        W37982  14.403  14.514   5.273  0.1340  0.2176  0.2106
22174W        W37983   2.041  11.326   1.578 -0.0236  0.0946  0.5589
22175W        W37984  11.013  11.024  13.489  0.1489  0.0582 -0.0488
22176W        W37985   9.099   0.550   4.102  0.3240 -0.3166  0.0638
22177W        W37986  10.253   0.043   2.780 -0.0188  0.1682  0.2562
22178W        W37987  17.140  11.519  11.309  0.1445  0.1369 -0.0661
22179W        W37988   7.548   1.486  14.388  0.0469 -0.0443  0.2710
22180W        W37989   6.027  17.611   0.380 -0.2226 -0.1594  0.0963
22181W        W37990  12.735  12.155  14.236 -0.0707  0.0892  0.0851
22182W        W37991  12.612  13.303   2.760 -0.0511  0.2321  0.4143
22183W        W37992  11.977  16.989  13.187  0.0425  0.0056 -0.1142
22184W        W37993   9.640  14.445   2.494 -0.1818 -0.2253  0.0211
22185W        W37994   9.376   8.937  11.566  0.0140  0.0004 -0.1749
22186W        W37995   0.444   9.784  13.863 -0.0676 -0.0276 -0.0151
22187W        W37996   9.352   5.258   1.057  0.3055 -0.2591  0.0033
22188W        W37997   3.826   8.218  14.387 -0.0343 -0.1069  0.1216
22189W        W37998   7.059   1.182   1.160  0.2373  0.2292  0.3028
22190W        W37999  17.981   8.331   3.822  0.1391  0.2978 -0.2002
22191W        W38000  13.632   4.067  11.248  0.0282 -0.0270  0.1640
22192W        W38001  15.940   7.589   0.062 -0.2308 -0.0042  0.3959
22193W        W38002   1.747  10.576   2.551  0.0614 -0.2238 -0.0453
22194W        W38003   9.542  18.033  11.776  0.2995  0.0280 -0.1967
22195W        W38004  10.080  17.873  15.931 -0.0444 -0.1676 -0.2490
22196W        W38005  11.541   3.767   4.312 -0.0974 -0.3825  0.1351
22197W        W38006  17.893  13.711   1.744 -0.1584  0.1270 -0.1123
22198W        W38007  11.840   7.033  12.948  0.0386 -0.2525  0.0295
22199W        W38008  11.425  11.474   3.869  0.3041 -0.0481  0.3199
22200W        W38009  17.055  11.166   1.691  0.0101 -0.1303  0.0071
22201W        W38010   7.051  16.624  15.591  0.1095 -0.0252 -0.0484
22202W        W38011   2.816  10.970  11.515  0.2674 -0.4163  0.3182
22203W        W38012  11.456  11.143   5.558  0.1256  0.1134  0.1300
22204W        W38013  17.791  17.688   0.210 -0.0011 -0.4244 -0.0888
22205W        W38014  13.916  17.525  15.199 -0.1823  0.1251 -0.0364
22206W        W38015   9.915   2.286   1.154 -0.2212 -0.2460 -0.0714
22207W        W38016  10.949  12.982   2.359  0.0164  0.0625  0.0252
22208W        W38017  15.746  13.009  13.681 -0.0318  0.1803 -0.1684
22209W        W38018   4.998  17.124   4.422 -0.1051  0.1465  0.2843
22210W        W38019   8.710   5.450  12.461 -0.2061  0.1622  0.1230
22211W        W38020   6.422   9.868  13.051 -0.0345  0.1322 -0.1588
22212W        W38021  17.957  14.934   0.313 -0.1384 -0.1172 -0.0351
22213W        W38022   4.489   4.396  10.611  0.1292 -0.1430  0.1265
22214W        W38023  17.418  13.215  13.852  0.0539 -0.0814  0.3910
22215W        W38024   7.131   5.159  15.850  0.1708 -0.2901 -0.2755
22216W        W38025  16.975  16.411  14.962  0.1168  0.0536 -0.0601
22217W        W38026  10.936  11.770  14.690  0.0020  0.2865 -0.1629
22218W        W38027  18.140  14.610   1.679  0.1323 -0.3723 -0.0394
22219W        W38028  11.019   8.764  14.868 -0.1673  0.2106 -0.2697
22220W        W38029  15.993  12.088  15.474  0.1728 -0.3667  0.0002
22221W        W38030   7.166   3.690  13.012  0.0451  0.0174 -0.0594
22222W        W38031   7.573  10.387   2.079  0.2180  0.0978  0.3989
22223W        W38032   6.502   9.846   3.620 -0.2180 -0.0406 -0.0259
22224W        W38033  18.138   6.680  11.395  0.1431  0.0002  0.2364
22225W        W38034   3.195  13.712   5.747 -0.0397 -0.0541  0.1480
22226W        W38035  13.466   7.523  13.390 -0.0078 -0.0680 -0.2739
22227W        W38036   9.961   4.541  11.122  0.1190 -0.0858  0.1502
22228W        W38037   5.817  13.733  16.053 -0.2047  0.1438 -0.1197
22229W        W38038  16.928   6.045  11.303 -0.0842 -0.0062 -0.0039
22230W        W38039   2.965  17.506  15.638  0.0984 -0.1639  0.3881
22231W        W38040  11.800   6.225  13.522  0.2739 -0.1734  0.0608
22232W        W38041   1.779  16.336   2.156  0.0138  0.1417  0.0991
22233W        W38042  11.157   8.580   2.264 -0.1552 -0.2414 -0.1845
22234W        W38043   0.862   0.786  10.200  0.0667 -0.0903 -0.0699
22235W        W38044  12.019   8.967   3.293 -0.0119  0.2285 -0.2616
22236W        W38045   4.706   6.143   1.160 -0.3372 -0.1289  0.1271
22237W        W38046   8.516   7.849   1.025 -0.0475 -0.2153 -0.0434
22238W        W38047  11.256  16.530   0.623  0.1721 -0.3027 -0.0326
22239W        W38048  10.920   1.295  15.699 -0.0655  0.4179 -0.0278
22240W        W38049   5.928  16.605   0.020  0.0276 -0.1111  0.0901
22241W        W38050   5.607   8.496  12.624  0.1774  0.0262  0.2008
22242W        W38051   4.127  12.476   1.934 -0.2565  0.0273 -0.0139
22243W        W38052  16.669   7.415   0.735  0.2258  0.2843 -0.2289
22244W        W38053   0.614  11.070  14.483  0.1118 -0.3170 -0.4754
22245W        W38054  15.494  17.754   2.694 -0.0119 -0.1818  0.0349
22246W        W38055  12.033   5.838  12.198 -0.1316 -0.3484  0.1201
22247W        W38056  15.140   2.347   5.586 -0.2228 -0.1025 -0.2713
22248W        W38057  12.400   5.421  15.727 -0.0847 -0.0656 -0.0856
22249W        W38058  14.889  17.395  15.032 -0.0803  0.1253  0.2252
22250W        W38059   4.131  13.953   1.129  0.3827 -0.1601  0.1221
22251W        W38060  13.497   7.932   0.007 -0.0975 -0.1163  0.1773
22252W        W38061  11.929   7.781  14.446 -0.1634 -0.2228  0.0603
22253W        W38062  16.128  15.888   1.140  0.0609 -0.1113  0.0842
22254W        W38063  11.965   8.629   1.830 -0.0227 -0.1173  0.2575
22255W        W38064  13.661   5.033  12.010  0.3742  0.0157 -0.3920
22256W        W38065   4.354   0.579  11.878  0.3522 -0.2212 -0.4060
22257W        W38066  12.728  11.932  11.116 -0.0938 -0.0368  0.0538
22258W        W38067  14.557   4.030   1.888 -0.0051 -0.1206 -0.1752
22259W        W38068   7.887   2.557   4.358  0.1717 -0.2618 -0.1268
22260W        W38069   9.435   6.780  11.691 -0.2411  0.0263 -0.0891
22261W        W38070   9.590  16.266  14.784 -0.1777 -0.1130  0.3143
22262W        W38071  14.651   6.322  12.018  0.1713  0.1401  0.0170
22263W        W38072  12.809  15.653  14.846 -0.0870  0.1694 -0.3678
22264W        W38073   4.900   1.113   1.983  0.1076 -0.2159 -0.2476
22265W        W38074   6.521   0.253  14.086  0.1677 -0.0633  0.1588
22266W        W38075  16.422   6.987   0.626  0.1043  0.0154 -0.0347
22267W        W38076   1.333  12.647   4.674  0.0737  0.1377  0.0152
22268W        W38077  12.399  13.969  11.984  0.3214 -0.3012  0.1350
22269W        W38078   9.958   9.840  10.652 -0.4296  0.0419  0.0744
22270W        W38079   7.154  13.960   2.979  0.0281  0.0423  0.0261
22271W        W38080   6.797  11.243  13.635 -0.1287  0.0100  0.1023
22272W        W38081  11.753   8.461  14.555  0.4295  0.1788  0.0178
22273W        W38082   0.033  12.897   0.922 -0.2390  0.3007 -0.1890
22274W        W38083  18.042   5.293  15.863  0.0457  0.0747 -0.0134
22275W        W38084   3.383  11.379   0.368  0.1674 -0.0585  0.0477
22276W        W38085   8.516   8.530  11.663  0.0218  0.3362  0.0843
22277W        W38086   4.324  14.809  14.757  0.3127 -0.0165  0.3702
22278W        W38087  10.779   5.095   4.796  0.1650 -0.1360  0.1437
22279W        W38088   2.214   7.801   2.293 -0.2517  0.1772  0.0954
22280W        W38089   5.759   0.501  13.018 -0.2384  0.0515  0.2427
22281W        W38090   7.991  16.487   4.397 -0.2289  0.1073 -0.1394
22282W        W38091  15.657   1.806   4.495  0.0343 -0.3255 -0.1814
22283W        W38092  10.525  11.034   2.176 -0.3068  0.1135 -0.3098
22284W        W38093   9.268  16.597  13.746 -0.0335  0.1612  0.3215
22285W        W38094   8.422  17.080  15.304 -0.1212  0.0667  0.0931
22286W        W38095  12.689   2.831  13.481  0.1528  0.1648 -0.3335
22287W        W38096   0.001   6.955   1.517  0.0992 -0.0714 -0.0033
22288W        W38097   9.342  15.187  12.536  0.1326  0.0193 -0.0511
22289W        W38098   1.810   0.593  14.690  0.0075 -0.0670 -0.2591
22290W        W38099  15.943   8.019  10.933  0.1160  0.1151 -0.0763
22291W        W38100  17.902   9.505  12.840 -0.1558 -0.0905  0.3155
22292W        W38101  14.360   1.862   0.356  0.0165  0.3493  0.0774
22293W        W38102   2.084  17.996  12.037  0.1263  0.2626  0.1118
22294W        W38103  10.759   1.459  12.801  0.0870  0.0153 -0.0424
22295W        W38104  12.063  17.125  15.871 -0.1518 -0.1514 -0.2162
22296W        W38105   3.861   8.845   5.074 -0.0055 -0.3240 -0.2293
22297W        W38106  14.925   1.067  14.566  0.1202  0.0210 -0.1780
22298W        W38107   5.238   3.573  12.181  0.1697 -0.0263  0.1724
22299W        W38108  13.919   9.374   3.342 -0.0531  0.0842  0.3547
22300W        W38109   1.004   2.603   0.157  0.0530 -0.2771 -0.0592
22301W        W38110   7.689  16.841  11.968 -0.0535 -0.2863  0.0412
22302W        W38111  14.821   5.353   1.471 -0.0901 -0.2566 -0.1229
22303W        W38112   9.570  10.961  15.669 -0.1429  0.1151 -0.2538
22304W        W38113   7.123   8.066  15.452 -0.0532 -0.1566 -0.0697
22305W        W38114  15.485  13.233   1.575 -0.2552  0.0614  0.3054
22306W        W38115   4.173   4.965  15.759  0.1168  0.0743 -0.5203
22307W        W38116   6.202   0.115  15.461  0.0751  0.0233 -0.2328
22308W        W38117  13.473   2.223   2.987  0.2415  0.0041  0.3082
22309W        W38118  12.132   1.482  13.394  0.2249 -0.1458 -0.1732
22310W        W38119   1.239   9.093  14.172  0.1093  0.1592 -0.0165
22311W        W38120   1.888   3.877   0.303  0.4274  0.3128 -0.0663
22312W        W38121  17.462   5.038  13.743 -0.0618  0.2847 -0.0278
22313W        W38122  13.614   1.930   1.269  0.1048 -0.1434 -0.0746
22314W        W38123  13.445   8.010  13.165  0.0620  0.2356  0.1281
22315W        W38124  15.066   7.898   4.381 -0.3149 -0.0706 -0.0608
22316W        W38125  16.530  16.085  15.143  0.2074  0.0133 -0.1612
22317W        W38126  15.249   6.476   0.196  0.1049 -0.1000  0.0326
22318W        W38127   4.852   5.410   5.595 -0.1268 -0.0322 -0.2337
22319W        W38128   0.520  15.125   4.189 -0.0839 -0.1118 -0.2150
22320W        W38129  16.744  16.587   3.272  0.1559  0.0214 -0.1062
22321W        W38130  11.488   9.033  13.248 -0.2397 -0.0663  0.2306
22322W        W38131   9.977  12.742  12.092  0.2166  0.0181 -0.1455
22323W        W38132  11.648   2.732   5.507  0.1220 -0.1582 -0.1943
22324W        W38133   6.161   1.187   2.514  0.0458 -0.1008  0.0200
22325W        W38134   1.097  14.116   0.569 -0.2387  0.2921 -0.1714
22326W        W38135  13.799  11.306  13.917 -0.0650 -0.1076 -0.3205
22327W        W38136   1.341   4.858   1.518  0.0099 -0.1533 -0.3188
22328W        W38137   5.590   2.487  11.937  0.0941  0.1134  0.1088
22329W        W38138   5.362  11.325   0.945 -0.3221 -0.3638  0.2637
22330W        W38139  16.103  10.793   4.091 -0.0456  0.0433 -0.0354
22331W        W38140   2.359   6.938   0.673  0.1186 -0.1145 -0.1288
22332W        W38141  10.324   2.300  15.743  0.2132  0.0418  0.0640
22333W        W38142   3.341  15.517   0.615 -0.0120  0.2532  0.0882
22334W        W38143   5.985  17.210   1.823 -0.1341  0.0269  0.3448
22335W        W38144   3.767   8.307  11.041  0.1843 -0.0637  0.0831
22336W        W38145   5.823  15.361   0.100  0.0034  0.5765 -0.0090
22337W        W38146  14.680  16.028   4.415  0.1531  0.2211  0.0401
22338W        W38147   8.146   3.707   3.692 -0.0559  0.0158  0.2009
22339W        W38148  11.286  17.143   4.780  0.0270 -0.0121 -0.0995
22340W        W38149  13.094   9.693  10.880  0.1187 -0.1927  0.0646
22341W        W38150   5.039  10.950   5.521 -0.1310  0.2448 -0.1332
22342W        W38151  13.215  14.624  15.851 -0.0034  0.3533 -0.2043
22343W        W38152  16.019   5.229  12.183 -0.1190  0.2264 -0.1421
22344W        W38153  17.923   4.810   2.267  0.1088 -0.1452  0.2162
22345W        W38154  13.415   2.443  12.857 -0.2692 -0.1789  0.2004
22346W        W38155  16.136   2.967   0.748  0.4933  0.1514  0.1631
22347W        W38156   6.233   7.799   4.729  0.0721 -0.3378 -0.1977
22348W        W38157   2.542   6.429  12.310  0.0276 -0.0935  0.0345
22349W        W38158  11.970   4.365   3.632  0.0702 -0.0682  0.0761
22350W        W38159  10.411  10.767  11.212 -0.1645  0.1136 -0.1960
22351W        W38160  15.214   8.054  15.415 -0.2013  0.1293  0.1841
22352W        W38161  12.975   0.021   0.896  0.1515  0.3345 -0.2766
22353W        W38162   8.893  14.780  14.025  0.2715 -0.2726 -0.0772
22354W        W38163  14.118  17.135   2.228 -0.0419 -0.0398  0.4294
22355W        W38164   2.644   9.408  11.768  0.1596 -0.0195 -0.0443
22356W        W38165   6.015   1.591   1.485  0.0446  0.0596 -0.0282
22357W        W38166  13.349  14.235  11.081 -0.4042  0.1342 -0.2396
22358W        W38167  17.219   4.181   0.235 -0.0221 -0.1318  0.1739
22359W        W38168  15.853  10.660  12.082 -0.0391 -0.1251 -0.0245
22360W        W38169   6.978  16.039  14.232 -0.0273 -0.0098 -0.2331
22361W        W38170   6.081  10.244   4.535 -0.0678  0.1421 -0.2304
22362W        W38171  15.687  12.287  11.328 -0.1347  0.0423 -0.2446
22363W        W38172   0.872  13.010  16.006  0.2431 -0.0789 -0.0720
22364W        W38173   2.673  11.055   2.242 -0.0897  0.0528  0.1962
22365W        W38174   7.059  16.719  12.969 -0.0155  0.0693 -0.2717
22366W        W38175  13.240   0.907  12.953 -0.1818  0.1814 -0.0533
22367W        W38176  10.145   0.654  11.848 -0.2600  0.0211  0.0699
22368W        W38177   6.684   1.030  12.587 -0.1160  0.2708  0.0434
22369W        W38178  12.126  10.808   3.266  0.1967 -0.1913 -0.4361
22370W        W38179  12.970  16.780  16.065 -0.1148 -0.0946  0.0434
22371W        W38180   7.672   8.410  11.129  0.2041  0.1754  0.1036
22372W        W38181  13.025   7.650  12.501  0.3755  0.1950  0.2545
22373W        W38182   7.315  11.017   2.483 -0.1960  0.1632  0.0692
22374W        W38183   6.184  13.127  12.337  0.1877  0.3999 -0.0998
22375W        W38184  12.297   9.682  12.878  0.1824 -0.1904  0.2632
22376W        W38185   6.748  13.349   3.741 -0.2173  0.2034 -0.0161
22377W        W38186   6.140   3.150  12.403  0.0414 -0.1647 -0.2447
22378W        W38187   2.706  11.845  10.111  0.1951  0.2608  0.3113
22379W        W38188   0.070   1.216   0.297  0.0402  0.2041 -0.0733
22380W        W38189  12.557  17.341  12.525  0.1617  0.0772  0.2547
22381W        W38190   8.107  10.801  12.588  0.2997 -0.4975  0.1181
22382W        W38191  14.074  11.273  11.577 -0.1553 -0.2907 -0.0570
22383W        W38192   0.274   8.103   4.985  0.0802  0.3454  0.1988
22384W        W38193   9.902  18.130  13.057 -0.1223  0.0935  0.0702
22385W        W38194  15.317   0.887   5.544  0.2738 -0.1379  0.2160
22386W        W38195  15.977  10.840   0.752 -0.2275 -0.0160 -0.0515
22387W        W38196  13.990   0.518   2.921  0.3067 -0.0566 -0.0559
22388W        W38197   8.729  12.927   3.792 -0.0419 -0.2690  0.1843
22389W        W38198  13.719   7.613  10.554 -0.3104 -0.2120  0.0705
22390W        W38199  11.938   7.389  14.156  0.1725 -0.0441  0.1234
22391W        W38200  11.765   0.476   4.616 -0.2234 -0.0081 -0.1015
22392W        W38201  17.851  15.756   2.742 -0.3247  0.1774  0.0798
22393W        W38202  10.731  12.376   4.803  0.2804  0.1334 -0.0013
22394W        W38203   8.579  16.925  11.989 -0.0269  0.0005  0.1044
22395W        W38204   7.047  14.295   4.107 -0.0803 -0.1256 -0.1108
22396W        W38205   9.309  13.176   5.394  0.0580  0.2116 -0.0170
22397W        W38206  17.825  14.859   3.093 -0.2210 -0.2690 -0.2382
22398W        W38207   8.433   8.426  10.169 -0.1485 -0.3026 -0.0331
22399W        W38208   1.307  12.114   0.280 -0.1355  0.0957  0.0872
22400W        W38209   0.432  18.042  12.174  0.1110 -0.1500 -0.0420
22401W        W38210  12.131  10.869   1.615 -0.1312 -0.2229 -0.1869
22402W        W38211   5.283  12.243   1.754  0.3944 -0.0166 -0.2892
22403W        W38212  17.370  15.138  12.441  0.2877 -0.0489  0.1348
22404W        W38213   8.096   7.757   9.369  0.1941 -0.1543 -0.0725
22405W        W38214  12.985  17.091  14.756  0.1110  0.0720 -0.0347
22406W        W38215   7.529   1.606  10.875  0.2277 -0.2437  0.1146
22407W        W38216   0.874   9.611   4.463  0.0768  0.0573  0.2034
22408W        W38217   8.071   1.831   2.724 -0.1060 -0.1139 -0.1691
22409W        W38218  17.045  10.281  10.928  0.1129  0.3340  0.1829
22410W        W38219  14.317  17.031  12.708 -0.1458  0.2976 -0.0237
22411W        W38220   6.656   8.827  14.199  0.0020 -0.1733  0.0242
22412W        W38221  17.845  14.056   9.906  0.1399 -0.0151  0.0803
22413W        W38222  15.984   4.665   3.462  0.0622  0.0236  0.0801
22414W        W38223   5.619   0.580  15.171 -0.3142 -0.0823  0.1355
22415W        W38224   3.589  16.452   2.073  0.1009  0.1950  0.1461
22416W        W38225   1.964  10.587  14.066  0.3539  0.0281 -0.2305
22417W        W38226  10.565   1.200   2.784  0.1571  0.2187  0.0753
22418W        W38227  11.725   1.528   5.396  0.1278  0.1680 -0.3276
22419W        W38228   7.489   0.450  14.679 -0.3038  0.2544 -0.0038
22420W        W38229  14.598   6.473   4.767 -0.1426 -0.4170 -0.0425
22421W        W38230  12.279   6.166   1.312  0.2984 -0.0015 -0.1191
22422W        W38231   2.892   2.329   1.088 -0.0243 -0.0369  0.1532
22423W        W38232   1.918   5.234   0.903 -0.3699 -0.1803 -0.1937
22424W        W38233   6.888   3.815   1.260  0.1542  0.1936  0.0778
22425W        W38234   2.871  14.982   0.568  0.3857 -0.0697 -0.0548
22426W        W38235  13.817  13.138   1.163  0.0721  0.3942 -0.3061
22427W        W38236   4.866  13.974  13.321  0.0446  0.1832 -0.1396
22428W        W38237   3.437   1.640  11.283 -0.4062 -0.0634  0.0614
22429W        W38238   7.742  10.465   3.862  0.3453 -0.1374 -0.0791
22430W        W38239   6.468   2.512   3.921 -0.2155 -0.5143 -0.3246
22431W        W38240  16.977  18.243   2.784  0.1216  0.3023 -0.1294
22432W        W38241  17.287   4.483   5.903  0.0009  0.4875 -0.2114
22433W        W38242   4.572  12.755   4.886  0.1719 -0.0815 -0.1039
22434W        W38243  13.055   9.426   1.300 -0.0599  0.0342  0.1861
22435W        W38244  13.431  16.717  12.779  0.4183 -0.2406 -0.1545
22436W        W38245  11.929  15.761  15.726  0.0264  0.1550 -0.2361
22437W        W38246  12.955  15.454   0.516  0.0258 -0.4043 -0.2633
22438W        W38247   5.997   4.378   2.777  0.3008  0.1305 -0.2705
22439W        W38248   2.718  13.796   5.689 -0.4649 -0.1394  0.0177
22440W        W38249  11.050   0.103   3.454 -0.1105  0.1230  0.0454
22441W        W38250   5.164   5.478   1.516  0.2738 -0.2311  0.1124
22442W        W38251   9.039  14.505   1.407 -0.1790  0.0593  0.0156
22443W        W38252   2.011  16.938   4.043 -0.1681  0.2901  0.0888
22444W        W38253   8.353   0.678  14.792  0.0127  0.0224 -0.1351
22445W        W38254  10.203   9.244   3.908  0.5789 -0.1702 -0.0362
22446W        W38255   0.234  13.864  14.013  0.2318 -0.2577  0.0433
22447W        W38256   2.632   8.641  11.116  0.1750  0.1842 -0.1114
22448W        W38257   7.652   3.606   1.328  0.0905  0.2379 -0.0293
22449W        W38258  10.111  15.030  10.324 -0.1469  0.0971  0.4310
22450W        W38259   7.357   5.479  12.787  0.1846 -0.2635  0.2555
22451W        W38260   3.473   0.143  14.934  0.2327 -0.0025  0.3258
22452W        W38261  18.138   3.757   0.915  0.0250 -0.0196  0.2081
22453W        W38262  18.012  14.857  13.525  0.0361  0.2544 -0.0345
22454W        W38263   7.490   8.619   2.249 -0.1103 -0.3137 -0.0810
22455W        W38264   2.492   7.863  13.151  0.3150 -0.0724 -0.0486
22456W        W38265  15.382  11.534   2.858  0.0959  0.0010  0.1639
22457W        W38266   3.287   4.951   3.539  0.0258 -0.1168  0.5090
22458W        W38267  14.494  12.090   2.487 -0.1765 -0.0592 -0.2082
22459W        W38268   5.017  15.797  11.161 -0.1004  0.2743 -0.0757
22460W        W38269  10.469   5.973  13.589  0.0264 -0.0221  0.1606
22461W        W38270   8.922  14.394   1.930 -0.0220  0.1016 -0.0458
22462W        W38271  10.305  15.836  14.364  0.1692  0.0629  0.0691
22463W        W38272  11.407  17.584  15.553  0.2828  0.0220  0.1060
22464W        W38273   5.636   5.622   2.397 -0.0173 -0.0534 -0.1109
22465W        W38274   1.725  10.400  12.445  0.3039  0.0978  0.1811
22466W        W38275  18.160  12.903   5.804 -0.0044 -0.0412  0.2786
22467W        W38276  13.396  10.747   1.393  0.0144  0.1014 -0.0985
22468W        W38277   9.704  12.455  11.051 -0.3171  0.2342 -0.1382
22469W        W38278  17.907  10.010   0.652  0.0165  0.0506  0.0712
22470W        W38279   5.732  11.147   1.220  0.1678  0.0504 -0.0889
22471W        W38280   3.621   4.329   2.251 -0.0276 -0.0576  0.1467
22472W        W38281   3.922   8.855   4.611  0.0339 -0.0388  0.1225
22473W        W38282   7.739   0.520   3.810  0.0848 -0.1707 -0.2441
22474W        W38283  15.951   3.423   2.847  0.0323  0.1192  0.0138
22475W        W38284   3.035   6.566  13.702  0.0914  0.0727 -0.0264
22476W        W38285  13.676   6.269  12.901  0.0938 -0.0797  0.0279
22477W        W38286   8.122   9.119  15.334 -0.0106  0.0255 -0.0163
22478W        W38287  13.943  13.756  13.626  0.1835 -0.3596  0.4200
22479W        W38288   1.773   5.121   4.566 -0.1693 -0.1867  0.0913
22480W        W38289   5.763   6.907  14.067 -0.1105  0.1537 -0.0881
22481W        W38290  10.086   4.248   3.517 -0.0306 -0.0739  0.0255
22482W        W38291   7.193   4.507   4.319  0.0310  0.1779  0.3558
22483W        W38292  14.064  15.939  11.234  0.3206 -0.1690  0.1805
22484W        W38293   8.117   6.562   4.395 -0.1563 -0.4572  0.0182
22485W        W38294  10.769   5.305  11.572 -0.0334 -0.3483 -0.1103
22486W        W38295  13.560  12.331   3.682 -0.1155 -0.1361 -0.1739
22487W        W38296   0.447   3.199   4.398 -0.0651  0.0672 -0.1254
22488W        W38297  12.258   0.202   6.211  0.0028  0.0837 -0.2377
22489W        W38298  12.571   3.288   4.762  0.0613  0.3045 -0.1761
22490W        W38299  11.003  14.637  13.933  0.0506 -0.2236  0.0985
22491W        W38300   5.779   5.492  15.902 -0.3322 -0.0012 -0.1620
22492W        W38301  11.879  17.973  15.460 -0.0746 -0.1111 -0.1656
22493W        W38302   8.572  10.632   0.398  0.0741 -0.0807 -0.4022
22494W        W38303   6.798  12.659   4.652 -0.1960 -0.0943  0.0223
22495W        W38304   3.329  17.492  14.645  0.1439  0.0415 -0.2948
22496W        W38305   6.660  17.754   3.095  0.2414 -0.0314  0.1700
22497W        W38306   0.550   4.695  15.095  0.1287  0.0312 -0.0649
22498W        W38307  10.004  14.173  12.961  0.2499 -0.1753 -0.2497
22499W        W38308   6.772   8.546  14.864  0.0116 -0.0024  0.0873
22500W        W38309   3.572  13.814  13.820  0.1425  0.1210  0.0617
22501W        W38310  11.429  11.997   6.085 -0.0368 -0.2842 -0.1380
22502W        W38311  15.754   5.672   4.092 -0.2712 -0.1802 -0.2093
22503W        W38312  13.296  11.765  11.415 -0.1772  0.0225  0.5000
22504W        W38313   7.406  10.856  11.749 -0.3082 -0.0856  0.3290
22505W        W38314   3.602  17.603   3.825  0.0404  0.0907 -0.1581
22506W        W38315  10.466  13.850  11.188  0.2697  0.1569 -0.1989
22507W        W38316   6.271  15.387  15.824 -0.2663 -0.0200 -0.3138
22508W        W38317  17.917  17.008  13.980 -0.0346 -0.3099  0.2666
22509W        W38318  12.776   1.891  13.613  0.0390  0.1519  0.1413
22510W        W38319   2.905   9.335   0.898  0.1253 -0.0901 -0.1400
22511W        W38320   1.487  13.530  14.220 -0.1357 -0.0056 -0.2366
22512W        W38321   6.816   5.528   3.409 -0.1253  0.0312 -0.0460
22513W        W38322  11.857   9.342   2.920 -0.0217 -0.1462 -0.0933
22514W        W38323  16.217  12.317  11.155 -0.1362  0.1547  0.2023
22515W        W38324   3.277   8.823   2.602 -0.1767  0.0181  0.1405
22516W        W38325  15.428   7.916   1.431  0.2493 -0.0939 -0.1779
22517W        W38326   7.514   2.270   4.257 -0.2167  0.2979  0.1336
22518W        W38327   6.358   9.899  10.199  0.1011 -0.1492  0.0733
22519W        W38328   8.362  12.218   0.921  0.1199  0.0176 -0.1082
22520W        W38329  15.365   2.743   5.368 -0.2922  0.2527 -0.0420
22521W        W38330  15.854   6.467   2.579 -0.1031  0.1181  0.1808
22522W        W38331   5.147   4.328   3.543 -0.1710  0.0146 -0.0431
22523W        W38332   8.655  13.905  14.829 -0.2622 -0.4964 -0.1416
22524W        W38333   2.919   0.548   3.992 -0.0797  0.0552  0.3476
22525W        W38334   6.200  13.535  14.040 -0.1818  0.1259  0.1117
22526W        W38335   2.847  13.948  14.547  0.0971  0.1776  0.1233
22527W        W38336  14.956  13.679   0.939  0.0274  0.2965 -0.2887
22528W        W38337   1.261   8.016  13.761 -0.0523 -0.0209  0.3203
22529W        W38338   6.210   8.836  15.928  0.1170  0.2592 -0.1640
22530W        W38339   8.032   6.238  12.222  0.0298  0.0626 -0.4570
22531W        W38340   2.372  17.214   4.335  0.0271 -0.1057 -0.0244
22532W        W38341   6.490  10.858  13.569  0.1137 -0.0472  0.1159
22533W        W38342  10.338   9.886  15.568  0.3251  0.2529  0.1589
22534W        W38343  16.731   1.771   2.640 -0.2541 -0.0616  0.0203
22535W        W38344  17.375  17.692   1.366 -0.1438  0.3174 -0.0828
22536W        W38345   8.338   6.397  14.410 -0.2032 -0.0722 -0.1402
22537W        W38346  10.828  12.738   1.281 -0.0407 -0.0396  0.1363
22538W        W38347  10.276   7.791   2.250  0.2490  0.1329 -0.5318
22539W        W38348  15.018  16.599   2.451  0.0607  0.0431 -0.0784
22540W        W38349   3.082   4.113   3.692  0.1823 -0.1916 -0.1143
22541W        W38350   9.152  13.681  16.065  0.0612 -0.1389 -0.1581
22542W        W38351   8.892  14.282  13.910 -0.0760 -0.1382 -0.1377
22543W        W38352  18.254   7.399   1.171 -0.0916 -0.0529 -0.0472
22544W        W38353  11.137   1.221  12.566  0.1370 -0.0074 -0.0531
22545W        W38354  11.343  11.218   3.033 -0.2725  0.0050 -0.0474
22546W        W38355  10.932  13.730  12.429 -0.2197  0.0830 -0.0782
22547W        W38356   2.847  15.520   4.715 -0.0719  0.0417 -0.2346
22548W        W38357  13.212   3.358   0.430  0.3416 -0.2228  0.0809
22549W        W38358  11.214  18.043  13.536 -0.4175  0.0614  0.3007
22550W        W38359   2.457  10.853   0.970 -0.1583 -0.2795 -0.1722
22551W        W38360   5.482   1.642   3.163 -0.0657  0.2492  0.1321
22552W        W38361   5.461   4.324  13.612 -0.0424 -0.1618  0.1413
22553W        W38362   5.691   2.149   3.253  0.1291  0.0968 -0.0199
22554W        W38363   4.334   9.008  14.673  0.0433 -0.1770 -0.0295
22555W        W38364   0.252  16.807   4.595 -0.0365 -0.0689  0.1034
22556W        W38365  18.023  15.041  13.032  0.0322  0.1226 -0.0820
22557W        W38366  17.771  14.614  11.222  0.0132 -0.1229  0.2592
22558W        W38367   8.779  16.448  12.642  0.1044 -0.1060 -0.2184
22559W        W38368  17.842   8.228  12.240  0.1074  0.0216  0.2868
22560W        W38369   2.320  13.365   0.041 -0.3146  0.2970 -0.3349
22561W        W38370  17.431   9.369  11.134 -0.1793  0.1173 -0.0407
22562W        W38371   2.260  17.294   3.856 -0.1297 -0.1232  0.1434
22563W        W38372  10.349   8.460  14.166 -0.2073  0.0655  0.0420
22564W        W38373   4.321   0.710   1.803 -0.2985 -0.1822  0.1121
22565W        W38374   1.329  15.182  11.969 -0.1146 -0.3108  0.0626
22566W        W38375   3.422  15.777   1.448  0.4102  0.0495  0.1286
22567W        W38376   0.127   5.269   2.547 -0.0768  0.1791 -0.2136
22568W        W38377  16.665   0.569   4.833  0.1283 -0.2771  0.0999
22569W        W38378  12.276   4.030  13.828  0.1989  0.0529  0.1738
22570W        W38379  18.088  16.844   2.214 -0.0598 -0.2052 -0.2129
22571W        W38380   1.587  11.058   5.353 -0.1694 -0.3257 -0.1588
22572W        W38381   6.112   2.791   4.693 -0.0634 -0.0934 -0.0639
22573W        W38382   8.369   8.936  14.923  0.0492  0.1368 -0.1273
22574W        W38383   6.733   0.394  11.408 -0.0228 -0.0302 -0.0215
22575W        W38384   9.178  17.472   2.985 -0.0683  0.2549 -0.1897
22576W        W38385   2.900  13.016   2.140 -0.1323 -0.1261 -0.0810
22577W        W38386  10.382  17.642   6.259  0.0786  0.4153 -0.1980
22578W        W38387   7.062   1.484  15.985 -0.3085 -0.1856 -0.0411
22579W        W38388   4.213   7.677  13.290  0.0725  0.1697  0.2335
22580W        W38389  16.217  16.807  13.958  0.1906  0.0338 -0.2170
22581W        W38390   8.230  12.624  12.113 -0.1677 -0.1961 -0.0618
22582W        W38391   4.292  14.886   1.833 -0.1271  0.1508  0.0318
22583W        W38392   3.417  13.212   5.296  0.1464  0.1413 -0.0363
22584W        W38393   7.811  13.295   2.470 -0.1864 -0.3120 -0.2540
22585W        W38394  10.217   4.823   2.536  0.3351  0.0321  0.1146
22586W        W38395   2.563   0.869  13.585 -0.2912 -0.0311  0.0829
22587W        W38396  17.653  13.143  13.323 -0.0312 -0.3237  0.1860
22588W        W38397  17.863   8.545  11.386 -0.1854  0.0958 -0.1891
22589W        W38398   3.233   0.175   6.158  0.0953 -0.2477 -0.1606
22590W        W38399  17.902  17.882   5.233 -0.2114 -0.0535  0.1176
22591W        W38400   9.574   5.270   0.135  0.0497  0.0489  0.0725
22592W        W38401  17.169   1.038  11.381 -0.1164  0.1630 -0.1137
22593W        W38402  12.649   0.153  11.588  0.1778 -0.0312 -0.2403
22594W        W38403   0.344   7.653  11.794 -0.0184  0.2969 -0.1826
22595W        W38404   3.738   8.399   0.485 -0.1060 -0.3623 -0.2178
22596W        W38405  13.594  10.320  13.469  0.0908 -0.3223 -0.0621
22597W        W38406  13.395  10.975  16.040  0.1644 -0.0242  0.0381
22598W        W38407  10.257   1.843  15.869 -0.0726  0.3546 -0.1040
22599W        W38408   0.066   8.336  12.454 -0.0955 -0.0360 -0.0949
22600W        W38409   7.440  13.159  11.115 -0.1602 -0.0707  0.1303
22601W        W38410  16.339   9.513  12.524 -0.0746 -0.3520  0.0218
22602W        W38411   2.416   7.488   3.750  0.0352 -0.0181 -0.0321
22603W        W38412   4.297   5.695  12.747  0.0140 -0.1178 -0.1611
22604W        W38413  15.554  10.823  15.818 -0.3839  0.3597 -0.0093
22605W        W38414   6.064  15.963   4.725  0.1520 -0.0588  0.1857
22606W        W38415   8.613   3.588   1.522  0.1432 -0.0259  0.1806
22607W        W38416  16.919   6.898  11.203 -0.1503  0.0688 -0.0957
22608W        W38417  12.566   0.453  13.308  0.0652 -0.0779  0.1954
22609W        W38418   7.513   2.280  14.761 -0.1151  0.3267 -0.3047
22610W        W38419  12.788  12.220   4.362  0.0866 -0.0681  0.1038
22611W        W38420   9.288  16.991   5.334  0.1076 -0.1584 -0.1800
22612W        W38421   5.586  16.267   0.929 -0.1072 -0.0163 -0.0353
22613W        W38422  11.433   1.644  15.120 -0.0240 -0.0196 -0.1906
22614W        W38423  17.833  18.105   4.539  0.3546 -0.1344 -0.1270
22615W        W38424   6.528  10.371  11.847 -0.0606 -0.1678  0.2597
22616W        W38425  11.763   7.191  10.516 -0.2997 -0.0541 -0.1515
22617W        W38426  14.899  14.025   0.011  0.2380  0.2628  0.0493
22618W        W38427   5.878   4.606  16.068  0.3207  0.0976 -0.2302
22619W        W38428   3.303   8.579   0.551  0.0390 -0.3236 -0.3350
22620W        W38429   0.735  10.493  14.556  0.0281  0.0452 -0.0391
22621W        W38430  16.492   7.991   5.198 -0.0493 -0.2001  0.1409
22622W        W38431   4.000   9.485   2.880  0.1283  0.2731 -0.1609
22623W        W38432  17.911  17.223   5.089 -0.1697  0.2311  0.1233
22624W        W38433  12.593   3.504   2.071  0.3719 -0.5924  0.1394
22625W        W38434   5.493  13.824   5.023 -0.2087 -0.2505 -0.1632
22626W        W38435   1.847   9.849  12.570  0.0264 -0.0571 -0.2162
22627W        W38436  13.475   9.405  11.590  0.0250  0.1819 -0.2076
22628W        W38437  17.495   9.510   5.333 -0.1714 -0.0551  0.0338
22629W        W38438  13.053   5.999  14.527 -0.0593  0.0793  0.0201
22630W        W38439   5.583  11.344  14.943 -0.0914  0.0322 -0.0010
22631W        W38440  17.729   4.765  15.107  0.0304  0.1255 -0.3058
22632W        W38441   5.429  15.024   2.253  0.2487 -0.0808  0.0581
22633W        W38442   9.466   8.989  14.478  0.0624 -0.0349 -0.0777
22634W        W38443   7.945  10.643  13.095 -0.4154 -0.3063  0.1461
22635W        W38444  12.523  10.691  11.606  0.0052 -0.1297  0.1266
22636W        W38445  15.230  11.432  15.168  0.2758 -0.0255  0.0030
22637W        W38446  10.200  10.037  14.987  0.0550  0.1389  0.0747
22638W        W38447  12.336   2.138  15.124  0.0053  0.0421 -0.1567
22639W        W38448   1.132  16.681   0.758  0.0218 -0.1355  0.1955
22640W        W38449  16.869  13.022   2.399 -0.1557 -0.0686 -0.2660
22641W        W38450  11.438  16.623  10.855  0.0260  0.0697  0.1241
22642W        W38451  10.645  16.107  12.917  0.0840  0.0622 -0.1180
22643W        W38452   1.000   8.283   1.234 -0.1181  0.1612  0.0331
22644W        W38453  10.770  16.795  15.282  0.0529 -0.0888  0.0027
22645W        W38454  11.589   1.143   2.791 -0.1462  0.0713 -0.2839
22646W        W38455   6.068   8.142  14.495 -0.1265  0.1583  0.0747
22647W        W38456   3.910  13.389  15.670 -0.1026 -0.1241 -0.2157
22648W        W38457   1.452  14.892   3.846  0.0877  0.0424 -0.1252
22649W        W38458   4.229   6.112  10.443  0.1166  0.1460 -0.1088
22650W        W38459  12.687  13.485   4.636 -0.2194 -0.0373  0.1610
22651W        W38460   6.662  12.927   0.725  0.1447 -0.0308 -0.3072
22652W        W38461   6.271  14.847   4.449  0.0434  0.0884  0.1347
22653W        W38462   2.854  16.238   0.588 -0.2519  0.1002  0.1817
22654W        W38463   7.064  13.478  15.444  0.2011 -0.1713 -0.2144
22655W        W38464   1.726  16.070  11.124  0.0582  0.0470  0.0977
22656W        W38465  12.974   2.428  13.619 -0.0452  0.2485  0.3524
22657W        W38466  11.599  14.922   4.177  0.1840 -0.0945 -0.2164
22658W        W38467  11.351   1.518   4.648  0.1308 -0.0191  0.1919
22659W        W38468  17.671  15.350   2.924 -0.1329  0.4140 -0.1006
22660W        W38469   7.691   9.546  12.623  0.2454 -0.0282 -0.1650
22661W        W38470   5.248   6.812  11.037  0.1288 -0.0513 -0.3060
22662W        W38471   4.056   9.078  14.178  0.2043 -0.1664 -0.0779
22663W        W38472   2.146  17.779  15.122  0.0727 -0.1366  0.0936
22664W        W38473  14.202  13.587  15.912 -0.3227  0.1031 -0.0163
22665W        W38474  12.148   8.221   5.351 -0.0340  0.1177 -0.0246
22666W        W38475  16.363   8.201  14.835 -0.3113 -0.1976 -0.1392
22667W        W38476   3.679  16.099  15.496  0.1989 -0.3397 -0.3187
22668W        W38477   7.272   9.064   2.725  0.0764 -0.0941 -0.0920
22669W        W38478   1.586  17.933  12.207 -0.1648 -0.0877 -0.0306
22670W        W38479   9.457   7.495   0.368  0.3094  0.0912  0.0299
22671W        W38480   8.500   3.153   3.263  0.1601  0.0582 -0.2771
22672W        W38481   8.156   8.513  14.113  0.3331 -0.0462 -0.6538
22673W        W38482  10.525  11.278   2.622  0.0062  0.1463 -0.0792
22674W        W38483  12.977  15.267   4.511  0.1387 -0.1386  0.0228
22675W        W38484  16.936   8.909  14.349  0.3174 -0.3647  0.0649
22676W        W38485  12.448   7.906   2.431  0.0372  0.1230 -0.0643
22677W        W38486   0.011   8.717  12.756 -0.1005 -0.1151  0.3380
22678W        W38487   9.764  17.848  14.459 -0.1443 -0.2093  0.0574
22679W        W38488   0.084   6.593   0.442 -0.2881  0.2449  0.2131
22680W        W38489   4.348   0.741  14.058 -0.0355 -0.3781  0.1272
22681W        W38490   7.786  14.382   1.118 -0.0466  0.2367  0.2019
22682W        W38491  12.322   6.523   0.937  0.0879 -0.0190  0.1199
22683W        W38492  11.928   2.510  11.540  0.0287 -0.0018  0.0982
22684W        W38493   7.065  16.365   2.857  0.1736  0.0256  0.0749
22685W        W38494   1.917   6.941   0.837  0.0420  0.1636 -0.3062
22686W        W38495  11.671  14.751  12.654  0.0207 -0.2417  0.3980
22687W        W38496  15.150  13.483   4.800  0.0357  0.2056 -0.2044
22688W        W38497   2.867  18.116   1.990 -0.1288  0.2568 -0.1488
22689W        W38498  14.515   7.947   3.666  0.0814 -0.0204 -0.0390
22690W        W38499   4.556   9.344  14.944  0.0497  0.0646  0.2357
22691W        W38500  17.233   9.800  12.166  0.3294  0.1983 -0.1748
22692W        W38501   7.391   9.018  15.200 -0.1131 -0.1746 -0.0801
22693W        W38502   1.356  14.167  14.355 -0.1110 -0.2238 -0.0987
22694W        W38503  16.619   3.381   0.199  0.1623 -0.1048 -0.0824
22695W        W38504  16.641   9.358  10.704 -0.0076 -0.3861  0.0320
22696W        W38505   4.054  15.250  13.385 -0.1372  0.1869  0.3196
22697W        W38506   5.370   9.565   4.509 -0.0850 -0.0416  0.2468
22698W        W38507  10.279   0.550   5.477 -0.0780 -0.0079 -0.1914
22699W        W38508   4.774   4.362   4.670  0.1181 -0.1227  0.0717
22700W        W38509   3.535   7.181  10.597  0.0844 -0.0985  0.1051
22701W        W38510   4.010   3.751   4.927  0.1382  0.0406  0.3422
22702W        W38511  10.987   9.369   5.011  0.2849  0.4703 -0.1498
22703W        W38512  10.517   5.230   1.582 -0.0248 -0.0805  0.0255
22704W        W38513   4.244  15.919  11.954 -0.0075 -0.1674 -0.1208
22705W        W38514   4.111   4.835  12.209 -0.0898  0.1924 -0.0238
22706W        W38515   5.876   8.874  11.768  0.2227 -0.1128  0.2834
22707W        W38516  11.621  13.927   3.211  0.0716 -0.4433  0.0679
22708W        W38517   3.804  14.275   4.454  0.0687  0.2673 -0.1525
22709W        W38518   3.177  15.301  15.663  0.0576 -0.1703  0.0352
22710W        W38519   8.487   9.733  10.647 -0.1616 -0.0952  0.1197
22711W        W38520  15.050   8.595  11.430  0.0389 -0.0650  0.1496
22712W        W38521   9.915  16.737  11.873 -0.1326 -0.3604  0.1740
22713W        W38522  14.471  10.313   3.079 -0.0075  0.0944  0.0829
22714W        W38523   8.037  15.909  15.641 -0.1189  0.3638  0.0296
22715W        W38524   0.757   6.765  14.665  0.1621  0.1360 -0.0050
22716W        W38525   3.630   7.920   2.480 -0.0976 -0.2962  0.0995
22717W        W38526   7.369  11.980   4.510 -0.3917  0.2180  0.0790
22718W        W38527  14.973   8.490  12.754 -0.0369  0.0243  0.1703
22719W        W38528   1.276  11.622   4.587 -0.0831 -0.0092 -0.1670
22720W        W38529  12.048   6.750  13.340  0.1427  0.2009 -0.1262
22721W        W38530   2.582  17.909  14.922  0.0974 -0.2957 -0.0973
22722W        W38531   3.294  18.170  15.394 -0.0133 -0.1276  0.3585
22723W        W38532  18.235   6.171  15.627 -0.2803 -0.3923 -0.0505
22724W        W38533   8.275   1.347   0.654  0.2139  0.2257  0.0776
22725W        W38534   7.867  12.172   3.723 -0.1719  0.1929 -0.2146
22726W        W38535   1.573  13.538  15.713 -0.0610  0.0401  0.0743
22727W        W38536  16.486   1.716   4.121  0.0648  0.0870 -0.1551
22728W        W38537   1.826   0.453  10.144 -0.1130 -0.2147  0.2254
22729W        W38538  17.524  12.240   4.963 -0.2013 -0.0801  0.0820
22730W        W38539   1.189  14.277  11.373 -0.0518  0.3445  0.0281
22731W        W38540  17.544   6.567   2.123  0.1406  0.0838 -0.1941
22732W        W38541  14.139  10.640  11.290  0.0933  0.3208 -0.1505
22733W        W38542  12.118  14.818  11.393 -0.2648  0.1672 -0.1143
22734W        W38543   4.583  13.275   4.012  0.0020 -0.2117  0.1001
22735W        W38544   1.457   5.901  16.021  0.1459  0.2775  0.1993
22736W        W38545  11.281   1.784  13.407  0.0368  0.4004  0.3452
22737W        W38546  16.583   4.617   0.904 -0.2392 -0.2647 -0.1082
22738W        W38547  13.689   4.006   4.792 -0.0409 -0.2045  0.0733
22739W        W38548   4.714  18.226   2.800  0.2157  0.0894 -0.2875
22740W        W38549   2.554   2.758  14.462  0.1688  0.1664  0.0850
22741W        W38550   2.701   6.199   4.299  0.1224 -0.3368 -0.2404
22742W        W38551  16.880   2.458  11.331  0.1668  0.1446 -0.1403
22743W        W38552   2.374  17.515  14.353  0.1553 -0.3086  0.1857
22744W        W38553  10.150   1.727   0.714 -0.0215  0.0901  0.0555
22745W        W38554   8.468   4.887   3.337  0.0235  0.4409 -0.1291
22746W        W38555   5.841   8.020   4.070 -0.0829 -0.0063  0.1979
22747W        W38556   8.631   5.068  11.166 -0.0190  0.0717  0.2911
22748W        W38557   6.149  15.792   3.575  0.0114  0.1072 -0.2339
22749W        W38558  15.889  16.628   2.656  0.0013  0.0968  0.1909
22750W        W38559  17.264   3.942   1.209  0.0916  0.0431 -0.0661
22751W        W38560  12.443  15.808  13.535 -0.0103 -0.2190 -0.4411
22752W        W38561  17.966   2.376  15.834 -0.0325 -0.2541  0.1041
22753W        W38562   9.118  14.815   0.396  0.4268 -0.4698  0.4055
22754W        W38563  10.685  13.255   0.450 -0.2674 -0.2113  0.0796
22755W        W38564   2.565   0.186   2.229  0.1019 -0.0692  0.1398
22756W        W38565   1.238  16.720  14.269  0.1836 -0.0275  0.2558
22757W        W38566  15.838  14.867   1.859  0.2222  0.0422 -0.1216
22758W        W38567  12.506  12.596   6.197  0.1169  0.2364 -0.2227
22759W        W38568  17.269   9.949  11.203  0.1388 -0.1953  0.1737
22760W        W38569  13.904   5.128  15.382  0.2207  0.3228 -0.3447
22761W        W38570   0.396  13.657   1.936 -0.2760 -0.0267  0.1723
22762W        W38571  17.877   2.281  14.753 -0.2458 -0.2155  0.0304
22763W        W38572  15.978   0.753  14.448 -0.2719  0.1668  0.0453
22764W        W38573   3.669   2.660  11.738 -0.1425 -0.3848 -0.0685
22765W        W38574   0.921   2.648   2.455  0.0960  0.5110 -0.0767
22766W        W38575   8.078  13.712  13.685 -0.4291  0.1285  0.0449
22767W        W38576  12.980   7.140   3.373 -0.0340  0.0229  0.2361
22768W        W38577  11.044  14.222   0.093 -0.2287 -0.3501 -0.0587
22769W        W38578   6.003   6.992   4.383  0.1197 -0.0203  0.1694
22770W        W38579  12.385   8.026  13.920 -0.2102  0.0543  0.0905
22771W        W38580  13.206   9.817  11.924  0.2812  0.0043 -0.2582
22772W        W38581  16.720   2.149  13.723 -0.2027  0.5079 -0.0231
22773W        W38582  11.021   4.876   5.458 -0.1209  0.1881 -0.1899
22774W        W38583   5.282  13.257   4.915 -0.0115  0.0206  0.2730
22775W        W38584  12.504   2.044   1.227  0.0081 -0.2705 -0.1711
22776W        W38585   4.847   9.045   6.021 -0.1655  0.2128  0.1723
22777W        W38586  18.249  17.907   3.288  0.2047  0.0984 -0.1764
22778W        W38587  11.954  13.896   4.721 -0.2267  0.1201 -0.1454
22779W        W38588  13.657  17.400   3.638 -0.0751 -0.0086 -0.1879
22780W        W38589   6.887  17.046   1.704 -0.2324 -0.0843  0.1523
22781W        W38590  12.792   5.265  14.658 -0.0100  0.2305 -0.4241
22782W        W38591  11.803   1.981  12.223  0.1217  0.2519  0.0507
22783W        W38592  16.853  13.716   0.663  0.0625  0.1232  0.0339
22784W        W38593  15.340   8.426  13.319 -0.0834 -0.1011 -0.0276
22785W        W38594  17.950   1.257  14.398  0.0107 -0.2229  0.1384
22786W        W38595   6.609  11.850   5.218 -0.0676 -0.0859 -0.1546
22787W        W38596   7.908  12.934  13.080 -0.0381  0.0655  0.1956
22788W        W38597  11.411   9.166   5.857 -0.3187 -0.0255 -0.3155
22789W        W38598   3.184  13.301   3.941  0.1064 -0.0828 -0.2852
22790W        W38599  11.840   5.052  14.565  0.0645  0.0242  0.1845
22791W        W38600   8.971   0.030   1.199  0.2782  0.2523 -0.3934
22792W        W38601  15.157   9.668   5.621  0.2823 -0.2491 -0.1821
22793W        W38602  14.299   4.550   1.575  0.2256 -0.0334 -0.3466
22794W        W38603   9.144   1.349   3.213 -0.0065  0.2824  0.1443
22795W        W38604   9.441   3.104   3.942 -0.4519 -0.0170  0.1603
22796W        W38605  12.563   3.734  15.750 -0.2476 -0.1278 -0.1885
22797W        W38606   0.494  11.272   0.505 -0.0457 -0.0740 -0.0923
22798W        W38607   3.484   5.489  12.001 -0.1579  0.0058  0.0391
22799W        W38608  15.396  17.874   0.847  0.0782  0.2445 -0.0400
22800W        W38609   9.031   0.430  11.258 -0.4007 -0.1956  0.0965
22801W        W38610   8.106  10.392   1.070  0.1088  0.2583 -0.0840
22802W        W38611  16.705   6.736   1.373  0.0613 -0.2017 -0.0110
22803W        W38612   0.981   3.725  12.757 -0.2043 -0.1641 -0.0658
22804W        W38613   3.870   4.958  13.178  0.1006  0.1193 -0.4172
22805W        W38614   4.416   7.632   1.858 -0.1625 -0.1391  0.1722
22806W        W38615   7.597  17.503   1.039  0.1051 -0.2574 -0.0848
22807W        W38616  12.701   1.808  11.347 -0.1367 -0.1842 -0.0734
22808W        W38617   0.353   5.314  10.657 -0.0039  0.1136 -0.1496
22809W        W38618   8.415  13.616   5.654 -0.0046  0.0333 -0.1492
22810W        W38619  15.238   0.803   2.582  0.2468 -0.0843 -0.0537
22811W        W38620   4.795  12.852   2.279 -0.0350 -0.1001  0.0223
22812W        W38621  17.720   2.047  11.625  0.2158 -0.1499 -0.0143
22813W        W38622   9.226  17.046  13.510 -0.2410 -0.0986 -0.2741
22814W        W38623  12.168  17.165   2.000 -0.1948 -0.1407 -0.0662
22815W        W38624   3.635   8.501  13.248  0.3772  0.5747 -0.3909
22816W        W38625  10.191   5.810  14.588  0.2321 -0.3341  0.3370
22817W        W38626  13.875   8.663   5.605 -0.2316  0.3563 -0.0708
22818W        W38627   1.429   2.534   2.313 -0.1588  0.3432 -0.1031
22819W        W38628   5.333   5.264  15.896 -0.2512 -0.1087  0.0041
22820W        W38629   4.352  17.053  12.149  0.2713  0.1430 -0.2868
22821W        W38630   7.850   2.694  13.843  0.2244 -0.0023  0.1792
22822W        W38631   1.444   9.254  15.578  0.0839 -0.3177  0.2475
22823W        W38632  10.474  11.696   4.558  0.2341 -0.2725  0.0334
22824W        W38633  17.732  17.278  12.936 -0.0046  0.0041 -0.1711
22825W        W38634  17.401   1.886   4.399  0.1972 -0.0963 -0.1995
22826W        W38635   9.095  15.236   5.177 -0.3060 -0.0658  0.2067
22827W        W38636  17.163  16.746   0.351  0.1591  0.0299  0.1551
22828W        W38637   9.446   3.463   3.567 -0.4053  0.1608 -0.0803
22829W        W38638  14.614  14.515   0.233 -0.1948  0.1200  0.0894
22830W        W38639  13.613   6.349   3.192 -0.4380 -0.1200  0.1753
22831W        W38640  16.306  10.931   1.218 -0.1402  0.1275  0.1853
22832W        W38641  13.442  13.960   5.342 -0.2915 -0.2797  0.0509
22833W        W38642   7.021   3.103  12.853  0.1801  0.2560 -0.1290
22834W        W38643   6.130  10.685  12.031 -0.0376  0.1153 -0.1365
22835W        W38644   6.637   4.675   0.376 -0.1708  0.0571  0.1415
22836W        W38645  16.833   6.485  14.665  0.0546 -0.0911 -0.2206
22837W        W38646   3.053  14.868  11.642  0.1035 -0.0427  0.1614
22838W        W38647   1.628  11.820   3.864 -0.3947  0.0153  0.4057
22839W        W38648   6.307   2.681  12.486 -0.1941 -0.0812  0.2537
22840W        W38649   4.078  14.995   0.950 -0.0464 -0.3201 -0.1579
22841W        W38650  11.299  17.669   5.231 -0.0759 -0.2288 -0.2902
22842W        W38651   5.845   9.110   2.178  0.1129 -0.0104  0.3709
22843W        W38652  16.851  15.452  14.677  0.1944  0.0540  0.1643
22844W        W38653   5.144   6.145   2.811  0.1301  0.1372 -0.0321
22845W        W38654   4.075  10.531  12.463  0.0192  0.3125  0.0174
22846W        W38655   9.932  15.854  12.033  0.2186 -0.3596 -0.0689
22847W        W38656   2.951   0.298  14.149 -0.0073 -0.0543  0.3538
22848W        W38657   6.557   7.702   1.532 -0.2524 -0.1084 -0.0984
22849W        W38658   8.513  17.875  15.719 -0.0194 -0.1894  0.0786
22850W        W38659   3.900   3.548  13.697 -0.2578 -0.2519 -0.1123
22851W        W38660   4.727   5.431  14.630  0.0886 -0.0159 -0.0301
22852W        W38661   8.560   0.867   3.658 -0.3673  0.1242  0.2118
22853W        W38662   7.382   0.886   1.929  0.0961 -0.0372  0.2169
22854W        W38663   2.224   1.867   2.152 -0.1756  0.0454 -0.0716
22855W        W38664   2.993   8.493   0.168 -0.1015  0.0421  0.1457
22856W        W38665  11.914   8.534   0.738 -0.4017 -0.0501  0.0289
22857W        W38666   2.076   8.081   4.014  0.2244 -0.0383  0.1141
22858W        W38667  16.394   0.152  11.820  0.4637 -0.0774  0.1726
22859W        W38668  11.939  17.582   2.616  0.0269 -0.1076 -0.1998
22860W        W38669   7.893   6.821  11.412  0.0645  0.0480 -0.2379
22861W        W38670   6.456   3.189  12.036  0.0359  0.1009  0.1239
22862W        W38671   3.419  17.346  11.780  0.0282  0.0992 -0.1445
22863W        W38672  18.134  16.439  12.567  0.2520 -0.0277  0.1782
22864W        W38673  16.532  17.019  12.114 -0.1075  0.1348  0.1512
22865W        W38674  15.343   6.106  15.417 -0.1325 -0.0594  0.1876
22866W        W38675  11.265   1.988  16.037  0.0467 -0.0719  0.1530
22867W        W38676   4.202  12.612  15.781 -0.0039 -0.0336  0.1070
22868W        W38677  17.798   8.312   4.946 -0.2692  0.2215  0.3024
22869W        W38678  13.677   9.307   3.731  0.2570 -0.2655 -0.0789
22870W        W38679  13.570  13.463  15.015 -0.1626  0.2275 -0.0380
22871W        W38680   7.030  15.300  15.496  0.0221  0.0798  0.5234
22872W        W38681   5.009   0.212   5.481 -0.0210  0.3251 -0.0366
22873W        W38682  13.069  17.949   5.334 -0.2218  0.0313  0.0304
22874W        W38683   1.365  14.394  15.514 -0.2397  0.1123 -0.2481
22875W        W38684   9.259  18.192  12.989 -0.1558  0.2097  0.2713
22876W        W38685  13.231   8.574   3.310  0.2524  0.0946  0.1641
22877W        W38686   5.389  16.098   2.371 -0.0486 -0.1261  0.1314
22878W        W38687  13.245  15.320   2.174  0.1422  0.1684 -0.0359
22879W        W38688  11.082  14.936   4.072 -0.1819 -0.0452 -0.1973
22880W        W38689   4.730   9.814   1.326 -0.2808 -0.0674  0.0069
22881W        W38690  15.608  15.494  14.810 -0.1373  0.0058 -0.1642
22882W        W38691   2.457  10.218   1.943  0.0397 -0.1047  0.0077
22883W        W38692   2.479  14.535  12.760 -0.2375 -0.0039 -0.1981
22884W        W38693   6.715   2.486   1.641  0.0294  0.0342 -0.2006
22885W        W38694  12.817   5.739  15.825  0.3925 -0.0142 -0.0389
22886W        W38695   6.257  10.237  12.227 -0.0227 -0.0146  0.1384
22887W        W38696   3.068  14.408   3.595 -0.1790  0.2508 -0.0497
22888W        W38697   3.542  13.047  15.508 -0.0520  0.0743 -0.0269
22889W        W38698  16.918   2.505   0.342  0.3456  0.0406 -0.1681
22890W        W38699   1.586   9.070   1.946 -0.0217 -0.1277  0.0930
22891W        W38700  10.933  10.363  12.352  0.2164  0.0518 -0.0305
22892W        W38701   0.392   7.266  14.246 -0.2132 -0.0076  0.4093
22893W        W38702   2.189   7.166   5.355  0.1186 -0.5312  0.3060
22894W        W38703  15.372  11.308  13.500 -0.0186  0.0658  0.1126
22895W        W38704   3.719   5.840   1.584  0.1957  0.3627 -0.0495
22896W        W38705  16.662   3.308   0.685  0.3838 -0.1026 -0.0045
22897W        W38706   0.848  15.819   3.818  0.1250  0.0757  0.2344
22898W        W38707  14.671   0.274   2.960  0.2019  0.1189  0.0473
22899W        W38708  14.434  16.368   0.627 -0.0227 -0.4356 -0.0806
22900W        W38709   0.571   1.683   2.242 -0.0750  0.1286  0.2677
22901W        W38710   8.877  16.660   0.753 -0.2149 -0.0418 -0.1293
22902W        W38711   9.070  10.489   4.593  0.0800 -0.1566 -0.0278
22903W        W38712  18.065  13.275   6.120  0.1242 -0.1615 -0.1443
22904W        W38713  10.372   4.048  12.202 -0.2420  0.1111 -0.1475
22905W        W38714   4.819   3.697   3.524 -0.1397  0.0139  0.1119
22906W        W38715  13.265   2.031  12.570 -0.0229  0.2958  0.2064
22907W        W38716  13.016   7.015  14.997 -0.0400 -0.1877 -0.0543
22908W        W38717  13.622  11.570   4.326  0.2541  0.3304 -0.1616
22909W        W38718   0.835  17.786   3.294 -0.0432 -0.1007 -0.0257
22910W        W38719  18.041   7.035  13.179  0.0164  0.0126 -0.1121
22911W        W38720  14.633  13.206  13.721  0.1207  0.1155  0.1441
22912W        W38721   0.665  17.218   1.276 -0.3525 -0.0135  0.0670
22913W        W38722   5.066   8.667   4.626  0.1339 -0.3313  0.0992
22914W        W38723   8.246   2.670  13.520 -0.1260 -0.1458 -0.2714
22915W        W38724   0.636   5.062  14.372  0.1427  0.0383 -0.1919
22916W        W38725  11.136   6.498   0.531  0.1445  0.1486  0.1735
22917W        W38726  14.882   5.032   4.407  0.3316  0.0306  0.0734
22918W        W38727  13.039  12.031   2.347  0.1012  0.2906 -0.0097
22919W        W38728  15.860   1.342   2.659 -0.1680 -0.0601  0.0712
22920W        W38729   3.067  16.814   4.929  0.0954 -0.0484 -0.2373
22921W        W38730   2.393  17.087  15.250 -0.1039  0.0553 -0.0904
22922W        W38731   4.932   4.787   3.365  0.1157 -0.2470  0.0026
22923W        W38732   0.196   5.000  15.159  0.0572 -0.0240  0.0442
22924W        W38733   6.236   9.981   4.954 -0.0248  0.0810  0.0098
22925W        W38734   6.383   2.135   1.623  0.1084  0.0381  0.3420
22926W        W38735  16.288  15.200  12.654  0.0824  0.0392  0.0391
22927W        W38736  12.219   6.046   2.758 -0.0454 -0.3967 -0.0680
22928W        W38737   9.335   7.784   1.280  0.1599 -0.3553  0.2316
22929W        W38738  16.546   2.857  11.371  0.0641  0.1917  0.0360
22930W        W38739   6.292   4.549   0.862  0.0308  0.1977 -0.2500
22931W        W38740  14.193   9.791  11.073 -0.0041 -0.1605 -0.0995
22932W        W38741   4.516   5.193   0.011  0.0213 -0.0087  0.2836
22933W        W38742  12.749   6.082  14.142  0.1075  0.0559 -0.0279
22934W        W38743  16.718   8.569  11.236 -0.0909  0.1088  0.2477
22935W        W38744  12.060   2.304  13.121 -0.0277 -0.0664 -0.2774
22936W        W38745   4.894   4.248  12.614  0.3329 -0.0208 -0.1272
22937W        W38746   4.335   0.182  14.045  0.0664  0.1688 -0.1150
22938W        W38747   3.037   5.837  14.544 -0.0031  0.2635 -0.2226
22939W        W38748   5.998   6.307   3.313 -0.1778 -0.1158 -0.3358
22940W        W38749  11.531  15.861  15.353 -0.2840  0.0248 -0.1142
22941W        W38750  10.075  15.756  11.510 -0.3135  0.3401 -0.2761
22942W        W38751   5.395   7.319  10.993 -0.0364  0.0693  0.2742
22943W        W38752   0.540  13.357   6.233  0.3463 -0.1317  0.0859
22944W        W38753   6.163   9.820   1.345 -0.2424 -0.1653  0.0905
22945W        W38754  10.876   6.177  13.392  0.1328  0.2168 -0.3430
22946W        W38755  11.067   1.002   1.571 -0.5307 -0.0064  0.2730
22947W        W38756   3.481   0.428   0.044 -0.1961  0.1514 -0.0186
22948W        W38757   3.565  15.397  13.409  0.0454 -0.2004 -0.1655
22949W        W38758  17.353  11.777   5.183 -0.1012 -0.0663  0.0388
22950W        W38759   8.799   6.512   1.197  0.4602  0.2560  0.0089
22951W        W38760  15.862  13.714  12.221  0.1487 -0.1523  0.0377
22952W        W38761   8.833  11.773   3.894  0.1041  0.1010  0.1707
22953W        W38762  11.838   2.165   1.733 -0.0410  0.0363 -0.2540
22954W        W38763  14.107   7.935  15.943 -0.0288  0.0265  0.1803
22955W        W38764   2.162  10.026  12.937  0.4521 -0.2411 -0.2960
22956W        W38765   0.047  16.463  14.628 -0.0131  0.0945 -0.0823
22957W        W38766   4.447   4.961  11.862  0.0945 -0.2010 -0.4102
22958W        W38767  13.092   5.468   2.130 -0.0417 -0.0058  0.3356
22959W        W38768  12.249   3.805   6.020 -0.1145  0.2402 -0.2390
22960W        W38769  17.986  17.485   0.614  0.0368  0.0224  0.1913
22961W        W38770  13.623   9.871   2.445 -0.1204 -0.1855  0.4166
22962W        W38771  11.476   7.688  11.713  0.1005 -0.2586  0.0283
22963W        W38772  10.828   0.817   3.003 -0.1011  0.0670 -0.1835
22964W        W38773   1.231   9.710   4.829 -0.1510  0.1454  0.2028
22965W        W38774   8.130  16.686  11.390 -0.0304 -0.1950  0.3182
22966W        W38775   7.550  10.039   5.019 -0.0373  0.2140  0.1359
22967W        W38776   9.325  17.321  11.241 -0.3500 -0.3351  0.0211
22968W        W38777   8.530  10.326   1.910 -0.1884 -0.1615 -0.1049
22969W        W38778   2.010   3.365   1.553 -0.0241  0.0215 -0.1514
22970W        W38779   1.917   0.120   1.126 -0.1121 -0.0463 -0.2577
22971W        W38780  10.023  11.159   2.433 -0.0872 -0.1017  0.1194
22972W        W38781   3.020   7.902  12.793 -0.0172  0.3042  0.2210
22973W        W38782   1.641   0.283  15.356  0.4473  0.1741 -0.0070
22974W        W38783   3.447  14.352   0.464 -0.0481  0.0988 -0.1306
22975W        W38784   2.489   4.820   9.918 -0.0981 -0.1461  0.3104
22976W        W38785   3.388   6.767  11.488  0.0653  0.0160  0.0387
22977W        W38786  11.454   7.888  15.933  0.3163 -0.0848 -0.0680
22978W        W38787  11.559   3.064   1.206  0.0854 -0.0781  0.0106
22979W        W38788  12.947  13.128   2.293  0.0616 -0.0127  0.1621
22980W        W38789   6.873  14.193  11.925  0.4005  0.2699 -0.3516
22981W        W38790   7.176  13.085  15.824 -0.2933 -0.0747 -0.2477
22982W        W38791   5.152  17.048  11.123 -0.2290 -0.0439  0.2475
22983W        W38792  12.884   9.995   2.008  0.3293 -0.3071 -0.0568
22984W        W38793  15.775   4.357   0.589 -0.2400  0.1077  0.1767
22985W        W38794   6.844  16.657   5.702 -0.0586 -0.1133 -0.0180
22986W        W38795  13.152   0.646  13.368 -0.0085 -0.0437 -0.0869
22987W        W38796  11.841  11.753  15.212  0.1651  0.1054 -0.1402
22988W        W38797  12.824  10.724   1.237 -0.3357 -0.1246  0.2284
22989W        W38798   4.774   2.896  11.479 -0.0898 -0.0845 -0.0381
22990W        W38799  11.019   3.562   3.396  0.1857 -0.0547  0.1904
22991W        W38800  12.157   2.723  14.953  0.2026 -0.0435 -0.1616
22992W        W38801   2.530   6.280  15.595  0.0572  0.1399  0.0867
22993W        W38802   4.348   5.280   0.487 -0.0261 -0.1354  0.4954
22994W        W38803   4.858   5.929   0.718 -0.2510 -0.1315 -0.2558
22995W        W38804   2.317  10.285  10.786 -0.0483  0.1625 -0.0954
22996W        W38805  10.303  13.437  15.636 -0.0110  0.1128  0.4603
22997W        W38806   5.483  13.112  13.358  0.1654  0.0162  0.1112
22998W        W38807   0.155   4.911  11.824  0.0002  0.0859  0.0711
22999W        W38808  10.424   1.448   4.613  0.0961 -0.0270 -0.1512
23000W        W38809  14.817  10.472  14.367 -0.0910  0.2413  0.0519
23001W        W38810  17.874  13.233  11.241  0.3992  0.1397 -0.1962
23002W        W38811   1.296   0.813  15.650  0.0556 -0.1443  0.0638
23003W        W38812   6.009   4.601   5.122 -0.1734  0.1393  0.3516
23004W        W38813   9.129   7.813  15.382  0.1453  0.2683  0.0641
23005W        W38814  11.698  14.107   2.082  0.0506  0.1234 -0.0192
23006W        W38815   3.180  11.039   2.402  0.3761 -0.5629  0.0866
23007W        W38816  13.480   1.767  14.092  0.4521  0.1541  0.0598
23008W        W38817   7.695  10.655  10.707 -0.0927  0.2936 -0.0539
23009W        W38818  17.468   3.896  12.566  0.3666  0.0152 -0.1793
23010W        W38819   2.448   6.631  11.810  0.2316 -0.0658  0.1794
23011W        W38820  17.448  16.394  11.800 -0.2020 -0.0977  0.0679
23012W        W38821  18.128   8.591  15.075 -0.1764 -0.3167  0.1851
23013W        W38822  13.491   2.851   1.434  0.0306  0.0049  0.0393
23014W        W38823  11.363   4.211  11.268 -0.0180  0.0447  0.2564
23015W        W38824   7.234   2.099  12.476  0.0576 -0.0043  0.1059
23016W        W38825  16.300   4.574  11.585  0.1054  0.1766 -0.1555
23017W        W38826  17.960   5.449   4.453  0.0125  0.1543 -0.0678
23018W        W38827  13.033   4.665   1.271  0.0462 -0.0916  0.2016
23019W        W38828   0.796   6.300   4.692  0.1343  0.2780 -0.1823
23020W        W38829  14.866   5.349  15.734 -0.2585  0.1222 -0.0934
23021W        W38830   8.227  12.510  15.321 -0.0200  0.0653 -0.2096
23022W        W38831   8.278   0.779   0.664  0.0182 -0.0415 -0.0883
23023W        W38832   8.732  14.920   5.426  0.0675  0.0525  0.1514
23024W        W38833  17.016   0.437   4.511  0.0572  0.1968 -0.2548
23025W        W38834   1.073  15.831  14.372  0.1686 -0.0652  0.1781
23026W        W38835  14.480   7.851  14.023 -0.1642  0.1109  0.0791
23027W        W38836   9.896  14.562  12.193 -0.0584 -0.0140 -0.0517
23028W        W38837   1.929  11.434  15.252 -0.1886 -0.2201 -0.0517
23029W        W38838   9.231  14.697   2.367 -0.1948  0.0033  0.0328
23030W        W38839  12.000   0.110  10.552 -0.1461  0.0433  0.1810
23031W        W38840   2.688   4.147  12.478 -0.0561 -0.2383 -0.2476
23032W        W38841  13.045   7.875  13.437 -0.1071  0.0766  0.0544
23033W        W38842  11.152   2.343   5.285 -0.2063  0.2280  0.0715
23034W        W38843   3.165   8.083  11.983 -0.0686 -0.0972  0.1006
23035W        W38844  11.866   5.090  11.530 -0.2446 -0.0702 -0.3522
23036W        W38845   5.236   9.569   2.610  0.3535 -0.1030 -0.0857
23037W        W38846   2.640   5.072   1.670  0.0335 -0.0766  0.1739
23038W        W38847  15.503  11.643  11.273  0.0781  0.1902  0.0920
23039W        W38848   1.503   7.127  15.281  0.0926 -0.0509  0.0204
23040W        W38849   1.447  16.877   4.268  0.0509  0.0668 -0.0453
23041W        W38850   3.999  14.519   4.887  0.0671  0.1906  0.2811
23042W        W38851   2.763  13.268   4.919 -0.3641 -0.0581  0.2033
23043W        W38852   5.622  14.821   1.750  0.0145 -0.1927  0.0049
23044W        W38853   5.703   0.883   1.680 -0.3827 -0.2121 -0.1011
23045W        W38854   6.335  10.532  14.722  0.1201  0.2134  0.1381
23046W        W38855  11.537   4.818   4.487 -0.0939 -0.0315 -0.1285
23047W        W38856  16.907  10.039  11.877 -0.1178 -0.0269 -0.0954
23048W        W38857   0.216   9.687  15.107  0.0758  0.2318 -0.1244
23049W        W38858   8.474   4.470   0.476 -0.2632 -0.1313 -0.0582
23050W        W38859  13.004   0.275   4.228 -0.0332  0.1587 -0.1878
23051W        W38860   1.010  13.574   0.414 -0.0833  0.1280 -0.2395
23052W        W38861   8.064  16.984   2.011 -0.2446 -0.1811 -0.0638
23053W        W38862  10.386   6.988   5.916 -0.1621  0.1430  0.0265
23054W        W38863  14.569  13.347  14.861  0.0232 -0.1808 -0.1602
23055W        W38864   3.879   7.684   5.553 -0.1564 -0.2411 -0.0230
23056W        W38865  13.463   4.120   4.279 -0.2577 -0.3827  0.0166
23057W        W38866   9.237  14.377   0.577 -0.0098 -0.1697 -0.0600
23058W        W38867   3.702   0.992   5.016  0.1291 -0.2841 -0.0069
23059W        W38868   7.187   1.005   6.242 -0.0209 -0.2937  0.0782
23060W        W38869   2.197   1.509   6.034  0.1091  0.1093 -0.5042
23061W        W38870   9.391  12.524   5.199  0.1011  0.0099 -0.2284
23062W        W38871  14.883  15.406   3.724 -0.1351 -0.0795 -0.0103
23063W        W38872   6.546  12.220  13.163  0.1349  0.1058  0.0364
23064W        W38873   3.138   2.511   4.708 -0.0350 -0.0709  0.1048
23065W        W38874   6.957   7.360   3.408  0.2860 -0.2912 -0.0866
23066W        W38875  15.665   5.796   3.657 -0.1481 -0.2065 -0.0773
23067W        W38876  16.398  11.382  14.202 -0.0794 -0.1140 -0.1596
23068W        W38877   8.172   5.613   2.576 -0.1430  0.1397  0.0949
23069W        W38878   5.504   6.967   4.790 -0.0650 -0.1427  0.1184
23070W        W38879   3.104   1.548  12.119  0.1258 -0.1406 -0.1132
23071W        W38880   3.627  12.317   0.596 -0.5590 -0.0483 -0.5509
23072W        W38881   7.923   4.026  13.558  0.0513  0.2708  0.0561
23073W        W38882   4.728   9.613   3.688 -0.1475 -0.0029 -0.0954
23074W        W38883   3.896   1.804   0.923  0.0717  0.2040  0.0239
23075W        W38884  13.853  17.628   0.919  0.4849 -0.1477 -0.0304
23076W        W38885   2.352   4.128  16.059  0.0022  0.1339 -0.2596
23077W        W38886  18.227   1.389  15.869 -0.0984 -0.0268  0.4939
23078W        W38887  15.588   0.907  12.469  0.1589 -0.2075  0.2162
23079W        W38888  13.448   3.475  13.710 -0.0304  0.1723 -0.1350
23080W        W38889  10.342  14.871   4.188 -0.1545 -0.0122 -0.0204
23081W        W38890  14.811  15.614  14.918  0.2437 -0.0298 -0.0220
23082W        W38891  13.638   3.580  14.707  0.2390  0.1640 -0.0949
23083W        W38892   9.307   3.328  11.771  0.1868 -0.2630  0.1727
23084W        W38893   1.540   9.397   0.508 -0.0030  0.1372 -0.4033
23085W        W38894   2.776  16.144  11.379 -0.2039 -0.1300  0.3536
23086W        W38895  10.839  15.312  12.798  0.1149 -0.3753  0.0379
23087W        W38896   7.880  17.787  12.130 -0.0947 -0.0697 -0.3253
23088W        W38897   6.552  13.373   3.175 -0.0168 -0.2738  0.2560
23089W        W38898  15.194   5.457  14.443  0.3197  0.2479 -0.0986
23090W        W38899   8.230  11.195   5.458  0.0644 -0.0221  0.1733
23091W        W38900  17.602  10.079   4.265 -0.0268 -0.3358 -0.0621
23092W        W38901   9.409  17.036  11.624 -0.1751  0.2860  0.0871
23093W        W38902  17.484   6.935  10.993  0.0535 -0.1086 -0.0982
23094W        W38903  13.832   0.668  12.974 -0.1206  0.3026 -0.1684
23095W        W38904  14.867   0.213  11.657  0.1744 -0.1231  0.1061
23096W        W38905   6.337  11.643  10.612  0.0510 -0.0870 -0.1678
23097W        W38906   6.005   1.279   1.906  0.1511  0.3373  0.1174
23098W        W38907   9.564   9.575   1.384 -0.0099 -0.1717 -0.0043
23099W        W38908   1.013  14.740  11.053 -0.3125 -0.2326  0.0434
23100W        W38909   1.695  11.129  11.541 -0.0239 -0.0262  0.2344
23101W        W38910  15.649   1.608   1.135 -0.3458  0.0228  0.0110
23102W        W38911   3.192  12.556   1.783 -0.1278 -0.0375  0.0269
23103W        W38912  13.722   6.268   1.286 -0.0189 -0.1652  0.0517
23104W        W38913  12.741   9.398   5.159  0.4004  0.2032  0.2211
23105W        W38914   4.359   0.339   3.000  0.0397  0.0113  0.2685
23106W        W38915   3.634   1.508   3.454 -0.0047  0.0650  0.0476
23107W        W38916  11.059   3.829  14.203 -0.0332  0.1190 -0.1110
23108W        W38917  17.763   4.230  11.781  0.0406 -0.1448  0.1375
23109W        W38918   7.395  10.182   4.103  0.1538  0.3690 -0.2677
23110W        W38919  14.694  16.745  11.492  0.1040 -0.1026 -0.0367
23111W        W38920  14.607   1.814  12.143 -0.0559 -0.0129 -0.0548
23112W        W38921   2.459  13.883   2.552  0.1938 -0.0903  0.0560
23113W        W38922  10.914  10.171  15.914 -0.1563 -0.0011  0.0328
23114W        W38923   9.003   5.244   2.486 -0.2683  0.0580 -0.0066
23115W        W38924   0.505  16.020  13.472  0.0533  0.0849  0.1122
23116W        W38925   6.184  12.050  11.369 -0.3907 -0.0387  0.0006
23117W        W38926   0.237  14.194   4.679 -0.0579  0.1885  0.0182
23118W        W38927  16.000  16.159   3.774 -0.1666 -0.1252 -0.1743
23119W        W38928  11.608  17.461  14.622 -0.3402  0.2081 -0.2808
23120W        W38929   2.074   1.333   1.554 -0.0797 -0.2934 -0.1743
23121W        W38930   5.607   1.044  11.907  0.1076  0.3425  0.2243
23122W        W38931  15.924  14.224   4.762  0.2813 -0.0642  0.2148
23123W        W38932   2.399   4.439  11.800  0.1376 -0.3191  0.2079
23124W        W38933   8.611   0.148   4.983 -0.0156 -0.0859  0.2709
23125W        W38934   9.758   5.758  14.343 -0.1872  0.0179 -0.1393
23126W        W38935   6.274   1.462  11.045  0.2548 -0.0730  0.1889
23127W        W38936  11.565   0.027  10.774 -0.1712 -0.0816  0.1185
23128W        W38937  14.101   5.854   1.515 -0.0185  0.0011 -0.1097
23129W        W38938  15.256   7.774  14.754  0.3469  0.1911  0.3187
23130W        W38939   2.972   7.089   3.434 -0.2390  0.0476  0.0128
23131W        W38940  14.490   8.995  13.978 -0.1725  0.0155 -0.2199
23132W        W38941  11.646  10.698  10.911  0.0878 -0.3440  0.3982
23133W        W38942   5.101   8.128  10.667 -0.2459  0.0788 -0.1261
23134W        W38943  14.835   3.215  15.378  0.0388  0.2014 -0.0344
23135W        W38944   8.961  11.021   4.807  0.2251  0.1081  0.1651
23136W        W38945   1.556  16.786  15.832 -0.2922  0.1847  0.2647
23137W        W38946  14.983   7.195  11.047 -0.0405  0.1965  0.0579
23138W        W38947  16.392  10.063   5.711  0.0913 -0.1489  0.3517
23139W        W38948   0.646  15.437  10.770 -0.0531  0.0220 -0.2222
23140W        W38949   4.529  14.953  11.924 -0.4936 -0.1839 -0.2056
23141W        W38950  14.182  10.475   0.036  0.0888 -0.1098 -0.0174
23142W        W38951  15.743   4.090  13.541  0.2450 -0.2119 -0.2438
23143W        W38952   9.387   9.007  10.963  0.2201  0.1722 -0.0652
23144W        W38953  13.330  10.298   3.690 -0.4064  0.0929 -0.0758
23145W        W38954   5.489  15.202  12.424  0.0883  0.2029  0.0957
23146W        W38955  17.569   5.914  14.482 -0.2999  0.1514 -0.1149
23147W        W38956  15.788  11.083   2.175 -0.2562 -0.1302 -0.1078
23148W        W38957  16.732   8.520  14.875  0.2047  0.1290 -0.1807
23149W        W38958   3.584   0.515   5.102  0.1861  0.0725 -0.2447
23150W        W38959  15.758  15.510   5.082 -0.1251 -0.1450  0.1632
23151W        W38960   1.919   3.812   4.354  0.3313  0.0330 -0.0789
23152W        W38961  12.493  12.568   1.610  0.0792 -0.1202 -0.1143
23153W        W38962  11.405  18.220   0.119  0.1537 -0.0105 -0.1182
23154W        W38963  14.511  14.953  13.214  0.0072  0.0234  0.0600
23155W        W38964   0.528   1.825   3.722  0.2007  0.0448  0.2941
23156W        W38965  12.356   9.563  14.700 -0.0249  0.0790  0.2196
23157W        W38966   1.821  12.420   0.526 -0.6307 -0.1739 -0.2046
23158W        W38967   1.261  11.645  15.751 -0.6676  0.0405  0.0078
23159W        W38968   8.679  14.094   4.454 -0.1362  0.0066 -0.0341
23160W        W38969  16.333   7.694  14.361 -0.1831  0.0050  0.0532
23161W        W38970   0.371  13.370   2.353  0.2024  0.0892  0.0917
23162W        W38971  17.446   8.734  14.272  0.3833 -0.1155  0.1149
23163W        W38972   4.580   6.399   4.941 -0.1704  0.0889 -0.2406
23164W        W38973  14.592   2.324   2.217  0.0337  0.1286 -0.0541
23165W        W38974   8.739  16.583   2.646 -0.1555  0.2610  0.0131
23166W        W38975   1.221   5.040  15.683 -0.2985 -0.4312  0.1861
23167W        W38976   3.447  11.642   4.740 -0.3120  0.2214  0.1280
23168W        W38977  17.638   2.725   4.735  0.3442 -0.0575  0.0636
23169W        W38978  17.515  13.235   5.132  0.1466  0.0339 -0.1929
23170W        W38979   9.148  12.843   2.543  0.4480  0.0849 -0.1526
23171W        W38980   0.119  13.831  14.486  0.1647 -0.0513 -0.0107
23172W        W38981   5.581  16.856   2.711 -0.2906  0.5364 -0.1676
23173W        W38982  13.538   2.892   0.271  0.1437  0.0420  0.1064
23174W        W38983  12.488   1.021  11.463 -0.0176  0.3563 -0.1086
23175W        W38984  10.180  15.187   3.536 -0.1075  0.0142 -0.1896
23176W        W38985  15.477  14.423  14.014 -0.1664  0.1153  0.3239
23177W        W38986  16.752  10.720  11.224 -0.0359 -0.3768  0.4272
23178W        W38987   8.221   2.877   2.604  0.3659 -0.2599  0.0255
23179W        W38988  12.582   0.371  10.447  0.0320  0.0644  0.1099
23180W        W38989  15.337  10.252   0.689  0.1002 -0.3388  0.1278
23181W        W38990   3.765   7.713  13.714  0.0130 -0.0602  0.1825
23182W        W38991   6.902   9.675  12.470 -0.3730  0.1454 -0.1992
23183W        W38992  12.097   9.099  11.452  0.0751 -0.0823 -0.0451
23184W        W38993  16.981   3.490   2.191  0.0092 -0.1997 -0.1868
23185W        W38994  11.556   0.356  12.704  0.0030 -0.1366 -0.0029
23186W        W38995  11.336   1.680  12.476 -0.1211  0.0820  0.0182
23187W        W38996  11.127  13.772   3.522  0.0312  0.0760  0.1408
23188W        W38997   4.304  17.556   3.291 -0.0801  0.1050  0.0596
23189W        W38998  15.956   2.782   2.525  0.1728 -0.1665  0.0088
23190W        W38999   1.296   1.510  12.864  0.2518 -0.1397 -0.4292
23191W        W39000   9.328   3.424  12.706 -0.3938  0.1708 -0.0520
23192W        W39001  15.379  13.368   3.625  0.0651  0.4369  0.1558
23193W        W39002   4.013   8.409  12.959  0.0762  0.4427 -0.1042
23194W        W39003   1.611  11.901   4.834 -0.2625 -0.1449  0.0551
23195W        W39004   3.207  10.270  12.654  0.0482  0.0498 -0.0254
23196W        W39005   3.768   2.556  10.765  0.0397 -0.2343  0.1322
23197W        W39006  15.305   7.735   4.830  0.2447  0.1724  0.2303
23198W        W39007  15.033  11.559   5.496  0.1626  0.0196 -0.1045
23199W        W39008   8.137   4.295  15.641 -0.2244  0.2570  0.0905
23200W        W39009  17.905   4.817  16.054 -0.1737  0.0547  0.0863
23201W        W39010  12.628  15.884  12.623 -0.2779  0.1715  0.0444
23202W        W39011   7.177   3.983   2.568 -0.2147  0.1575 -0.0749
23203W        W39012   1.893   5.487   2.934 -0.2379 -0.2607 -0.1376
23204W        W39013   2.833  15.385   3.696 -0.0729  0.1846  0.0163
23205W        W39014   0.650   7.970   5.344 -0.2889  0.2596 -0.1278
23206W        W39015  11.623  12.164  13.421 -0.1337 -0.2094  0.1756
23207W        W39016   5.135   6.516   1.080  0.1676 -0.0178 -0.1224
23208W        W39017   9.197  10.713  14.231 -0.2066  0.0387  0.1197
23209W        W39018   7.828  16.157   1.909  0.3405 -0.2080 -0.0540
23210W        W39019   8.053   1.925   1.426 -0.2228  0.1595  0.1103
23211W        W39020   7.349   4.750  12.259  0.1667 -0.0546  0.3851
23212W        W39021  15.926   9.020   2.959  0.2512  0.0966 -0.0135
23213W        W39022   7.398   9.144   3.302  0.0062 -0.2497  0.0712
23214W        W39023  10.129  16.268  12.259  0.0590 -0.0747 -0.1683
23215W        W39024  16.695  10.625  10.666  0.2711  0.0586  0.2741
23216W        W39025   8.459  14.769   4.044  0.1777  0.0777 -0.0854
23217W        W39026  12.318  11.579  11.216 -0.0670 -0.0126 -0.0527
23218W        W39027  17.870  12.399   2.965 -0.1897  0.0367  0.0780
23219W        W39028   5.702   9.044  11.142  0.2566  0.1138  0.0359
23220W        W39029  10.765  13.515  11.057  0.0885  0.0390 -0.0098
23221W        W39030   4.069   8.976   1.511  0.2233 -0.1591 -0.3288
23222W        W39031   8.350   9.805  13.728 -0.2394 -0.1213  0.0496
23223W        W39032  10.531  12.111  12.692  0.4893  0.0819  0.0327
23224W        W39033  11.075  10.478  15.538  0.0392 -0.2301  0.1442
23225W        W39034  16.661  16.704   5.688  0.1582  0.0638 -0.0083
23226W        W39035   3.982   5.885  12.205 -0.2326 -0.1171  0.1775
23227W        W39036   3.478   3.362   3.267  0.1738 -0.0078  0.0160
23228W        W39037   0.966   0.908   5.368 -0.0004 -0.1178  0.1232
23229W        W39038  10.162  12.826   2.551 -0.1462  0.0905 -0.0565
23230W        W39039   8.950   4.690   2.280  0.0183  0.0196  0.1082
23231W        W39040  13.029   2.291  12.145 -0.1836  0.0646 -0.3197
23232W        W39041  12.217   9.928  15.680  0.0534 -0.1757  0.0788
23233W        W39042  15.731   5.039  15.044  0.3202  0.2151 -0.0372
23234W        W39043   6.753   3.757  15.852  0.0046  0.0040 -0.0228
23235W        W39044  15.213  17.417   5.026  0.1152  0.0627 -0.0293
23236W        W39045  12.511  16.512  14.021 -0.1159  0.1855 -0.0024
23237W        W39046  18.020   0.515   2.524 -0.0376 -0.0096 -0.1759
23238W        W39047  16.240   1.671   2.986 -0.2717  0.2063  0.4231
23239W        W39048  14.008   0.453  13.786 -0.0659  0.0045 -0.1534
23240W        W39049   0.277  11.392  14.309 -0.2462  0.1132 -0.2733
23241W        W39050   6.347  10.243   0.184  0.0887 -0.0240  0.2867
23242W        W39051  11.300  15.442  12.487 -0.2554 -0.0430 -0.1641
23243W        W39052  11.361  12.521  15.287 -0.0440  0.0696 -0.1229
23244W        W39053  12.406  13.732   0.429 -0.0196  0.0088  0.0896
23245W        W39054  17.618   9.794  15.871  0.0656 -0.3076  0.0311
23246W        W39055   6.954  16.050   4.519  0.1859 -0.1787 -0.1424
23247W        W39056   5.850   4.540  11.466 -0.0225  0.0752  0.2938
23248W        W39057   1.579   3.587   1.685 -0.1645  0.1994 -0.0814
23249W        W39058   0.493  17.852   2.937 -0.2878 -0.1569  0.2191
23250W        W39059   0.245  10.820  15.849  0.1014 -0.0239 -0.3848
23251W        W39060  14.725   7.316   3.640 -0.0728  0.0053 -0.2656
23252W        W39061  12.852  17.295   3.730  0.1108 -0.1505  0.0164
23253W        W39062   8.637  17.881   5.009  0.1613  0.1802 -0.3260
23254W        W39063   9.572   4.412   0.902  0.1585  0.0258  0.1331
23255W        W39064  11.704   2.051  12.805 -0.0429 -0.0065  0.0315
23256W        W39065  12.969   5.613   2.980  0.1972 -0.0359  0.0765
23257W        W39066   6.712   2.981  14.132 -0.1832  0.1596  0.0353
23258W        W39067   2.717  13.098   6.245  0.2499  0.0947 -0.1165
23259W        W39068  14.417  15.522   5.086  0.0364 -0.1131  0.0042
23260W        W39069  11.972  16.263  14.627 -0.1973 -0.0831  0.2558
23261W        W39070  13.823  10.796   0.224  0.1759  0.2476  0.0055
23262W        W39071   3.592  11.550   3.121  0.1518 -0.0531 -0.0149
23263W        W39072  17.970   3.076  14.284  0.1665 -0.2220 -0.5790
23264W        W39073  10.936   9.588  13.134 -0.1991 -0.0240  0.0437
23265W        W39074  17.633   7.467   0.429  0.0309 -0.0035 -0.2864
23266W        W39075   1.923   9.570  13.171 -0.1223 -0.1190  0.0651
23267W        W39076  17.646   4.093   3.812 -0.0240  0.0448  0.2786
23268W        W39077   4.102   4.475  14.648 -0.1003 -0.0459 -0.3278
23269W        W39078   1.997  15.286   5.042  0.3594 -0.2820  0.0943
23270W        W39079  16.972  11.277   2.891 -0.0215  0.4955  0.0478
23271W        W39080   6.743   0.935  12.065 -0.1532  0.0010  0.0855
23272W        W39081  15.312   7.997  11.468 -0.0738 -0.2435 -0.2737
23273W        W39082   9.497  17.470  14.205  0.3536 -0.0236  0.2171
23274W        W39083  14.436   7.627   3.294 -0.1359  0.1619  0.0623
23275W        W39084   0.003   2.330  12.540 -0.1659  0.3012  0.1038
23276W        W39085  14.417   4.118   2.379  0.3753  0.1442  0.1199
23277W        W39086  16.537  11.429   4.608 -0.0384 -0.1413  0.1979
23278W        W39087   4.303   9.918  15.726 -0.0921 -0.0725 -0.1650
23279W        W39088  12.219  16.061   5.565  0.1349  0.0943  0.3242
23280W        W39089   8.334   6.906  12.908  0.3424  0.0860 -0.1439
23281W        W39090  14.776   0.673   4.705 -0.1043 -0.1018  0.0596
23282W        W39091   1.225   7.849   1.944  0.3549  0.3127  0.0062
23283W        W39092   5.296  15.001   3.542 -0.5133 -0.1984 -0.0073
23284W        W39093  10.469   5.828   2.321  0.3384 -0.2688  0.0819
23285W        W39094   0.829   0.331   2.691 -0.0692  0.2113 -0.2338
23286W        W39095  17.487   1.092  11.740  0.2694  0.0383  0.1980
23287W        W39096  10.855   6.607   2.368  0.0327  0.5540 -0.0300
23288W        W39097  16.947  17.982  14.447 -0.1382  0.0618  0.1019
23289W        W39098  13.760   1.997  12.644 -0.0460  0.0902  0.1649
23290W        W39099  17.470   0.469   1.194 -0.0264  0.0781 -0.2726
23291W        W39100   9.260  15.443  10.262  0.2483  0.1741 -0.2795
23292W        W39101   2.028  13.947  13.320  0.2864 -0.0421  0.0818
23293W        W39102   9.623  10.733   0.095  0.0833 -0.0508 -0.1088
23294W        W39103  17.013   6.328   1.874 -0.0293 -0.0591 -0.1471
23295W        W39104   7.386   6.241   4.345 -0.2355 -0.0150 -0.1295
23296W        W39105   6.300   0.382   2.766 -0.1515 -0.0184  0.1176
23297W        W39106   2.552  11.740   2.738  0.0988  0.0088  0.0587
23298W        W39107  10.664   5.684  14.872  0.0898  0.2135  0.2139
23299W        W39108  18.002  16.599  15.400  0.1334 -0.0910 -0.0120
23300W        W39109   9.743   5.700  14.843  0.1821  0.2026 -0.1603
23301W        W39110   6.918   6.563   2.325  0.0305 -0.2575  0.0731
23302W        W39111   8.245   3.833  14.322  0.2475 -0.0886  0.2187
23303W        W39112   7.125  15.332  12.052  0.0610 -0.1155 -0.2722
23304W        W39113   3.531   0.652   2.254  0.0923 -0.2571 -0.0704
23305W        W39114   1.907   5.841   6.141 -0.1156 -0.0726  0.2370
23306W        W39115  15.328   0.196   4.162  0.0975  0.0258 -0.4590
23307W        W39116  14.170   8.761  13.634 -0.0440  0.0181  0.1282
23308W        W39117  15.799   1.735   3.429 -0.2214 -0.0616 -0.1086
23309W        W39118  11.268  10.049  15.539 -0.0540  0.0352  0.1763
23310W        W39119   9.322   9.407  14.820  0.1013 -0.0598  0.1417
23311W        W39120  14.364   5.027  12.400  0.3836  0.0208  0.5609
23312W        W39121  15.986   1.914  15.562  0.1477  0.1901 -0.2249
23313W        W39122   1.213  17.428  12.805 -0.2636  0.0844 -0.1181
23314W        W39123  14.926   6.586   3.000  0.0785  0.1613  0.0561
23315W        W39124   6.730  13.288  13.103  0.2384  0.0144  0.0505
23316W        W39125  13.808   6.843   5.717 -0.2713 -0.0273 -0.0080
23317W        W39126  16.736  12.069  15.908 -0.4457 -0.3610 -0.0640
23318W        W39127   5.965  11.825  13.886 -0.0663 -0.0735 -0.0468
23319W        W39128  17.220  13.575  11.854 -0.3309  0.1627  0.0684
23320W        W39129  16.088   8.641   4.389 -0.0995  0.2145 -0.0526
23321W        W39130  10.400  15.899  12.354 -0.1486  0.0223  0.1757
23322W        W39131  18.073  13.264   4.565 -0.1086 -0.2455  0.0987
23323W        W39132  15.942   3.909   0.558  0.0860  0.1724 -0.2726
23324W        W39133  16.558   5.875  15.761 -0.0499 -0.0395 -0.2774
23325W        W39134  11.429  12.550  13.708 -0.0899 -0.1531  0.1952
23326W        W39135   9.191  17.121   0.767 -0.0140 -0.1772 -0.2086
23327W        W39136  16.695   7.780  10.927  0.0250 -0.1839 -0.2826
23328W        W39137   6.259  16.148  11.285 -0.1916  0.3406 -0.1844
23329W        W39138  14.257   4.152   4.814  0.2908 -0.0071 -0.0826
23330W        W39139  10.012   6.625   1.756  0.0867 -0.1746 -0.1325
23331W        W39140  15.175  17.360   0.523  0.1402 -0.0189  0.0229
23332W        W39141  10.077  12.540   0.656  0.0030  0.0809 -0.1341
23333W        W39142  10.520   5.996   0.804 -0.2141  0.0980  0.0173
23334W        W39143   2.804   7.594   3.374  0.4625 -0.3835 -0.1849
23335W        W39144   1.480   1.050   4.586 -0.4567  0.0724 -0.0732
23336W        W39145  17.890  16.840  13.443  0.1520  0.1221 -0.3124
23337W        W39146  10.325   5.787  12.406  0.3018  0.0435 -0.1534
23338W        W39147   6.970   5.996  11.400 -0.2380 -0.0302  0.1646
23339W        W39148   8.437   5.258   5.134  0.1446  0.2566  0.0033
23340W        W39149  12.043  15.704   1.668 -0.0509  0.2391  0.0769
23341W        W39150   9.941   2.932   6.296  0.1863  0.1027 -0.1011
23342W        W39151   1.509   9.733   2.424 -0.0828  0.1006  0.0867
23343W        W39152   6.890   4.337   4.673  0.0130 -0.1252  0.2353
23344W        W39153   3.230  14.233   2.518  0.1270 -0.0528 -0.0953
23345W        W39154   2.471  11.804  15.278 -0.3977 -0.0137  0.0004
23346W        W39155  16.509   0.521  12.577  0.2336  0.0514 -0.0529
23347W        W39156   8.535   7.048   3.204  0.0459  0.1302  0.0542
23348W        W39157  11.394   8.664   1.705 -0.1260 -0.0701  0.2928
23349W        W39158   2.300  17.076  14.114  0.0559 -0.0262 -0.1921
23350W        W39159   4.999   8.030  11.844  0.0014  0.0125  0.0031
23351W        W39160   8.280  15.585  15.935  0.4828 -0.1015  0.1070
23352W        W39161   7.091   5.294   4.872  0.0194  0.4368 -0.0487
23353W        W39162  12.440  13.276   0.257  0.0539 -0.0142  0.0448
23354W        W39163   1.061   0.912   0.465  0.1349  0.4067 -0.0323
23355W        W39164  18.153   7.244  14.472  0.0273 -0.0082  0.3659
23356W        W39165  13.943   8.080   3.701  0.2230 -0.2015  0.1626
23357W        W39166  13.179  10.085   3.189  0.2039  0.2193 -0.0546
23358W        W39167  15.732   9.647  10.765  0.0148  0.0566  0.0996
23359W        W39168   6.523   6.866   2.175  0.0845 -0.1013  0.2250
23360W        W39169   5.514  17.976   3.436 -0.0437 -0.1221 -0.1011
23361W        W39170  16.152  13.863   0.227 -0.0685 -0.0567 -0.1259
23362W        W39171   4.774   5.937   3.705  0.1477  0.1441 -0.2540
23363W        W39172   1.081   2.296   1.030  0.0852  0.1140  0.5794
23364W        W39173  17.183  11.019  11.123  0.3042  0.3582  0.1505
23365W        W39174   3.387   2.709  15.382 -0.0895  0.0334 -0.3601
23366W        W39175   7.756   0.183   3.481 -0.0623 -0.0355  0.1268
23367W        W39176  12.845   7.504  14.610 -0.1839 -0.2567 -0.2185
23368W        W39177   5.119  17.822   5.159 -0.2497 -0.2765 -0.0531
23369W        W39178   1.475  15.549   0.292 -0.0015  0.1306 -0.1250
23370W        W39179  13.291  17.587   4.529 -0.1336  0.1368  0.2090
23371W        W39180   8.308   7.232  11.225  0.0608 -0.0581  0.0131
23372W        W39181   9.634   9.387  10.743  0.0434 -0.1565  0.1199
23373W        W39182  14.648  12.032  15.482  0.0250 -0.2646 -0.0754
23374W        W39183   3.177  14.100  13.963 -0.1553 -0.0418 -0.0584
23375W        W39184  17.394   6.562  15.362  0.0832  0.2054  0.2554
23376W        W39185   7.047   4.796   5.883  0.1095 -0.2088 -0.1071
23377W        W39186   4.056  15.567  16.031 -0.2697  0.1425  0.1572
23378W        W39187   1.165   6.979  14.841  0.1110 -0.0039 -0.1915
23379W        W39188  15.863   9.204   1.693 -0.0459  0.0369  0.1303
23380W        W39189   6.053   9.085   0.763  0.0859 -0.2432 -0.4856
23381W        W39190   0.771   1.652  10.313  0.3361  0.1541 -0.0434
23382W        W39191  16.353   9.899  14.225  0.3903 -0.1512  0.1779
23383W        W39192  12.144   0.887  14.378  0.0282  0.0782  0.0900
23384W        W39193   4.586  14.593  14.328 -0.1607 -0.2256  0.2991
23385W        W39194   5.898   9.170   3.598 -0.2410 -0.0439 -0.1665
23386W        W39195   1.332  12.611  14.784  0.0915 -0.1179  0.0912
23387W        W39196  11.974   1.067  14.772 -0.0859  0.0715  0.1219
23388W        W39197  15.467   4.284  12.294  0.0256 -0.0875 -0.2714
23389W        W39198   5.351  11.715   2.573  0.0821  0.0474  0.1042
23390W        W39199  16.641   9.024  11.129  0.2840 -0.1318  0.2346
23391W        W39200   9.669   4.815   2.665 -0.0321  0.2198 -0.1289
23392W        W39201  13.802   2.752  12.957 -0.2622  0.0331 -0.1404
23393W        W39202   4.117  16.111   4.458 -0.0709 -0.2622  0.1486
23394W        W39203   4.242  11.491   1.848  0.2271 -0.2935 -0.2136
23395W        W39204  15.764  13.443   2.406  0.0349  0.0493  0.0174
23396W        W39205   9.887  10.023   2.299 -0.0629 -0.1294 -0.2637
23397W        W39206   6.071   9.973   1.816  0.0601  0.0166  0.1260
23398W        W39207   0.424  11.161   3.428  0.1450  0.2142  0.0199
23399W        W39208   2.933   1.846   0.908  0.0406  0.1562 -0.0859
23400W        W39209   8.911   1.559  14.301 -0.0864 -0.2046  0.0505
23401W        W39210  13.086   1.405  16.041  0.1448 -0.1275 -0.1018
23402W        W39211   0.420   3.252  14.847 -0.2071 -0.2251 -0.1760
23403W        W39212   9.023   6.526   2.081  0.1187 -0.0056  0.0191
23404W        W39213  10.471   6.489   1.483 -0.0139  0.2448 -0.0092
23405W        W39214   3.963  10.438   2.399  0.0314  0.1468  0.0508
23406W        W39215   3.386  13.740  14.311 -0.0241 -0.0903  0.2913
23407W        W39216   0.042   7.021   0.203 -0.3935 -0.1664 -0.2054
23408W        W39217  16.730  15.635   5.505  0.2826 -0.0307  0.1423
23409W        W39218   1.430  13.082  15.842  0.5410 -0.0138 -0.1796
23410W        W39219  13.446  16.973  12.292 -0.0950  0.1180  0.1022
23411W        W39220  14.723   2.337  11.817  0.1919 -0.1200 -0.0997
23412W        W39221  12.954  14.651   0.367 -0.2357  0.2785  0.1630
23413W        W39222  13.421  16.771   4.996  0.1561  0.2549  0.0500
23414W        W39223   7.201   2.044   5.117  0.0541  0.2645  0.0922
23415W        W39224   3.470  11.249  15.588  0.2276  0.2326 -0.1606
23416W        W39225  14.182   7.596  14.642 -0.0308 -0.0166  0.3029
23417W        W39226   3.819   2.426  15.216  0.1933 -0.0099 -0.1657
23418W        W39227   8.610   8.802   1.942  0.0514 -0.1361  0.0439
23419W        W39228  17.915   2.347   4.365  0.0148  0.2123 -0.0279
23420W        W39229   9.741   8.995   2.965  0.2643  0.1821  0.0791
23421W        W39230   0.505  10.030   0.225  0.1548 -0.0410  0.0995
23422W        W39231   3.711  14.757  12.315 -0.1451 -0.1334 -0.1287
23423W        W39232   6.514   8.061   3.524 -0.1806 -0.1283 -0.2865
23424W        W39233   6.771  15.649   3.565 -0.2997  0.0883 -0.2238
23425W        W39234   6.000   4.920   1.042  0.1840  0.1320 -0.0277
23426W        W39235  12.248   5.790   2.282  0.2307  0.1965 -0.2216
23427W        W39236  15.115   3.244   4.102 -0.2516  0.2541  0.2386
23428W        W39237  10.353   7.451  13.360  0.1641  0.0916  0.1172
23429W        W39238  16.816   1.704  15.033 -0.2501  0.5378  0.0307
23430W        W39239   9.987  16.542  14.515 -0.1768  0.0488 -0.0061
23431W        W39240  15.711  10.172   5.098 -0.1127 -0.0813  0.1847
23432W        W39241   2.463  11.306   1.246 -0.1231  0.1304 -0.0707
23433W        W39242   7.407   6.814  13.158 -0.1256 -0.2220 -0.2548
23434W        W39243  11.021   2.082  13.702 -0.2127  0.1978 -0.2334
23435W        W39244   2.790  15.028   4.444  0.1227  0.1591  0.0756
23436W        W39245   4.644   3.790   2.670 -0.1170  0.2303 -0.0706
23437W        W39246   8.785   6.107   0.389 -0.2930 -0.2461 -0.1508
23438W        W39247  12.894  14.200   2.181  0.0822  0.0472 -0.1525
23439W        W39248   8.094   8.532   2.731  0.0629  0.2529 -0.2788
23440W        W39249  10.731  14.399  14.859 -0.1584 -0.1224 -0.4580
23441W        W39250   3.960  10.513   4.102  0.2218  0.0649 -0.2588
23442W        W39251   8.785   2.632  12.290 -0.1781 -0.1989 -0.0254
23443W        W39252   8.737   6.990   4.485 -0.1894  0.2179  0.0620
23444W        W39253  14.437   4.044  15.648 -0.0595 -0.0482  0.0005
23445W        W39254   9.670  12.061   4.001 -0.1106 -0.0415  0.1462
23446W        W39255  17.921  10.903   0.026 -0.2010 -0.2332  0.1307
23447W        W39256  15.088   3.830   1.904  0.0411 -0.0020 -0.4792
23448W        W39257   5.932   1.340  11.404  0.0874 -0.0202 -0.0086
23449W        W39258   5.221  10.828   2.165 -0.1226  0.0785 -0.0641
23450W        W39259  10.729   1.753  13.219  0.3240  0.0452  0.0611
23451W        W39260  14.892  18.226   1.695 -0.1213 -0.0104  0.1469
23452W        W39261   0.127  10.732   0.701 -0.1621  0.1983 -0.1097
23453W        W39262   7.365  12.594  11.200 -0.0097  0.2169  0.0524
23454W        W39263   2.661   1.715  12.934  0.0683 -0.3019 -0.0951
23455W        W39264  11.504  18.128   3.295 -0.2752 -0.2584  0.0043
23456W        W39265   9.202  17.251   5.735  0.0693  0.0175 -0.1630
23457W        W39266   1.155   2.437  14.799 -0.0596  0.0125 -0.0749
23458W        W39267  10.493   0.473   6.035  0.3410  0.1354  0.0506
23459W        W39268   0.136  13.091   1.966 -0.0217 -0.0004 -0.0711
23460W        W39269   9.650  10.744  14.710 -0.1920 -0.1303  0.4120
23461W        W39270  13.795  16.312   4.312  0.1335  0.0696  0.1114
23462W        W39271   8.055  15.370  13.922  0.1693  0.0440 -0.0744
23463W        W39272   4.491   0.489   3.486 -0.1032  0.2676  0.1413
23464W        W39273   0.044   9.369   4.188 -0.1100  0.1385  0.0989
23465W        W39274   8.592   2.456  13.060 -0.0627  0.0719 -0.2237
23466W        W39275  13.055   0.310   1.864  0.1002  0.0579  0.0381
23467W        W39276   2.154  13.750  12.829 -0.0264 -0.0395 -0.1529
23468W        W39277  12.238   8.890  14.314  0.0279 -0.2603  0.0680
23469W        W39278  14.575  16.852   0.813  0.1664 -0.2264 -0.0406
23470W        W39279  14.918  13.317  12.885  0.2986 -0.0344  0.1550
23471W        W39280  14.892  16.813   4.442 -0.2655 -0.0811 -0.0081
23472W        W39281   8.543  11.165  14.774 -0.3091 -0.0891 -0.3358
23473W        W39282   8.903   9.636  14.895 -0.1687 -0.3061 -0.0269
23474W        W39283  13.692  14.366  13.530  0.0294  0.0794 -0.1965
23475W        W39284  12.736   1.119  15.462 -0.3359 -0.0832 -0.2394
23476W        W39285  15.202   0.692  14.725  0.0301 -0.2926 -0.0870
23477W        W39286  15.597   1.870  11.989  0.0977  0.0253  0.0234
23478W        W39287  11.766  10.175   4.495 -0.1970 -0.1548  0.3421
23479W        W39288   3.852  17.768   5.081 -0.0972 -0.1913 -0.0446
23480W        W39289   9.968   2.100   5.213  0.0006  0.1302 -0.1540
23481W        W39290   5.336  13.840   1.758 -0.1929 -0.1800 -0.1350
23482W        W39291   8.704   4.803  15.351  0.1055 -0.1279  0.2177
23483W        W39292   6.130   4.934   4.623 -0.0446 -0.0977  0.0954
23484W        W39293  18.092  12.194  11.052  0.0063 -0.1245 -0.0093
23485W        W39294  12.134   3.121   1.237 -0.1364 -0.1059 -0.1760
23486W        W39295  15.680   3.851   4.449 -0.4219 -0.1038 -0.0415
23487W        W39296   8.736  17.625   2.142 -0.0013 -0.0805 -0.0053
23488W        W39297  11.181   9.157  11.424  0.1695  0.5577  0.0654
23489W        W39298   8.160  10.771   2.615  0.0941 -0.0394 -0.0603
23490W        W39299   8.801   0.147   2.559 -0.0971 -0.0301 -0.1393
23491W        W39300   3.790   6.538  12.675  0.0402  0.0086 -0.3185
23492W        W39301   2.241  11.700  13.403 -0.0890 -0.1335 -0.0002
23493W        W39302  11.973  11.738  13.762  0.2179  0.2373 -0.1952
23494W        W39303  17.968  16.690  11.735 -0.0474 -0.0483  0.3668
23495W        W39304   8.791  15.331  13.748 -0.0231  0.2934 -0.0918
23496W        W39305   4.084  18.232   3.972  0.2094  0.2558  0.1370
23497W        W39306   9.546   3.789   0.355  0.4596 -0.2139 -0.0698
23498W        W39307  15.467  14.319   4.517 -0.1281  0.0669 -0.0551
23499W        W39308  14.041   1.800   3.559 -0.2127  0.2052 -0.0293
23500W        W39309   2.628   1.076   2.010 -0.3600  0.2688 -0.3706
23501W        W39310   7.743  12.561  13.378  0.2355 -0.0225 -0.1062
23502W        W39311  12.484   9.248  12.728  0.1355  0.1103  0.0018
23503W        W39312  17.217  11.795   3.100  0.1025 -0.0163  0.1864
23504W        W39313  16.862   1.199  10.821 -0.1433  0.1023 -0.1935
23505W        W39314   9.535   7.442  11.670 -0.1035 -0.0102  0.2566
23506W        W39315  12.385   0.398   1.549  0.2766  0.0290 -0.0198
23507W        W39316  14.348   2.790   2.170  0.1461  0.2597  0.1576
23508W        W39317   1.315  13.523   3.663  0.1965  0.1068  0.0263
23509W        W39318   7.433   7.229  15.073 -0.1882 -0.2645  0.1692
23510W        W39319  13.919   6.445   4.202  0.1688 -0.1620 -0.1605
23511W        W39320   9.655  17.244  12.033  0.2424 -0.3323  0.2422
23512W        W39321  10.215   5.968   3.845 -0.0812 -0.0288 -0.2359
23513W        W39322   9.686  10.301  10.734  0.3736  0.0911  0.1378
23514W        W39323   8.929   1.143  10.419  0.1548 -0.0295 -0.1815
23515W        W39324  14.608   5.427  12.162 -0.1563 -0.0802  0.1615
23516W        W39325  15.585   8.924   3.651 -0.1315 -0.0878 -0.0244
23517W        W39326  13.053  17.271  11.037  0.0292  0.2032 -0.0956
23518W        W39327   4.722   2.943   2.197 -0.0560 -0.1193  0.1419
23519W        W39328  12.123   9.659   0.419 -0.1025 -0.0090  0.0298
23520W        W39329  14.928  11.361   3.138  0.0108 -0.0604 -0.2617
23521W        W39330  17.942  12.828   3.248  0.2636 -0.1272 -0.0712
23522W        W39331   7.852  15.713   2.094 -0.4176 -0.0204 -0.1929
23523W        W39332   1.253   6.722   0.538 -0.4116 -0.0288  0.2833
23524W        W39333   7.561   9.794  10.950 -0.1579 -0.0411  0.2827
23525W        W39334   3.220   2.388   4.183  0.0450  0.1132  0.0834
23526W        W39335  12.538   5.269   2.275  0.1396  0.2307  0.2850
23527W        W39336   0.705  16.272  12.266 -0.0981  0.4421  0.0267
23528W        W39337  14.870   2.121  16.029  0.0685  0.0100 -0.1533
23529W        W39338   5.192   7.748   2.254  0.0488 -0.0741  0.1344
23530W        W39339   0.049   0.525   5.009 -0.2052 -0.1224 -0.0949
23531W        W39340   5.765   2.834  14.427  0.2219 -0.1268  0.2288
23532W        W39341  11.520   6.541   1.594 -0.1723  0.3779 -0.0535
23533W        W39342  11.159   2.966   4.242 -0.0962  0.0735  0.3413
23534W        W39343   7.217  12.783  10.779 -0.1209  0.2450 -0.0302
23535W        W39344   4.366   4.518  15.217  0.1224 -0.0592 -0.0618
23536W        W39345   5.799   6.920  14.837  0.0358 -0.1663  0.2266
23537W        W39346   6.750   0.353  13.121  0.0836 -0.0401 -0.2192
23538W        W39347   9.991  13.005   4.862  0.3298  0.0058 -0.1287
23539W        W39348  15.345   7.553  11.811 -0.0974  0.3487  0.0702
23540W        W39349   5.324  14.293  11.986  0.0963 -0.2964  0.0764
23541W        W39350   3.203   5.818   4.116 -0.0245 -0.2561 -0.0477
23542W        W39351   1.189  13.309   2.098 -0.0163  0.0944 -0.0494
23543W        W39352   8.572  16.423  14.519  0.1287 -0.0985  0.0412
23544W        W39353  14.191   4.531   0.510 -0.1496 -0.0518  0.3463
23545W        W39354   9.106   5.655   0.910 -0.0383 -0.0546  0.1824
23546W        W39355   3.296   2.575  10.889 -0.2134 -0.0223  0.0550
23547W        W39356  17.117   3.696   5.638  0.0283 -0.1410  0.3265
23548W        W39357   5.712   2.449   2.811 -0.1091 -0.1900  0.1423
23549W        W39358   6.896  10.868   3.934  0.2907 -0.3162  0.0349
23550W        W39359  14.183  14.327  12.194  0.0141  0.4313  0.0290
23551W        W39360  11.866  15.100  14.860  0.2301 -0.0446  0.1082
23552W        W39361  16.500   0.004  14.401 -0.0139  0.1274  0.4136
23553W        W39362  12.602   9.616   2.728  0.3120  0.0195 -0.1778
23554W        W39363   5.909  15.555   3.956  0.0667  0.1517  0.1452
23555W        W39364  18.247  17.255   0.262  0.0944  0.0694 -0.0622
23556W        W39365   7.732   3.479  11.126 -0.1405  0.1770 -0.0413
23557W        W39366   8.872  17.552   2.605  0.1457 -0.2939  0.1519
23558W        W39367   7.490  14.058  15.292  0.0325  0.0331  0.0197
23559W        W39368   3.598   9.320   3.663 -0.1332  0.1397  0.0332
23560W        W39369   8.822   5.681  12.003  0.0427 -0.0320 -0.2500
23561W        W39370  10.847   0.433   1.372 -0.1397  0.0913  0.1673
23562W        W39371   2.933  15.400   1.745 -0.0195  0.1638  0.1754
23563W        W39372   8.896  13.312  11.520 -0.1421  0.2142 -0.2332
23564W        W39373   8.343  16.692  12.379  0.0065  0.1784 -0.2039
23565W        W39374   5.175  12.485   6.056  0.0743 -0.0519 -0.1827
23566W        W39375  16.945   6.676   3.651 -0.2449  0.0911  0.1287
23567W        W39376   9.646  17.618   1.247 -0.0520  0.1229  0.0495
23568W        W39377  15.981   5.530   2.390  0.0414 -0.2000 -0.0832
23569W        W39378   6.560   9.863  12.001 -0.1598 -0.1233 -0.3425
23570W        W39379   1.048  16.003   1.901  0.1478 -0.1554  0.2179
23571W        W39380  12.056  16.257   1.718 -0.0172  0.1843  0.2707
23572W        W39381   6.501  10.700   3.272  0.1040 -0.0263  0.0803
23573W        W39382  16.485   7.658   3.430  0.0705 -0.3075 -0.1769
23574W        W39383   9.489   9.908  13.031  0.0913 -0.2829  0.1463
23575W        W39384   8.414   6.965   1.442  0.0302 -0.0206  0.0526
23576W        W39385   5.823   8.802   3.991  0.1203  0.0706 -0.1449
23577W        W39386   9.764  15.259   4.458  0.2493  0.0732 -0.1395
23578W        W39387  13.781  17.753   1.639  0.2611 -0.0003  0.1486
23579W        W39388   1.387  11.349  14.438  0.0555  0.1854  0.1304
23580W        W39389  17.879  12.263  13.531 -0.0208  0.1651 -0.1112
23581W        W39390  14.093  11.820   0.134  0.1439  0.0787  0.1274
23582W        W39391  17.972   5.743  11.578 -0.1703 -0.0469  0.1062
23583W        W39392   3.475   4.210   0.698 -0.1447 -0.3240  0.2109
23584W        W39393   6.232  17.360   5.366  0.1328  0.1582  0.4178
23585W        W39394  15.926   4.532  14.628 -0.0294 -0.0657 -0.0175
23586W        W39395   0.135  16.199   5.365  0.2375  0.0249 -0.1760
23587W        W39396   1.982  14.770  14.565 -0.3490  0.2324  0.0099
23588W        W39397   6.666   5.873   3.786  0.0079 -0.2723 -0.1094
23589W        W39398   2.432   8.738  14.087  0.0561  0.1157  0.0869
23590W        W39399  16.621   5.946  12.156 -0.0933  0.1675  0.0030
23591W        W39400   6.011   3.186   1.540 -0.0305  0.0606 -0.0764
23592W        W39401  12.830   1.308   4.717  0.4792 -0.0180 -0.0580
23593W        W39402  13.298  10.524  11.470 -0.0881  0.0875  0.0640
23594W        W39403  11.626  12.836   0.975 -0.1674 -0.0176 -0.0846
23595W        W39404  14.185  10.536  12.317 -0.1492 -0.2107  0.1840
23596W        W39405  16.182   8.447   2.406  0.1710 -0.0190  0.1354
23597W        W39406   8.682  12.872   1.437 -0.2270 -0.0992  0.0030
23598W        W39407   3.709  12.578  15.588  0.0768  0.2253 -0.1509
23599W        W39408  14.242  11.917  12.356  0.3100 -0.1785  0.0758
23600W        W39409   3.644  13.761   5.467  0.0547 -0.1232  0.1004
23601W        W39410   1.630  11.950   4.351  0.2334 -0.2214 -0.0506
23602W        W39411  16.117   7.709  12.462 -0.2489  0.0777 -0.2515
23603W        W39412   1.484   2.670  12.175 -0.0723  0.0761  0.1044
23604W        W39413   8.677  12.222   3.177  0.1911 -0.0016 -0.0212
23605W        W39414  11.224   7.800   1.546  0.0756  0.0718  0.2052
23606W        W39415   9.076   7.112  11.824 -0.2419 -0.1607 -0.3165
23607W        W39416   7.082  18.200   0.798 -0.0212  0.0938 -0.0568
23608W        W39417  11.613  16.952  14.785  0.1199 -0.1608  0.2744
23609W        W39418   3.552   8.214  13.713  0.1539 -0.0648  0.0673
23610W        W39419  14.437   7.275   2.786 -0.1799  0.3178 -0.2646
23611W        W39420   7.169  17.896   0.377  0.0049  0.1641  0.1208
23612W        W39421  17.381   1.937   1.561 -0.1126 -0.0450 -0.0177
23613W        W39422   5.068  15.923   0.442 -0.0135  0.0003  0.0617
23614W        W39423   2.169  17.803  11.041 -0.2896  0.1661  0.3698
23615W        W39424   9.755   6.449  11.509 -0.0582  0.0173 -0.2231
23616W        W39425   8.776  16.550   4.692  0.0600 -0.1384 -0.0233
23617W        W39426   5.830   8.649   3.521 -0.0326  0.2753  0.0460
23618W        W39427  16.214   1.916   1.343 -0.1752 -0.0347 -0.1458
23619W        W39428   1.227  12.281  12.716  0.2043  0.2134 -0.1851
23620W        W39429  15.005   3.302   0.170 -0.0955 -0.3214  0.1013
23621W        W39430   2.504  16.038  15.052  0.2873  0.2679  0.1274
23622W        W39431   7.412   3.686   0.388 -0.2798  0.0208 -0.1868
23623W        W39432   3.619  16.664  13.934  0.1658 -0.2315 -0.0314
23624W        W39433  17.271   4.470  15.147  0.0975  0.0016  0.0809
23625W        W39434  12.008   4.692   0.885 -0.0489 -0.0070  0.1480
23626W        W39435   7.482  16.859  14.614 -0.5310 -0.0539  0.3568
23627W        W39436   0.726   2.206  15.746  0.0668  0.3194  0.0431
23628W        W39437   2.110  14.468   5.090 -0.0328  0.2508 -0.0122
23629W        W39438   0.539   0.495  13.224  0.1307  0.0606  0.2272
23630W        W39439   5.848  11.922   3.563 -0.2332  0.0731  0.0557
23631W        W39440   7.715   3.917   1.760 -0.0277  0.0409 -0.0126
23632W        W39441   5.470  10.688  14.038 -0.1622 -0.0782 -0.2174
23633W        W39442   1.971  17.633  14.059  0.0605 -0.0164 -0.3704
23634W        W39443   3.395   3.545  12.243 -0.0992 -0.4321 -0.2801
23635W        W39444   0.568   1.164  14.532  0.1082 -0.1045  0.2586
23636W        W39445   7.150  11.782   1.352 -0.0713 -0.0409  0.0677
23637W        W39446   7.472  13.417  14.436  0.3381 -0.0241 -0.0225
23638W        W39447   1.541  10.244  15.479 -0.1117 -0.1629 -0.0643
23639W        W39448   5.650  11.671  12.057 -0.2513 -0.1149 -0.0713
23640W        W39449   0.019   0.416   1.372 -0.1282 -0.1554  0.1046
23641W        W39450   8.693  11.315   1.971  0.0337 -0.1929  0.1953
23642W        W39451   5.271  16.761  14.027 -0.1009 -0.0867  0.0357
23643W        W39452   5.072   3.283   3.724 -0.3896 -0.0418 -0.0731
23644W        W39453   5.450   8.687   4.272 -0.1672 -0.0765 -0.0425
23645W        W39454   0.438  14.957  10.671 -0.2819  0.2847  0.1634
23646W        W39455   0.350  15.390  12.137 -0.1061 -0.3766  0.0995
23647W        W39456   4.670   0.773   0.534  0.1189 -0.3185 -0.1555
23648W        W39457   4.651  13.809   3.955 -0.0970 -0.1897  0.0456
23649W        W39458  15.917  15.213  14.528  0.1002 -0.1774 -0.1658
23650W        W39459   5.751  14.934  13.486 -0.3648 -0.2000 -0.0369
23651W        W39460  11.005  16.462  13.764 -0.1069  0.0204 -0.1674
23652W        W39461  11.945   2.977  15.598 -0.0229  0.1533  0.0896
23653W        W39462  14.686  18.151   2.145  0.2066  0.0535 -0.0146
23654W        W39463   2.634   3.905   2.678  0.1197  0.0777  0.0378
23655W        W39464  10.606   3.143  14.090 -0.0828  0.0659  0.1303
23656W        W39465  14.861  12.434  10.830 -0.0578 -0.0124  0.0441
23657W        W39466  13.851  11.179   2.073  0.1368  0.0381  0.1270
23658W        W39467   7.850   6.644   2.600 -0.0145  0.0571 -0.0073
23659W        W39468  15.011   7.789  14.071 -0.2105  0.0077  0.1929
23660W        W39469   2.518  14.624   0.050 -0.1449  0.0338  0.0069
23661W        W39470  18.144   1.497  15.359  0.0714 -0.0528  0.2112
23662W        W39471   2.024  13.687  11.020  0.1274 -0.1390 -0.0865
23663W        W39472  13.450   2.531  12.351  0.1352  0.3674  0.4825
23664W        W39473   9.450   4.316   0.441  0.0302 -0.1709  0.2159
23665W        W39474   7.527   5.268  15.520 -0.1607 -0.1641  0.4314
23666W        W39475   9.244   0.803  15.039 -0.2689  0.0378  0.1919
23667W        W39476   7.077   2.049   5.664 -0.2542  0.1404 -0.0898
23668W        W39477   7.994   3.935   1.244  0.0118  0.0965  0.1651
23669W        W39478   5.792  17.589   0.837  0.3847  0.1451  0.2065
23670W        W39479  12.886   6.821   4.948 -0.2990 -0.2042 -0.3683
23671W        W39480  10.561   1.124   2.143  0.0149 -0.0454  0.0008
23672W        W39481   2.369  15.002   0.319  0.0508  0.1130  0.1770
23673W        W39482  18.244   9.225   3.667 -0.0562  0.1626  0.1361
23674W        W39483   4.360   4.084   4.821  0.4529 -0.1826 -0.0144
23675W        W39484   8.910  14.662  15.211  0.0829 -0.2447  0.1362
23676W        W39485   2.710   9.240  15.195  0.0854  0.1152  0.0363
23677W        W39486  10.139   4.962  11.347 -0.0904  0.1489  0.0561
23678W        W39487   5.282   6.935  14.928 -0.0226  0.0054  0.0040
23679W        W39488   9.823  16.226  10.050  0.2033 -0.1517  0.1364
23680W        W39489   5.295  11.821   3.711  0.2705 -0.1284  0.0148
23681W        W39490  15.036   7.198   1.702  0.0131  0.2921 -0.0568
23682W        W39491  12.479  17.620   3.813  0.0158 -0.0286  0.1732
23683W        W39492  14.021  16.629   0.789  0.1011  0.2619 -0.0030
23684W        W39493  17.342  15.491   3.511  0.0500  0.0388  0.2869
23685W        W39494   6.738   9.646   4.571  0.1662  0.2314  0.0431
23686W        W39495   9.772   9.486   0.547 -0.2849  0.1162 -0.1845
23687W        W39496   3.768   9.199   1.846 -0.0194  0.0574  0.3048
23688W        W39497   8.690   2.591   1.119 -0.1639 -0.0311  0.0413
23689W        W39498  16.774  16.745   0.654  0.1244  0.2209  0.1122
23690W        W39499   8.468   6.029   9.758  0.2571 -0.2147  0.0311
23691W        W39500  11.763   1.523  12.999  0.1064 -0.1443 -0.3526
23692W        W39501   8.499  16.795   1.140  0.2646  0.0197 -0.0514
23693W        W39502  13.554   4.798  12.755  0.1301  0.0498 -0.1606
23694W        W39503  13.177  12.077  10.972 -0.1408  0.0659  0.3463
23695W        W39504  13.017  12.223  12.904 -0.0118 -0.0781 -0.1117
23696W        W39505  17.839   6.231  11.364  0.1315  0.3149  0.1819
23697W        W39506  18.093   4.110  13.121  0.2061 -0.1910 -0.0772
23698W        W39507  12.344  12.811   5.235  0.0967 -0.2916  0.1618
23699W        W39508   4.439  11.778  15.806  0.0972  0.0001  0.2773
23700W        W39509  14.926   4.856  15.689 -0.2133 -0.0001 -0.1241
23701W        W39510   0.398   7.444  10.747  0.2046  0.2444  0.0578
23702W        W39511  10.641  16.040   1.538 -0.1104 -0.0508  0.0731
23703W        W39512   2.206  11.067  12.515 -0.0751 -0.2127 -0.0036
23704W        W39513   4.891  16.713  11.448  0.0237 -0.1194  0.1245
23705W        W39514  11.543  10.208  15.135  0.1572  0.1218  0.1020
23706W        W39515   6.396  10.393   5.195 -0.0785  0.3703  0.3183
23707W        W39516  17.696   0.093   5.453 -0.2650 -0.0082  0.0094
23708W        W39517  14.724  16.142  15.526 -0.2406 -0.0355 -0.1348
23709W        W39518  11.616   8.930  11.335 -0.3444  0.0121  0.2162
23710W        W39519   4.731   5.637   3.285 -0.1518  0.1879  0.1680
23711W        W39520  13.687   7.686  14.626 -0.0068 -0.1575  0.1492
23712W        W39521  12.745   9.562   9.976  0.1867  0.1287 -0.3002
23713W        W39522   0.558  11.649  12.549 -0.2515 -0.0500 -0.1898
23714W        W39523   8.832   2.316  11.877  0.0745 -0.1309  0.0892
23715W        W39524   1.921   8.846   2.186 -0.0997  0.2776 -0.0405
23716W        W39525   6.200  13.578   1.192  0.4363  0.0303 -0.1192
23717W        W39526   2.198  10.447  13.196  0.1479  0.0776 -0.1306
23718W        W39527  12.057   1.318   2.931  0.1725  0.1300  0.1251
23719W        W39528   7.024   4.238   3.760  0.0484  0.1407 -0.2711
23720W        W39529  12.937   0.718   2.171  0.1610 -0.1020 -0.3310
23721W        W39530   0.199  13.321   5.671  0.3922 -0.0793 -0.2992
23722W        W39531  13.505  15.346  11.773  0.1135 -0.0097 -0.0267
23723W        W39532   5.134  16.380   3.561  0.0707 -0.0108  0.0865
23724W        W39533   0.099   4.573   3.114  0.0225 -0.0674  0.1636
23725W        W39534   8.807  14.153  15.699  0.1140  0.2980  0.1499
23726W        W39535  10.354  15.252   4.503 -0.1192 -0.1405  0.1874
23727W        W39536   5.419   8.170   4.374 -0.3976 -0.2729 -0.0776
23728W        W39537   5.191  12.893  12.425  0.0130 -0.0702 -0.1152
23729W        W39538  16.926  12.245   2.209  0.1682 -0.0498  0.0811
23730W        W39539  12.985  15.591  13.394  0.1310 -0.1097 -0.1245
23731W        W39540  15.813   0.626   5.460  0.0814 -0.0833 -0.2652
23732W        W39541  12.744  17.011  15.265  0.1491  0.0026 -0.2849
23733W        W39542  16.281   8.648  11.399 -0.1856 -0.1401  0.3280
23734W        W39543   1.265  13.058   0.253  0.1060 -0.2659  0.0607
23735W        W39544  10.364   8.861   2.370 -0.2075 -0.0090  0.0436
23736W        W39545  17.251  11.212  12.647 -0.2118  0.0473 -0.2181
23737W        W39546  18.020  12.746   1.726  0.0040  0.1180 -0.2440
23738W        W39547  12.698   5.820   6.136 -0.3937  0.2351  0.3771
23739W        W39548   7.562  11.877  15.520 -0.1761 -0.0381 -0.0903
23740W        W39549   2.702   7.571   2.326 -0.0631  0.0859 -0.0483
23741W        W39550  14.358  14.320  15.439  0.0251  0.2882  0.1422
23742W        W39551  10.968  12.909   0.228 -0.0647 -0.2915  0.1611
23743W        W39552   9.550  11.488   2.844  0.2057  0.3434 -0.1419
23744W        W39553   4.953   1.218  11.964  0.0809 -0.1656 -0.1584
23745W        W39554   1.757  17.171  14.008 -0.0047 -0.2451 -0.3020
23746W        W39555  17.423   6.672   3.964 -0.0776 -0.1304  0.0877
23747W        W39556   7.240  17.165  12.473 -0.0041  0.0112 -0.3053
23748W        W39557  15.349  10.302   2.530  0.0851  0.1650 -0.0237
23749W        W39558   2.179   2.605   5.119 -0.2567  0.0041  0.2850
23750W        W39559  11.220   2.141   3.055 -0.1279 -0.0107  0.1130
23751W        W39560  15.460   9.643   4.422  0.1716 -0.0849  0.2323
23752W        W39561   6.748  16.229   5.162  0.0379 -0.2150  0.1697
23753W        W39562  14.125   5.099  10.876  0.0610  0.0401  0.2175
23754W        W39563   3.443  12.753   0.800 -0.3197 -0.2918  0.1003
23755W        W39564  15.569  16.023   0.394  0.0844 -0.1116  0.1646
23756W        W39565  13.889  14.210   2.071  0.0849  0.2354 -0.0762
23757W        W39566   3.039   8.955   4.882  0.1317  0.1327 -0.0488
23758W        W39567  13.447  13.401   4.058 -0.1295  0.0996  0.1228
23759W        W39568  15.177   4.542   3.179  0.2100 -0.0606 -0.0736
23760W        W39569  14.355  14.030   5.129  0.1345  0.1502 -0.1271
23761W        W39570   7.918  10.340   3.360  0.1934  0.2099 -0.0519
23762W        W39571  18.151  11.250   2.562  0.1608  0.2325 -0.1439
23763W        W39572   7.684   1.740  16.018  0.0134 -0.0204  0.0973
23764W        W39573   2.451   6.529  14.676  0.0434 -0.2122  0.0614
23765W        W39574   1.880   8.339  10.021  0.1417 -0.3047  0.1669
23766W        W39575  16.857   3.282  12.491 -0.2424 -0.0953 -0.1187
23767W        W39576   2.544   7.291  13.138 -0.0386  0.1856 -0.2124
23768W        W39577   3.393   3.706   0.248  0.0777 -0.0665  0.0433
23769W        W39578   0.845   8.755  14.108  0.0320 -0.0491 -0.1390
23770W        W39579   0.884   1.284   0.205  0.0216 -0.0268 -0.0023
23771W        W39580   8.130   7.209   1.111  0.1959  0.2299  0.0684
23772W        W39581   1.362  18.031  15.398 -0.1486 -0.0488  0.1303
23773W        W39582  13.482  10.330   4.667  0.2166 -0.0883 -0.0152
23774W        W39583   9.167  18.098  16.064  0.3759 -0.0844  0.1856
23775W        W39584  13.841   0.028  13.995  0.0306 -0.3603 -0.3872
23776W        W39585   1.211   0.522  15.180 -0.1524 -0.0167  0.2308
23777W        W39586   1.597  15.689  15.022 -0.0870 -0.0497 -0.2020
23778W        W39587  14.231  17.630  10.684  0.3547  0.0584  0.0625
23779W        W39588   4.372   4.446  11.945  0.1104  0.1455  0.2324
23780W        W39589   0.027  12.063   3.739  0.0878 -0.0826 -0.0673
23781W        W39590   0.579  14.776   3.790 -0.0112  0.0618  0.2787
23782W        W39591   1.438  15.613   2.759  0.3146  0.4213 -0.0952
23783W        W39592   7.391  15.914   2.170 -0.2368 -0.2149 -0.1478
23784W        W39593  13.350   6.834  12.167  0.2465 -0.2505 -0.0768
23785W        W39594  18.187   8.976   0.873  0.0469  0.2316  0.0004
23786W        W39595   8.216   0.042   3.372 -0.0101 -0.1234  0.4112
23787W        W39596   4.755  15.046   0.171 -0.1931  0.1816  0.0013
23788W        W39597  16.305  16.755  14.455  0.1844  0.1655 -0.0064
23789W        W39598   8.721   5.935  14.423 -0.1610 -0.1594 -0.0560
23790W        W39599  11.255   3.532  12.396  0.0412  0.1391  0.0496
23791W        W39600  10.963  13.967  11.867 -0.0412 -0.2786 -0.0144
23792W        W39601  13.406  16.556   5.433 -0.0837  0.1552  0.0301
23793W        W39602   8.359  10.028   4.515 -0.1434 -0.1088 -0.2099
23794W        W39603   0.886  15.439  12.132 -0.0276 -0.1548  0.2075
23795W        W39604  11.653   2.623   1.009  0.0592  0.0042  0.1020
23796W        W39605   8.410  14.139   0.399 -0.1223  0.0892  0.2662
23797W        W39606  14.711  11.398  12.991  0.0740  0.0678  0.0020
23798W        W39607  16.768   0.773  12.899  0.2727 -0.0913  0.0338
23799W        W39608   2.506   7.084  14.561  0.0250 -0.1798  0.0480
23800W        W39609  18.215  14.062   5.505 -0.1345  0.3563 -0.0249
23801W        W39610   0.431   3.342   2.744  0.0684  0.0782 -0.1777
23802W        W39611  17.061   6.640  13.519  0.0741  0.3007 -0.0423
23803W        W39612  16.658   5.297   3.873 -0.2955  0.0517 -0.0878
23804W        W39613  12.099   5.299   3.945 -0.0136 -0.0577 -0.1176
23805W        W39614   6.433  10.393   2.594 -0.5116 -0.1445 -0.2027
23806W        W39615   4.815   2.273  15.254 -0.1012  0.2656 -0.1547
23807W        W39616  14.456  17.988   2.576  0.1624 -0.0901  0.0390
23808W        W39617   1.520   3.904  12.871  0.1845  0.3747 -0.1614
23809W        W39618  17.111  11.679  13.463 -0.0053 -0.0256 -0.1115
23810W        W39619  14.227   0.148   6.178 -0.0539  0.1380 -0.0565
23811W        W39620   4.311  10.757  11.483 -0.0168 -0.1244  0.0117
23812W        W39621   6.475  16.340  14.284  0.1079  0.0628  0.3809
23813W        W39622   8.377   4.484   3.049  0.0210 -0.2870 -0.2822
23814W        W39623  12.627   0.537   5.524 -0.2513 -0.3632  0.3148
23815W        W39624  11.344   3.631  11.897  0.3902 -0.2515 -0.0920
23816W        W39625   6.149   2.208   4.127  0.1406 -0.1049 -0.1550
23817W        W39626  17.377  15.371   5.067 -0.3265  0.4493 -0.2051
23818W        W39627   7.887   7.700   1.988 -0.0672  0.0363 -0.1126
23819W        W39628   6.255   7.428   5.069  0.1694  0.0216 -0.4351
23820W        W39629  15.982  11.954  12.452 -0.0182  0.1270  0.2214
23821W        W39630   2.537  13.218  11.576  0.0403 -0.1771  0.0934
23822W        W39631  11.079  13.673   1.658  0.0405  0.0179  0.2232
23823W        W39632  17.928   0.113   4.122  0.3984  0.1064 -0.1745
23824W        W39633   8.308   1.185  12.542  0.2203 -0.1272 -0.0913
23825W        W39634   6.962   2.875   1.363  0.2451  0.0414  0.0041
23826W        W39635  17.296  17.260  12.600  0.1365 -0.2949 -0.2562
23827W        W39636  13.722  14.323   0.594  0.1342 -0.1658 -0.1938
23828W        W39637  13.524   7.587  12.475  0.4126 -0.2458  0.1263
23829W        W39638  14.828   5.576  14.947  0.0371  0.0079  0.2601
23830W        W39639   4.767   0.854  11.623  0.0740 -0.0618 -0.2117
23831W        W39640  11.275   8.236   1.377 -0.1096 -0.0100  0.2247
23832W        W39641   1.807   4.490  16.041  0.2251  0.0020  0.1330
23833W        W39642  16.262  10.271   2.500  0.0178  0.1773  0.0212
23834W        W39643  13.466  18.027   3.752  0.3091 -0.0492  0.1469
23835W        W39644  17.417  11.282  11.646 -0.0904  0.1510  0.0077
23836W        W39645  10.171   3.587  12.263  0.1513 -0.0535 -0.1480
23837W        W39646  16.311  13.663  14.929  0.0012 -0.0046  0.1193
23838W        W39647  12.321   3.220   0.788 -0.1680 -0.0785  0.0426
23839W        W39648  18.068   4.432  13.508  0.0160  0.1026  0.0856
23840W        W39649   3.854   5.768   2.594 -0.0489  0.0272  0.2157
23841W        W39650   6.180   6.667  13.982  0.0459  0.1606 -0.3301
23842W        W39651   9.128  16.845   2.553 -0.0237  0.2866 -0.0918
23843W        W39652  14.427  16.402   5.981 -0.0461  0.2136  0.0817
23844W        W39653  16.720  13.010   0.352 -0.2712  0.3210 -0.1800
23845W        W39654   4.819  16.336   0.708 -0.0978  0.0216  0.0698
23846W        W39655  14.902   2.829   3.179  0.2944  0.0439 -0.0287
23847W        W39656  13.546   5.777   1.376 -0.0876 -0.3927 -0.0340
23848W        W39657   6.926  15.525   1.516 -0.1569 -0.2008  0.1221
23849W        W39658   3.361   0.338  13.813 -0.0860 -0.2712  0.1002
23850W        W39659  12.628  12.140   3.871 -0.1971  0.1629 -0.3087
23851W        W39660   3.887   8.931  13.030  0.0467  0.1681  0.6619
23852W        W39661   0.473  17.459   5.366 -0.1268  0.2385 -0.3187
23853W        W39662  16.315   7.074  15.479  0.0406  0.2911  0.0615
23854W        W39663  16.330  17.015  15.949  0.2375 -0.0394 -0.1871
23855W        W39664  13.280   0.248   6.329 -0.2528  0.1305 -0.0117
23856W        W39665  11.469   4.459  12.556  0.3866  0.1297  0.0335
23857W        W39666  13.313  11.779  11.901 -0.0457  0.0174 -0.2187
23858W        W39667  13.613   9.845  13.303 -0.2748  0.2195  0.1730
23859W        W39668   9.983   1.699   4.879 -0.1618  0.1708  0.1163
23860W        W39669   4.831   2.994  14.687 -0.1252  0.1365  0.1398
23861W        W39670   5.688  13.953   4.246  0.1056 -0.1326 -0.1744
23862W        W39671   9.135   2.278  14.941  0.1102 -0.2979 -0.0287
23863W        W39672  11.645  16.317   1.203 -0.3515  0.1177  0.2754
23864W        W39673  11.935  16.456   5.340 -0.0522  0.1149  0.3868
23865W        W39674  14.478   0.014   4.205  0.0656  0.4595 -0.0539
23866W        W39675   7.201  15.175  13.727  0.0455  0.1964  0.0171
23867W        W39676  13.712   3.751  16.053 -0.1554 -0.2088  0.1000
23868W        W39677   4.706  15.095   5.408 -0.0138 -0.0311 -0.2256
23869W        W39678  11.306   0.628   1.182  0.2689  0.0412 -0.0823
23870W        W39679   7.884   8.508   1.493 -0.0781  0.1037  0.2218
23871W        W39680   0.329   4.865  12.279  0.1597  0.2700 -0.2726
23872W        W39681   3.380  13.702   4.201  0.0549 -0.3510  0.0604
23873W        W39682   5.258   5.894  15.854  0.0815 -0.1785 -0.0375
23874W        W39683  16.616   1.826  11.869  0.1831  0.1633 -0.0406
23875W        W39684  16.511   4.008  12.341  0.1178  0.0593 -0.1095
23876W        W39685  17.582  17.515   4.353  0.0482  0.4254  0.1726
23877W        W39686  15.664  15.837   4.161  0.1266  0.0916 -0.1667
23878W        W39687  14.145   9.100   1.007 -0.1412  0.1401 -0.1571
23879W        W39688   5.541  11.480   3.415  0.1006  0.2044  0.0404
23880W        W39689  16.668   7.924   0.658 -0.2356  0.2174  0.3303
23881W        W39690   7.417  13.600   2.697 -0.1030  0.2609  0.0898
23882W        W39691   7.619  13.183   4.717  0.1722  0.0249 -0.0351
23883W        W39692  11.029   5.925  15.906 -0.4127 -0.0088 -0.3234
23884W        W39693  16.966   4.468   4.469  0.2449 -0.0887  0.0157
23885W        W39694   5.701   8.872   0.012 -0.1054 -0.1432 -0.0239
23886W        W39695   3.154   0.556  11.580 -0.0705 -0.1876  0.1097
23887W        W39696  17.020   9.908   1.086  0.2299  0.0051 -0.2485
23888W        W39697  15.383   3.689   5.668 -0.1218 -0.1380 -0.1534
23889W        W39698   1.596   7.902   4.913  0.1230 -0.1132 -0.0134
23890W        W39699  17.977  18.067  10.862 -0.0909 -0.0022 -0.3596
23891W        W39700   4.010  16.250   4.952 -0.2793 -0.0174  0.1532
23892W        W39701  16.933   1.929   4.135  0.1526  0.2794  0.0648
23893W        W39702  10.939   8.073   2.245  0.0873  0.2205 -0.0596
23894W        W39703   9.843   2.798   0.298 -0.1503  0.0888 -0.1378
23895W        W39704   7.765   8.555   4.096 -0.0295  0.2652  0.0423
23896W        W39705   0.761  10.296   5.181  0.0559 -0.2397  0.0022
23897W        W39706   1.677  17.733   2.257  0.1170 -0.0509 -0.2410
23898W        W39707  17.044   1.435  11.762 -0.1469 -0.4544  0.2460
23899W        W39708  13.393   5.493  13.987  0.2889 -0.0299 -0.0153
23900W        W39709  14.590   3.776  12.898  0.0679 -0.0657  0.1057
23901W        W39710   3.270  17.165  15.790 -0.1534  0.3994  0.0300
23902W        W39711  16.774   1.954  16.020  0.2880 -0.2478  0.0227
23903W        W39712   7.255  17.319   4.846  0.0380  0.0583  0.0952
23904W        W39713  11.491  14.485  15.557  0.0309 -0.1217  0.1326
23905W        W39714   8.410  13.894   4.875 -0.0219 -0.0759 -0.0932
23906W        W39715   8.754   0.814   5.398 -0.4245  0.0974  0.0530
23907W        W39716   4.174  17.503   5.381  0.0288 -0.2980  0.0589
23908W        W39717   9.034  15.975  12.659 -0.3599 -0.1106 -0.0227
23909W        W39718  14.430   1.515   3.481  0.1306  0.0274 -0.2004
23910W        W39719   2.802   5.703  11.646 -0.2748  0.2044  0.1037
23911W        W39720   9.774  12.269   3.090 -0.0445 -0.4281 -0.0829
23912W        W39721  15.088  11.179  13.144 -0.0487  0.2882  0.0951
23913W        W39722   0.078  13.673   4.730  0.1314  0.0913  0.1427
23914W        W39723   9.603   7.876   2.926 -0.1209  0.0777 -0.2961
23915W        W39724   4.270  15.919   5.258  0.1440 -0.0756  0.2788
23916W        W39725   1.528   0.969  11.980 -0.1028  0.3316  0.0309
23917W        W39726   8.789   4.293  14.188 -0.0652 -0.0092  0.0667
23918W        W39727   1.998   4.689   0.741 -0.5366 -0.0374  0.0516
23919W        W39728  17.758   3.912   4.448 -0.1738 -0.2604 -0.0802
23920W        W39729   1.743   5.201   2.513  0.0617  0.1444 -0.1376
23921W        W39730   4.708   7.027  13.929  0.0418  0.1471  0.3129
23922W        W39731   1.130   0.663  12.596 -0.3189 -0.0858 -0.0182
23923W        W39732   2.129  13.456  11.872  0.4229 -0.1515  0.1657
23924W        W39733   4.590  12.222  15.605  0.0119 -0.0977 -0.1796
23925W        W39734   8.903  13.114  13.259 -0.2727  0.0263  0.1500
23926W        W39735  10.279  10.731  16.050 -0.0999  0.0033  0.1640
23927W        W39736  12.560   8.541  14.055 -0.2105 -0.2522  0.2054
23928W        W39737  12.832   2.543   4.377 -0.0756 -0.1413  0.1434
23929W        W39738  13.361   8.226   5.009  0.0490 -0.0500 -0.1306
23930W        W39739   2.181   9.059   1.329  0.0958 -0.0124  0.0895
23931W        W39740  10.701   8.294   1.574  0.1318  0.1198  0.0620
23932W        W39741  17.192   0.195   0.218 -0.0139  0.0773  0.1328
23933W        W39742  15.059  14.877  15.135  0.0457 -0.1110 -0.4551
23934W        W39743   4.155  15.054   4.137 -0.0278  0.0398 -0.1033
23935W        W39744  10.623  13.998   1.443  0.0169 -0.0927 -0.0449
23936W        W39745   7.101   8.576  15.265 -0.2041  0.0313 -0.0713
23937W        W39746  13.540  11.293  10.345 -0.0554 -0.0250  0.0660
23938W        W39747   7.511   7.062   1.841  0.0372  0.1867  0.2556
23939W        W39748   1.196   2.697   3.701 -0.3132 -0.0723 -0.1421
23940W        W39749  11.170  13.343   3.215 -0.0421  0.2433  0.2193
23941W        W39750   5.206   3.842   1.089  0.2218 -0.4025 -0.1035
23942W        W39751   7.659  11.230  13.354  0.0499  0.0569 -0.1560
23943W        W39752   8.113  14.769   2.547  0.1205 -0.1464 -0.1238
23944W        W39753   0.179   7.845   1.124 -0.1889  0.1285  0.4648
23945W        W39754   9.661   5.856   1.703 -0.0011  0.0821 -0.0496
23946W        W39755   7.488   9.664   0.245 -0.1900 -0.1409 -0.0025
23947W        W39756  10.321   3.064  11.995  0.3804 -0.1122  0.1719
23948W        W39757   1.315   2.790  12.665 -0.1561 -0.0893 -0.3978
23949W        W39758   9.909  16.560   0.926 -0.1321  0.1243  0.1180
23950W        W39759  13.070   1.423   4.235  0.0920 -0.1179 -0.0206
23951W        W39760   2.655  17.686   1.760 -0.2126  0.2261 -0.1098
23952W        W39761   2.932  17.823   4.372 -0.3318 -0.1140 -0.2487
23953W        W39762  12.231   3.136   5.161 -0.0044  0.1692 -0.1432
23954W        W39763   8.814   1.400  15.157  0.0843  0.0845 -0.2624
23955W        W39764  15.440  13.271  12.334 -0.0702 -0.5113 -0.0411
23956W        W39765  11.631  10.950   3.980  0.0258  0.0838  0.3145
23957W        W39766  17.212   4.813  11.482 -0.2769 -0.0714 -0.0943
23958W        W39767   6.225   3.296  11.504 -0.1838  0.1682 -0.2453
23959W        W39768  11.170   1.495  13.839  0.0061 -0.0110  0.1431
23960W        W39769  14.068  14.068  15.751  0.0339  0.0686  0.0020
23961W        W39770  15.876  12.420   2.581 -0.1384  0.1087  0.1420
23962W        W39771   0.430   6.495   3.421 -0.2194 -0.0100  0.1428
23963W        W39772   9.332   5.748   0.029  0.0793  0.1357 -0.1279
23964W        W39773   0.330  13.326   4.499 -0.0628  0.2920 -0.2861
23965W        W39774   8.338   4.464  13.466  0.2522  0.0285  0.0124
23966W        W39775   4.084   7.276   5.319  0.2305 -0.3661 -0.3348
23967W        W39776  13.230   6.404   5.042  0.3381  0.0190  0.1873
23968W        W39777   0.882  14.649  11.525  0.3598 -0.2970  0.1945
23969W        W39778  12.787  14.606   4.627 -0.0393  0.0881  0.2081
23970W        W39779   1.367   3.021   5.389 -0.2186  0.1224 -0.3148
23971W        W39780  12.126   8.509   3.686 -0.1265  0.2178 -0.0552
23972W        W39781  10.505   4.410   0.572  0.2767  0.1751  0.0597
23973W        W39782  16.884   8.419  12.653 -0.0108  0.2362 -0.1462
23974W        W39783   0.323   9.490  12.288  0.2026  0.1073 -0.0071
23975W        W39784   6.042   9.799  10.986  0.1302  0.1003  0.0588
23976W        W39785   9.356   4.341   4.248  0.3753 -0.0342  0.0309
23977W        W39786  14.386  14.662  13.745  0.0615  0.0765 -0.0122
23978W        W39787  13.290   5.611   4.727  0.5539  0.1002  0.2849
23979W        W39788   5.426   8.881   3.717  0.1893 -0.0967  0.2350
23980W        W39789   6.547  16.646   2.383  0.0619  0.0598 -0.1213
23981W        W39790  11.392   3.033   2.443 -0.1673 -0.1744  0.2850
23982W        W39791  16.767   9.647  15.927  0.0640 -0.0644 -0.1312
23983W        W39792  12.688   1.152  14.014 -0.1376  0.0296  0.3083
23984W        W39793   4.611   4.039  11.777 -0.1983  0.0485  0.0589
23985W        W39794  16.398  17.558  13.618  0.1358  0.1611  0.1296
23986W        W39795   6.051  17.950  11.919  0.3826  0.2240  0.0005
23987W        W39796   3.723   2.270   0.560  0.0675  0.1964  0.0285
23988W        W39797   6.187   1.087   4.177 -0.2033  0.1402  0.0247
23989W        W39798   3.340  13.181  15.039 -0.0899  0.3601  0.1837
23990W        W39799   2.880  13.503  15.187  0.3667 -0.2819  0.0329
23991W        W39800  13.094  17.556   0.451  0.1670  0.0250 -0.1484
23992W        W39801   1.408   9.854  12.942 -0.0922 -0.0462  0.2973
23993W        W39802   5.927  14.110  15.558 -0.1900 -0.1638  0.1411
23994W        W39803  15.641   7.902   3.908 -0.3002  0.1063  0.1530
23995W        W39804  10.557  14.785   5.020 -0.1227 -0.3015  0.2219
23996W        W39805   1.520   2.677  11.312 -0.1126 -0.2629 -0.0392
23997W        W39806   9.227  17.684   0.880  0.0224  0.0655 -0.1517
23998W        W39807   8.875   6.136   2.352  0.3204 -0.1244 -0.0232
23999W        W39808   9.510  17.927   3.153  0.2751 -0.1060 -0.1069
24000W        W39809  14.405   8.285  15.734 -0.3613  0.1011 -0.0483
24001W        W39810  10.307  16.307   1.823 -0.1433  0.1219  0.2817
24002W        W39811   2.804   2.450  14.721 -0.3177  0.0202  0.1456
24003W        W39812   2.554   1.504   1.033 -0.4229 -0.0309  0.1899
24004W        W39813   5.077   2.769  12.779  0.2197  0.0720  0.1307
24005W        W39814   1.587   1.690  12.297 -0.0861 -0.2259  0.1692
24006W        W39815   8.478  18.066  11.964 -0.2375 -0.1264  0.1580
24007W        W39816  10.468  16.600   1.137  0.3659 -0.0767 -0.1155
24008W        W39817   7.556   1.389  14.861  0.0193 -0.1410  0.2026
24009W        W39818   5.818   2.652   2.347  0.2386  0.2115  0.0562
24010W        W39819  12.376   6.293  13.140 -0.0612  0.1042  0.0880
24011W        W39820   4.292   3.525  15.798 -0.0196 -0.1202 -0.1160
24012W        W39821   8.543   5.784  13.397 -0.0183 -0.0251 -0.0874
24013W        W39822  15.273  17.531  13.473 -0.3036  0.0629 -0.0381
24014W        W39823  17.334   9.587  11.536 -0.0265  0.1342 -0.3923
24015W        W39824   0.652   7.854  10.630  0.3984  0.2794  0.0890
24016W        W39825   7.498  15.308  15.196  0.3594 -0.1526 -0.0108
24017W        W39826   8.584   5.512  14.188 -0.3781 -0.1739  0.2997
24018W        W39827  16.133   0.520   4.606 -0.0178 -0.2705  0.0859
24019W        W39828   7.908   9.888   1.506  0.4488 -0.2515  0.1664
24020W        W39829  17.587   7.673  13.956  0.2001  0.0490  0.0581
24021W        W39830  11.851   8.420  15.193  0.1301  0.0633 -0.5662
24022W        W39831  14.961  10.226   3.423  0.0381 -0.1150  0.1409
24023W        W39832  10.555  11.600  13.824  0.2876 -0.0480 -0.0710
24024W        W39833   0.823   5.759  13.074 -0.2732 -0.0154 -0.1099
24025W        W39834  16.272  16.693  11.213  0.1515  0.1395  0.1895
24026W        W39835  17.336   0.735   4.332  0.3692 -0.1051  0.2212
24027W        W39836   2.614   3.506   0.868 -0.3136  0.0524 -0.0987
24028W        W39837  12.582   8.884   2.014 -0.2634  0.2464 -0.2960
24029W        W39838  12.929  12.726  15.696 -0.1998 -0.2257 -0.1815
24030W        W39839   2.514  17.636   4.571  0.2046  0.3071 -0.2644
24031W        W39840   8.976  11.683  13.529 -0.1654  0.2551 -0.1322
24032W        W39841  13.817   7.531   0.070 -0.0718 -0.0494 -0.0391
24033W        W39842   2.596   1.160  15.184  0.1774  0.0752 -0.0480
24034W        W39843   6.643   6.701   0.237 -0.0493 -0.1367  0.0529
24035W        W39844   7.965   1.002   0.249 -0.2872 -0.0970  0.0078
24036W        W39845   1.698   0.123  13.097 -0.1009 -0.2521  0.2316
24037W        W39846   7.901   9.689   3.698 -0.0358  0.2492  0.0809
24038W        W39847  12.791  11.432  13.936 -0.0110 -0.1872  0.2489
24039W        W39848  12.299   8.961  15.970 -0.1806  0.2362 -0.2130
24040W        W39849   4.527  10.297  14.818 -0.0911 -0.0538  0.1310
24041W        W39850   3.141  13.562  14.700  0.0533 -0.0808  0.0967
24042W        W39851   3.145  15.973   5.334 -0.2417 -0.1250 -0.2074
24043W        W39852   9.785   7.951  11.580  0.3051 -0.1330 -0.2858
24044W        W39853   1.640   2.584   3.998  0.0246  0.1020 -0.0239
24045W        W39854   9.075  10.598   5.144  0.1277  0.3670 -0.0676
24046W        W39855   4.755  11.768  15.391  0.1187  0.1654 -0.1188
24047W        W39856   7.646  14.761   1.459  0.0137 -0.2060  0.3158
24048W        W39857   8.176   8.789  14.515 -0.1911 -0.0544  0.2067
24049W        W39858  10.218   7.517   4.608 -0.0465 -0.5272  0.2538
24050W        W39859  11.852  13.690   2.329  0.0509 -0.3914  0.3097
24051W        W39860   2.199  17.814  11.546  0.1556  0.2813  0.0642
24052W        W39861  11.908   6.902  11.531 -0.2074  0.0307  0.0914
24053W        W39862   8.351   5.951   5.276  0.0520 -0.4774  0.1444
24054W        W39863  15.127   4.397   2.688 -0.1374 -0.2503 -0.0506
24055W        W39864   1.706   5.682  10.811 -0.1012  0.0893  0.2697
24056W        W39865  10.554  12.636  12.725 -0.3693 -0.0228 -0.0332
24057W        W39866   7.747  17.138   0.736 -0.1712 -0.1454 -0.0051
24058W        W39867   8.532   9.306   5.060  0.0171  0.2289  0.1708
24059W        W39868   9.856   3.256   1.441  0.0968 -0.3686  0.0491
24060W        W39869  17.519  10.774  11.538  0.0019  0.1217  0.2369
24061W        W39870   5.480   9.894   1.784  0.3896  0.0215  0.0384
24062W        W39871   7.769  14.348   2.537  0.0931  0.1575  0.1140
24063W        W39872  17.581  16.786   4.902 -0.0379  0.2785 -0.0906
24064W        W39873   2.046   8.390  13.848  0.0914 -0.0149  0.2296
24065W        W39874  17.397  15.573  13.477  0.0566  0.2307 -0.1278
24066W        W39875   3.512  12.806  14.683 -0.1814  0.0138 -0.2126
24067W        W39876   6.506   4.982  11.754 -0.2873 -0.1729  0.0776
24068W        W39877   5.770   8.038  15.417 -0.1182 -0.0431  0.2926
24069W        W39878   5.721  10.364   1.921 -0.0752  0.0513 -0.0629
24070W        W39879  14.854   1.411  13.564  0.2352  0.0510 -0.3086
24071W        W39880  10.111  16.018   4.564  0.0954  0.1544 -0.2388
24072W        W39881  10.103   7.233   5.063  0.0669  0.1713  0.2575
24073W        W39882  15.439  16.712  14.591 -0.2311  0.1387  0.1067
24074W        W39883   9.704  11.414  14.117  0.1222  0.0841  0.1243
24075W        W39884   1.932   2.494  13.866 -0.2551 -0.2152 -0.1488
24076W        W39885   1.495   7.440   3.660 -0.0160 -0.0905 -0.0317
24077W        W39886   2.969   2.988  13.557  0.1722  0.1364 -0.1727
24078W        W39887   8.243  13.641   0.440  0.1281 -0.2771  0.1342
24079W        W39888   3.250   4.791   5.115 -0.0747 -0.0468  0.1996
24080W        W39889  11.789   6.799   2.321 -0.3670  0.0500  0.0220
24081W        W39890   4.110   7.392  11.110  0.1738 -0.1395  0.1454
24082W        W39891  13.476  12.440   1.549  0.0281 -0.0517  0.0114
24083W        W39892   0.596  15.790   1.545  0.2191 -0.0314 -0.2211
24084W        W39893   2.117  10.318   0.161 -0.1201  0.0129 -0.1832
24085W        W39894   5.339  13.157  10.176 -0.0539  0.0882  0.2964
24086W        W39895  18.021   1.649   0.300 -0.0012 -0.0544 -0.1488
24087W        W39896  10.193  12.263   2.691  0.1054 -0.0047  0.0440
24088W        W39897  11.293   8.734   5.648 -0.0560 -0.1248 -0.2436
24089W        W39898   0.626   2.988  13.861 -0.3487  0.0466  0.1078
24090W        W39899   2.425  15.948  13.425  0.1894 -0.0379  0.2312
24091W        W39900   7.041   6.067   0.582  0.0675 -0.0977  0.0645
24092W        W39901  17.198  18.037   3.273 -0.0226 -0.0990 -0.1714
24093W        W39902  12.257  17.838  13.208  0.2688  0.0387  0.2217
24094W        W39903   6.073   8.781  13.446 -0.1831 -0.1616 -0.0340
24095W        W39904  11.915  11.232   0.349 -0.1124 -0.2608  0.0931
24096W        W39905   9.048   9.367  15.338 -0.0103  0.0706  0.0941
24097W        W39906   4.553  12.823   0.631 -0.2029 -0.0540  0.1488
24098W        W39907  14.937  13.755  15.457 -0.0296  0.0687  0.0446
24099W        W39908   2.585  13.773   4.698  0.0703 -0.2940  0.0174
24100W        W39909  10.876   4.537  15.881 -0.0867 -0.1732  0.2287
24101W        W39910   8.257  13.073   3.615 -0.2661 -0.2155  0.0716
24102W        W39911   6.293   8.065   4.265  0.0141  0.2599 -0.4154
24103W        W39912   4.681  12.977   3.595  0.3069  0.1725  0.1745
24104W        W39913  17.723  13.005  12.461  0.2496 -0.0341  0.0083
24105W        W39914   9.038  17.497   0.448 -0.1858 -0.2480 -0.1898
24106W        W39915  17.897   0.149   4.903 -0.1686  0.1380  0.2026
24107W        W39916  11.566   5.820  15.048  0.3722 -0.1502 -0.0111
24108W        W39917  14.943   6.849   4.848  0.0222 -0.0329 -0.2015
24109W        W39918   2.079   0.458   0.007 -0.1000 -0.0888 -0.5287
24110W        W39919   6.332  13.616   1.658 -0.0841  0.0273 -0.0820
24111W        W39920  17.351  16.566  14.611  0.0824  0.1672  0.1733
24112W        W39921  18.237   6.461   3.629  0.2209  0.0363  0.2399
24113W        W39922   2.935   2.441   3.450 -0.1945 -0.0549  0.0446
24114W        W39923   1.245  17.811   1.394 -0.0032 -0.0616  0.0489
24115W        W39924   1.882   0.834  12.303  0.1806 -0.0072  0.0065
24116W        W39925  14.922  11.827   2.315  0.0587 -0.1236 -0.0900
24117W        W39926   8.528  17.957   2.543  0.1411  0.0328  0.1059
24118W        W39927  17.279  14.319   1.742  0.1308  0.0169  0.1420
24119W        W39928   6.467   2.826  11.591  0.0533  0.0057  0.2116
24120W        W39929   8.691   4.189   3.489  0.3545 -0.1085 -0.0454
24121W        W39930   0.501   9.981   0.800  0.0802  0.0826 -0.2938
24122W        W39931  17.992   2.189   1.478 -0.0620 -0.0688 -0.1669
24123W        W39932  13.277  11.321   1.790 -0.1628  0.2188 -0.0524
24124W        W39933  13.467   8.456   5.907 -0.0002  0.0264 -0.0588
24125W        W39934   1.932   8.551  12.101 -0.0524  0.0208  0.0449
24126W        W39935  13.715  13.935   3.877  0.1881 -0.1605 -0.1464
24127W        W39936   7.155   3.760  13.535  0.0733  0.0736 -0.0674
24128W        W39937   2.578  12.658  15.614  0.1901 -0.2573  0.0060
24129W        W39938  11.824   4.564   1.757  0.2734  0.1438  0.2910
24130W        W39939  17.990   2.252  13.479 -0.0263  0.2715  0.0530
24131W        W39940   4.398  15.337   5.103 -0.2348 -0.3734  0.0446
24132W        W39941   7.611  16.849   1.199 -0.0762  0.2298  0.0444
24133W        W39942   2.679  10.265   4.087  0.0142 -0.1097 -0.1188
24134W        W39943   8.601   7.739   2.752  0.1840 -0.1005  0.1524
24135W        W39944  13.401   3.280   4.100 -0.1333  0.3287 -0.1170
24136W        W39945   6.116   8.186   0.584 -0.0918 -0.0398  0.0504
24137W        W39946   7.894   5.587   4.193  0.0538 -0.0416  0.0338
24138W        W39947   0.323   3.826   0.578 -0.1202  0.2919 -0.1029
24139W        W39948   1.333  17.152   0.634  0.0793 -0.2325  0.0291
24140W        W39949  11.497  10.017   4.852  0.3067  0.2429 -0.0623
24141W        W39950   4.442   2.383   2.902 -0.0153 -0.0962  0.1176
24142W        W39951  16.692  15.946  12.274 -0.0575  0.3291 -0.1070
24143W        W39952   9.669   6.015   3.541  0.0211 -0.0715  0.0145
24144W        W39953   1.501   5.523  11.892  0.0282 -0.0772  0.3366
24145W        W39954  10.890  11.403   2.224 -0.2335  0.1919 -0.1164
24146W        W39955  15.735  15.059  11.778 -0.4047  0.0160  0.0070
24147W        W39956   2.924   1.185  13.729  0.3590  0.0959 -0.3797
24148W        W39957  13.654  12.885   3.934 -0.0779  0.0737 -0.0918
24149W        W39958   1.014  12.393  14.397  0.0931 -0.3004 -0.1289
24150W        W39959  10.259  11.316   1.700 -0.0337 -0.0199 -0.0315
24151W        W39960   8.922  12.498   1.094  0.1354  0.0610 -0.3847
24152W        W39961   5.371  10.859  14.834  0.1246  0.1885  0.1069
24153W        W39962   6.215   2.246  15.879 -0.0370 -0.1863 -0.0799
24154W        W39963  16.529  14.958  13.021 -0.2171  0.0958 -0.2554
24155W        W39964  11.704  12.457  10.405  0.2227  0.0810 -0.0936
24156W        W39965   0.649  11.970  14.338 -0.0990 -0.4966 -0.2784
24157W        W39966   7.066   2.734   0.411  0.2275 -0.0232 -0.1492
24158W        W39967  13.036   3.009   0.035 -0.0634  0.0604 -0.1522
24159W        W39968  15.761  14.639   3.499 -0.3729 -0.2841  0.0373
24160W        W39969   3.917   6.042  14.147 -0.1263  0.3604 -0.0765
24161W        W39970  17.737  16.127  14.519 -0.3080 -0.0188 -0.1178
24162W        W39971   5.468   3.942  14.138 -0.1837 -0.1619  0.2492
24163W        W39972  10.453  10.555   1.112  0.1051 -0.1328 -0.0263
24164W        W39973  18.069  14.970   1.343 -0.0466 -0.2207  0.0708
24165W        W39974   4.667   0.620   3.930  0.1022 -0.1605  0.0808
24166W        W39975   9.394   4.617  11.057 -0.1385  0.0853  0.0253
24167W        W39976   0.117  18.040   4.326  0.2486  0.1888 -0.3920
24168W        W39977  15.754   4.353  11.077  0.0336 -0.3389 -0.1619
24169W        W39978   4.265  14.677  12.413  0.1001  0.2906 -0.0338
24170W        W39979  13.052   2.869   0.549  0.0165 -0.0815  0.1293
24171W        W39980  15.728   0.560   2.138 -0.2919 -0.1805 -0.0047
24172W        W39981   6.737   0.344  10.246  0.2192  0.0350 -0.2015
24173W        W39982  10.104   8.360  11.710  0.4204  0.0397 -0.2954
24174W        W39983   0.638   3.577   1.609  0.1889  0.1262 -0.0670
24175W        W39984   2.566  10.569   5.449  0.1050  0.2540  0.0669
24176W        W39985  11.929  14.674   3.581  0.0352 -0.2062  0.2029
24177W        W39986   6.496   8.413  12.279  0.1490  0.2459 -0.1812
24178W        W39987   9.371  11.705   1.274  0.1896  0.5046 -0.4225
24179W        W39988   4.219   3.017   4.373  0.0632  0.2478 -0.0079
24180W        W39989   3.302   2.096  11.576 -0.1443 -0.2914 -0.1768
24181W        W39990   6.722  13.008   0.143  0.1648 -0.1657  0.0082
24182W        W39991   2.104   7.906   5.274 -0.0028 -0.1624  0.0255
24183W        W39992   5.267  18.218  14.325  0.2422 -0.2463  0.2402
24184W        W39993  14.196   7.277   1.526 -0.0240  0.1245  0.0542
24185W        W39994  10.838  16.531   4.735  0.2010  0.1001  0.0637
24186W        W39995  12.777  17.752   0.802 -0.2758 -0.3219  0.1191
24187W        W39996  14.527  13.379  12.009  0.2856 -0.0723  0.1856
24188W        W39997   8.015  12.822  15.669 -0.0668  0.1744 -0.1533
24189W        W39998   2.994   7.767   5.169  0.0034  0.1444  0.1062
24190W        W39999   5.630  11.551  11.224 -0.2286  0.1647  0.0432
24191W        W40000  10.397  10.774   2.586  0.2571  0.0335  0.2283
24192W        W40001  16.070  11.084   5.443  0.0019  0.1129  0.2397
24193W        W40002   4.811  16.084  14.583 -0.0828 -0.2776  0.0683
24194W        W40003   9.357  17.615  12.999 -0.1058 -0.0674 -0.1694
24195W        W40004  12.288   8.622   3.071 -0.2968  0.2996 -0.1175
24196W        W40005   7.317  15.040   2.962  0.1583  0.0289  0.3354
24197W        W40006  11.055   7.239   1.210 -0.2427 -0.3213 -0.2027
24198W        W40007   8.602  15.547   5.167 -0.0070 -0.1840 -0.4953
24199W        W40008  18.047  12.364  13.020  0.3242 -0.0527  0.0849
24200W        W40009  11.754   6.487   3.645 -0.2706  0.0394 -0.0150
24201W        W40010  14.563  17.421  13.894  0.2769 -0.4816 -0.0701
24202W        W40011  12.812  13.062   4.894  0.3622 -0.1402  0.1440
24203W        W40012  10.616  12.136  13.750  0.0755 -0.2619  0.0915
24204W        W40013   8.084  10.728   6.195 -0.0167 -0.1370 -0.2138
24205W        W40014   4.200   4.100  13.200 -0.1462 -0.0426 -0.1568
24206W        W40015   0.071  18.160   2.815  0.0134  0.2800 -0.0331
24207W        W40016   9.077  14.818  11.965  0.1224  0.2715 -0.1661
24208W        W40017  10.888   9.104  15.870  0.2724  0.1346  0.1712
24209W        W40018  13.922   7.905   2.049  0.1790 -0.0936  0.1249
24210W        W40019  14.377   9.505  14.647 -0.3012  0.1246  0.5616
24211W        W40020  16.775  10.552   5.088 -0.0534 -0.0725  0.1590
24212W        W40021   8.426   4.885  11.547 -0.1634  0.0280  0.1459
24213W        W40022  16.199  18.138   2.315 -0.0260 -0.0382  0.2413
24214W        W40023  12.545   1.621   3.391 -0.0411 -0.0642  0.1084
24215W        W40024  10.044  11.704  11.995 -0.0625  0.0625  0.3876
24216W        W40025   5.051  15.640   4.184 -0.0464 -0.1307 -0.1150
24217W        W40026  15.620   3.928  11.857  0.1725 -0.1846  0.3811
24218W        W40027   1.812   3.107   1.897 -0.0224  0.0219 -0.3062
24219W        W40028   9.644  12.926  12.374 -0.1807 -0.0190 -0.4073
24220W        W40029   6.671  15.034  13.628 -0.0848 -0.2544 -0.1320
24221W        W40030   0.874   7.079  12.308  0.2085 -0.1176 -0.0345
24222W        W40031   4.958  17.829   2.584  0.1641  0.1064  0.1024
24223W        W40032  11.290   0.891   5.859  0.2388  0.0389 -0.0201
24224W        W40033   3.301   6.728  12.793  0.2448  0.2190  0.0474
24225W        W40034   8.132   5.573  13.861  0.0593 -0.0713  0.2403
24226W        W40035   1.151   8.642   4.057 -0.1139 -0.2103 -0.3012
24227W        W40036   4.327  18.202  11.206 -0.1063  0.0225  0.1792
24228W        W40037   0.836  17.279  16.049 -0.1430  0.0849  0.2417
24229W        W40038  13.141   5.013  13.190  0.3102  0.0444 -0.0632
24230W        W40039   6.971   4.223  13.434  0.2203 -0.0461  0.0369
24231W        W40040  15.108   4.998   0.584 -0.0441  0.0457 -0.0254
24232W        W40041   5.812   2.538   4.374  0.0082 -0.0136 -0.0907
24233W        W40042  11.858  17.775  14.317  0.2451 -0.1189 -0.1158
24234W        W40043   6.729   1.143   2.537 -0.0259  0.3252 -0.1220
24235W        W40044   5.431  11.642   4.495 -0.3028  0.2080  0.2314
24236W        W40045   7.957   8.276   0.292 -0.0375  0.1403  0.0328
24237W        W40046  17.275  16.490   5.155 -0.0701  0.0165  0.1130
24238W        W40047  10.149  11.255  13.729  0.1130 -0.1424  0.4506
24239W        W40048   9.083   4.740   4.031 -0.1043 -0.2828  0.2179
24240W        W40049  16.213   6.528  15.456 -0.0518  0.1096 -0.2343
24241W        W40050   2.705  10.510  13.276  0.0271  0.0784  0.0634
24242W        W40051   1.602  13.482  12.100  0.0723 -0.2351 -0.2348
24243W        W40052  16.215   8.890  13.188  0.2737  0.0691 -0.2092
24244W        W40053   7.014  12.167  13.436  0.1457 -0.0120  0.1096
24245W        W40054  17.437  10.608  11.003  0.1737 -0.2824 -0.2692
24246W        W40055   4.198  13.448   0.890 -0.0220  0.2943  0.1484
24247W        W40056   3.946   6.128   2.198  0.0979 -0.0450  0.1099
24248W        W40057   0.722  17.301  10.588 -0.1627 -0.1503 -0.0490
24249W        W40058  15.340   6.323   3.004  0.3095 -0.0733 -0.2063
24250W        W40059  15.846   9.541   3.049  0.0308  0.0866 -0.2071
24251W        W40060   2.896  12.414   4.442 -0.1558  0.1107  0.0448
24252W        W40061   9.369  17.607   0.078 -0.2168 -0.2013  0.3669
24253W        W40062   6.521   1.608   2.304  0.0598 -0.0421 -0.0366
24254W        W40063   9.366  13.451  13.729 -0.1192 -0.1656  0.1776
24255W        W40064  15.726   7.744  11.488  0.2092 -0.0585  0.3282
24256W        W40065   3.094   7.010  11.950  0.1552  0.0526  0.0767
24257W        W40066   6.114  10.082  13.799  0.1606 -0.1230 -0.0692
24258W        W40067   9.797   3.997   0.825  0.0813  0.1471 -0.0472
24259W        W40068   4.672  13.874  13.856  0.0765  0.1574 -0.1473
24260W        W40069  17.859   5.445   3.913  0.1628 -0.0628 -0.1105
24261W        W40070   1.307   4.326   1.574 -0.2192 -0.1136  0.2032
24262W        W40071  15.840   3.837   5.393 -0.2852 -0.0007 -0.0731
24263W        W40072  15.433  17.388  15.685 -0.0687  0.3227 -0.0815
24264W        W40073  12.543   1.618   5.657  0.0271 -0.0198 -0.1389
24265W        W40074  14.200   0.101   0.284 -0.3109  0.1758  0.0688
24266W        W40075   6.153   7.167   6.008 -0.0423  0.2786 -0.0730
24267W        W40076   5.769  12.622   5.448  0.1118 -0.1101  0.2300
24268W        W40077  10.771   9.123   0.638 -0.4677 -0.0628 -0.1699
24269W        W40078  13.703   4.844   3.035  0.3119 -0.0261 -0.0924
24270W        W40079   0.614   0.188   1.084  0.0826  0.0799  0.0317
24271W        W40080   2.405   2.461   1.388 -0.0969 -0.2333  0.2374
24272W        W40081  15.454   2.012   3.720 -0.2597 -0.0174  0.2806
24273W        W40082   0.770  17.734   1.993  0.0993  0.1006  0.2139
24274W        W40083  13.356  12.160   1.123  0.1378  0.2452  0.1266
24275W        W40084  11.301   0.722   0.571 -0.1032 -0.0458  0.0240
24276W        W40085  13.844   8.916   2.366 -0.1087 -0.0022 -0.0192
24277W        W40086  13.897   9.041   4.104  0.0642  0.1023  0.5392
24278W        W40087   2.067  11.557   4.467  0.0047  0.0772 -0.0620
24279W        W40088  10.481   1.022   5.539 -0.1023  0.0785 -0.0101
24280W        W40089  17.809   4.255   2.982  0.0581 -0.1812 -0.2308
24281W        W40090   2.382   6.785   0.138 -0.0875  0.1571 -0.3792
24282W        W40091  11.481   6.966   0.584  0.0758  0.1802 -0.1033
24283W        W40092  13.813   9.495   2.215 -0.0286  0.1133 -0.0734
24284W        W40093   3.693   7.683  11.033 -0.0084 -0.1618 -0.0685
24285W        W40094  14.786   2.439  13.633  0.2599 -0.2947 -0.2011
24286W        W40095   5.824  12.293  11.113  0.1002 -0.3075 -0.0227
24287W        W40096  15.660   9.156   2.158 -0.0242 -0.0068 -0.2511
24288W        W40097  15.002   7.877  11.094 -0.1041 -0.0521 -0.1075
24289W        W40098   6.138  14.740  14.806 -0.2869 -0.1295  0.2310
24290W        W40099   2.691   3.149  15.767  0.3567  0.2163 -0.1454
24291W        W40100  12.378  14.115  13.919  0.2043 -0.1568 -0.0860
24292W        W40101   4.008  17.728   0.059 -0.2628  0.0117  0.0752
24293W        W40102  10.676   6.516   0.709 -0.3042  0.1487  0.1500
24294W        W40103   2.892   6.235   0.741  0.0331 -0.2484 -0.0521
24295W        W40104  10.474  16.610   5.333 -0.0218 -0.0177 -0.0667
24296W        W40105  13.933   1.763  16.029 -0.3943 -0.3111 -0.1360
24297W        W40106   2.721   1.149  14.671  0.2966  0.2548  0.1265
24298W        W40107   8.989   6.897   0.817 -0.0579  0.0692  0.1263
24299W        W40108   3.844  14.927  14.659  0.0108  0.0545 -0.0889
24300W        W40109  16.444   2.413  12.287 -0.1076  0.2232  0.1778
24301W        W40110   3.468   2.669  13.007 -0.1017 -0.0598  0.0167
24302W        W40111   2.489  13.165  11.045 -0.1544  0.2703  0.1618
24303W        W40112  12.848  17.262   0.094  0.0817  0.3926  0.1034
24304W        W40113   1.815   5.578   3.388 -0.2840  0.3192 -0.1529
24305W        W40114  12.144   1.643   4.169  0.1498  0.0473 -0.0154
24306W        W40115  10.186   7.723   1.123 -0.0088  0.2384 -0.0742
24307W        W40116   3.581   2.938   3.023  0.1916  0.0721  0.1215
24308W        W40117   9.064  17.762   3.359  0.0486  0.4217 -0.2681
24309W        W40118   3.395  17.795   1.065  0.1881 -0.0475 -0.1045
24310W        W40119  11.032  15.104  13.226 -0.0645 -0.0884 -0.3109
24311W        W40120  17.360   5.067  15.227  0.0442 -0.2685  0.2917
24312W        W40121   8.614   0.331  13.623  0.0375  0.0880 -0.3089
24313W        W40122   8.480   9.233   4.212 -0.0485 -0.4006 -0.0408
24314W        W40123  13.705  10.075  14.291 -0.3332 -0.1540 -0.0518
24315W        W40124  12.034   5.282   5.666  0.0859 -0.0128  0.0997
24316W        W40125  12.497   5.912   5.077  0.1803 -0.3920  0.0347
24317W        W40126  15.508  11.783   2.131 -0.1130 -0.1340 -0.1936
24318W        W40127  14.772   4.910  12.051 -0.1523  0.1015 -0.2747
24319W        W40128   6.557   0.647  14.819  0.3340  0.0808 -0.3273
24320W        W40129   6.137   6.633  15.604  0.0271  0.1403 -0.2171
24321W        W40130   6.865   1.452  14.159  0.0667  0.2460 -0.0744
24322W        W40131   7.733  15.840   1.076 -0.2659 -0.0116  0.1608
24323W        W40132  15.067  14.263  11.172  0.2291 -0.1297 -0.2070
24324W        W40133  18.158   6.061  13.043 -0.0531 -0.0028  0.0141
24325W        W40134  12.163   6.470  11.708  0.1017  0.0136 -0.2255
24326W        W40135  10.413   4.084   6.007  0.1166 -0.4582  0.2456
24327W        W40136   0.483   3.328   4.999 -0.1551  0.0558  0.2549
24328W        W40137  15.230  17.628  14.660 -0.0453 -0.1430 -0.0669
24329W        W40138   3.458  13.247   2.960  0.0242 -0.0277  0.1165
24330W        W40139  16.954   3.390  11.422 -0.0383 -0.0822 -0.0353
24331W        W40140  10.202   1.989   3.277  0.1147 -0.1143  0.2198
24332W        W40141  13.759  16.062  12.135 -0.2054 -0.1188 -0.4611
24333W        W40142   8.758   1.897   4.577  0.0722  0.1555 -0.0360
24334W        W40143  10.887   3.972   3.667  0.0200 -0.3023  0.2866
24335W        W40144  11.644   4.674   1.319  0.0517 -0.2280  0.1982
24336W        W40145  12.915  11.404  11.272 -0.1328  0.0256 -0.1331
24337W        W40146   4.534   7.257   0.764  0.1451 -0.0905 -0.2173
24338W        W40147  14.814  12.685  13.676  0.1062  0.1440  0.2816
24339W        W40148   1.850  15.253   4.566  0.1667  0.0591  0.0552
24340W        W40149   9.283  16.070   1.827 -0.1486 -0.1216 -0.2200
24341W        W40150  14.968   2.088   1.846 -0.1083 -0.1217 -0.2976
24342W        W40151  12.793  10.105  12.084  0.1639 -0.0046  0.0772
24343W        W40152  14.421  17.200  10.954 -0.0311  0.3214 -0.2144
24344W        W40153   6.106   0.580   0.633  0.1011 -0.2242  0.2738
24345W        W40154   4.041   5.347  12.426  0.1867  0.0865 -0.3514
24346W        W40155  14.605  17.304  12.345 -0.0707  0.0335  0.2952
24347W        W40156  17.451   5.761   4.122 -0.0902 -0.2051  0.0925
24348W        W40157   4.303   7.951   4.035 -0.2115  0.0256  0.0092
24349W        W40158   7.398   4.200   5.374 -0.0232  0.2098 -0.1089
24350W        W40159  17.120  13.361   3.805  0.2029  0.2141  0.0560
24351W        W40160  13.643   6.452  15.134 -0.0404 -0.1408 -0.1763
24352W        W40161   3.995  16.161  15.098  0.1068  0.0841 -0.0461
24353W        W40162  13.977  10.385  11.862  0.3000  0.0052 -0.0222
24354W        W40163  13.779  17.071   1.373  0.2387 -0.1117 -0.3185
24355W        W40164  10.277  11.649  10.819  0.2428 -0.2335  0.0492
24356W        W40165   9.669   0.611  11.964  0.0306 -0.0007  0.0511
24357W        W40166  13.154  10.064  14.510  0.2834  0.2171  0.0681
24358W        W40167   1.757  16.517   4.503  0.0291  0.3383  0.1393
24359W        W40168   0.493   2.850  13.412  0.1239  0.3943  0.0484
24360W        W40169   1.675  11.103   2.572  0.0767  0.1293 -0.2858
24361W        W40170   3.632   7.204   0.241  0.1921  0.1520  0.4236
24362W        W40171   8.747  10.830   1.982 -0.3418  0.1426 -0.0191
24363W        W40172  16.128  15.221  15.144  0.0962  0.1017 -0.0369
24364W        W40173   3.238   4.143   1.440  0.0947 -0.2136 -0.3371
24365W        W40174   2.496   9.504  10.553  0.0237 -0.2015  0.0157
24366W        W40175   9.713   1.358   0.799 -0.1964 -0.0047  0.1358
24367W        W40176   6.820  10.804   0.083  0.2741  0.0566  0.3252
24368W        W40177  13.645   6.238  10.127 -0.0123 -0.3938  0.0202
24369W        W40178   0.515   2.162  14.171  0.2902  0.1720  0.2348
24370W        W40179   6.325   0.763   1.079 -0.0489  0.0381 -0.0078
24371W        W40180   1.423   6.740  13.968 -0.0798 -0.1180 -0.0769
24372W        W40181   7.045   2.304  15.527  0.0473 -0.3162 -0.1584
24373W        W40182   2.980   2.566   2.149 -0.0618 -0.0938  0.1309
24374W        W40183   3.966  13.834  11.279 -0.3475  0.1272  0.0842
24375W        W40184  11.609   4.326  13.029  0.0580 -0.0477  0.1276
24376W        W40185  13.919  15.126   5.661  0.1215 -0.1049  0.1255
24377W        W40186   7.202   1.135  13.359  0.1159  0.0585 -0.2724
24378W        W40187  16.809  17.255  13.388  0.1738 -0.0249 -0.1423
24379W        W40188  11.618   3.931   4.840  0.0000 -0.2535  0.0177
24380W        W40189  16.698  14.355  11.598 -0.1628  0.4111 -0.2373
24381W        W40190   7.887  12.730   0.311 -0.1487 -0.2121  0.0761
24382W        W40191  15.370   9.773  14.285 -0.3917  0.0847 -0.1024
24383W        W40192  15.701   8.372  13.713  0.1452 -0.0499  0.0172
24384W        W40193   6.562   0.472  11.924 -0.1112  0.1312  0.1904
24385W        W40194   7.122   6.831   1.602  0.0707  0.0531  0.1493
24386W        W40195   9.652  16.230   3.159 -0.0653 -0.0719  0.5532
24387W        W40196  10.305  16.895   3.257  0.0861 -0.0089 -0.0636
24388W        W40197  13.221   1.626  15.602 -0.1487  0.3087  0.2266
24389W        W40198  11.092  13.991  14.792 -0.1861 -0.1581  0.2832
24390W        W40199   9.515   9.686  12.165  0.1121  0.1068  0.1784
24391W        W40200  15.898   3.855  15.210  0.0391  0.0707 -0.3082
24392W        W40201  15.976   8.995  11.651  0.0017 -0.1030 -0.0055
24393W        W40202  17.954  17.323  14.920  0.3627  0.3179  0.3334
24394W        W40203   6.324   8.028   2.478  0.2657 -0.0873 -0.0470
24395W        W40204   3.408   9.888  12.824 -0.2049 -0.0911 -0.0517
24396W        W40205   8.740   3.412  11.621 -0.2169  0.0105  0.0420
24397W        W40206   5.066   2.186  14.425  0.2906 -0.2819  0.0106
24398W        W40207  15.130  16.668  12.514  0.2813 -0.1772 -0.3106
24399W        W40208   7.001  13.460   2.041 -0.2177  0.2294  0.1842
24400W        W40209   7.458   9.941   2.470 -0.1912 -0.0084 -0.2548
24401W        W40210   8.938   0.381   3.029  0.2598 -0.2179  0.1744
24402W        W40211  17.123  18.258  12.072  0.1154 -0.1507  0.2101
24403W        W40212   7.762   1.094   4.456 -0.0632  0.0547 -0.1424
24404W        W40213   4.009   7.176   2.758  0.1143  0.1263  0.0438
24405W        W40214   9.954  14.111   2.290 -0.1133  0.2288 -0.1091
24406W        W40215   6.893   7.855   0.860 -0.0227 -0.0111 -0.1257
24407W        W40216  16.055  16.669  11.620 -0.0160 -0.0685  0.1011
24408W        W40217  17.416   1.028   3.951  0.1165  0.2520  0.0987
24409W        W40218   2.303   4.725   5.879 -0.0747 -0.1483 -0.2047
24410W        W40219  14.470   6.671  11.609 -0.1231 -0.2749 -0.0606
24411W        W40220  13.209   1.053  15.702  0.0081  0.0714 -0.1203
24412W        W40221  17.397  14.984  15.095 -0.1054  0.0186  0.0723
24413W        W40222  11.786   4.000  14.716  0.1604 -0.0131 -0.4696
24414W        W40223  14.344  17.872   3.890 -0.0621 -0.1539 -0.1437
24415W        W40224   5.107  10.435  15.704 -0.1622 -0.1327 -0.0883
24416W        W40225   3.683  10.836   2.469 -0.2755 -0.0843 -0.2108
24417W        W40226  17.158  12.776   0.574  0.2002  0.0030  0.0979
24418W        W40227  15.743  11.927  11.691 -0.0315 -0.2254  0.1946
24419W        W40228   8.871   0.104   0.509  0.1649 -0.1410 -0.1794
24420W        W40229  17.726  16.311  12.789  0.4625 -0.1595  0.3274
24421W        W40230   6.585   0.732   0.168  0.0034  0.2531 -0.1672
24422W        W40231   8.599   6.792  14.311  0.0775 -0.3299 -0.0832
24423W        W40232  14.993   6.393  14.117  0.0681  0.1399  0.1991
24424W        W40233   7.710   3.560  16.012 -0.1549 -0.2415 -0.0015
24425W        W40234   1.290   4.714   2.428 -0.2763  0.2823 -0.1609
24426W        W40235   4.785   2.700   3.216 -0.0804 -0.1597  0.0897
24427W        W40236   8.581   2.629   2.961  0.3998  0.3618 -0.1025
24428W        W40237   4.948  15.874   5.544  0.1271  0.1478 -0.1881
24429W        W40238   4.826   4.110   3.855  0.1011  0.3271  0.1855
24430W        W40239  12.369   9.025  13.801 -0.0623  0.0557 -0.1070
24431W        W40240  11.275   6.914   3.525  0.1623  0.2985  0.0180
24432W        W40241  14.619   6.573   0.923  0.1563 -0.1148 -0.1412
24433W        W40242   7.986  13.166  11.725  0.2953  0.1808 -0.3410
24434W        W40243   5.398   7.954   3.030 -0.0458 -0.0726  0.0731
24435W        W40244   6.665   8.477   0.146 -0.0908  0.2369  0.2349
24436W        W40245  13.592   8.268  15.176 -0.0044 -0.0529  0.0073
24437W        W40246   1.566   5.772  15.541  0.5125 -0.0307  0.0584
24438W        W40247   3.593  17.844   0.318 -0.0555 -0.1008  0.0429
24439W        W40248  15.842  12.020  13.752 -0.2617  0.1947  0.0382
24440W        W40249  15.781   8.786  11.242 -0.0723  0.1154  0.4960
24441W        W40250   6.029   2.142   5.299  0.0986  0.3075 -0.1214
24442W        W40251   4.998   2.510   0.655  0.1506 -0.1084  0.4031
24443W        W40252   3.844  11.709   1.636  0.3754 -0.2360  0.1045
24444W        W40253   7.857  10.047   4.161  0.0195 -0.0040 -0.0792
24445W        W40254   9.020   6.555   0.238  0.1165  0.0897  0.0517
24446W        W40255  16.025  14.042  15.528 -0.1156  0.1124 -0.0415
24447W        W40256   3.076  14.406  11.379  0.1757  0.0854  0.0160
24448W        W40257   2.479   3.078   4.216  0.0366 -0.0529  0.1987
24449W        W40258   2.082  11.914   2.605 -0.0013 -0.1605 -0.3683
24450W        W40259   2.285   2.583  11.793  0.0669  0.2385  0.1127
24451W        W40260  10.451   1.477   1.044 -0.0128 -0.0565  0.0787
24452W        W40261   6.234  12.608   3.946 -0.0460  0.1520  0.1572
24453W        W40262   9.028   0.937  12.948 -0.0500 -0.4287  0.0644
24454W        W40263   5.051   0.347   4.130  0.0923  0.0504 -0.0518
24455W        W40264  14.247   7.520  15.626  0.0952  0.0995  0.3458
24456W        W40265   4.057  16.523  12.705  0.2630 -0.1365 -0.1601
24457W        W40266  17.133  10.421  11.462 -0.0041  0.0083  0.0025
24458W        W40267  14.130   6.526  13.840  0.0800  0.0765 -0.1972
24459W        W40268   9.069  12.242  12.681 -0.0859 -0.1012 -0.0794
24460W        W40269   3.694  18.012  12.042 -0.2095  0.2856  0.1053
24461W        W40270  12.759  17.007   2.319 -0.0012  0.0488  0.1856
24462W        W40271   0.127   7.559   0.650  0.1085  0.0356  0.2018
24463W        W40272   8.123  14.746  13.612 -0.0855  0.0948 -0.0593
24464W        W40273   8.118   4.351   2.515  0.1794  0.0244  0.0097
24465W        W40274  10.690  16.025  15.305 -0.1302  0.2541 -0.0936
24466W        W40275  14.121  12.807  12.530 -0.0512 -0.0818  0.2174
24467W        W40276   4.995   0.102  11.666  0.0127 -0.2022  0.1764
24468W        W40277  12.394   7.399  14.380  0.0674  0.0447  0.1789
24469W        W40278  15.463   8.519   1.982 -0.2220 -0.3506  0.2434
24470W        W40279  10.992  18.244   0.393 -0.2366  0.0634 -0.2010
24471W        W40280   6.216   0.371  13.224 -0.1674  0.0629  0.2108
24472W        W40281   4.749   8.402  10.938  0.0231  0.0151 -0.0441
24473W        W40282   0.007   4.649   4.812 -0.0049  0.0223 -0.1443
24474W        W40283   3.593   5.633   4.448 -0.0409  0.1723 -0.0720
24475W        W40284   2.822  11.314  15.069  0.1290  0.0810 -0.0089
24476W        W40285   3.823   9.490   4.538  0.2185 -0.2421 -0.0074
24477W        W40286  15.066  11.882   1.861  0.0469  0.0310 -0.0229
24478W        W40287  13.452   8.682  14.885  0.1075  0.1262 -0.0315
24479W        W40288  10.427  18.244   4.783 -0.0960  0.0521  0.1779
24480W        W40289   8.959  17.636   6.026 -0.1598 -0.0666 -0.2212
24481W        W40290   2.594   6.671   9.864 -0.2136  0.2240  0.0074
24482W        W40291  10.650  14.202  13.717  0.1902  0.3937 -0.1271
24483W        W40292   9.756   2.772  14.053 -0.0741  0.2158  0.0425
24484W        W40293  13.679   8.371  11.725  0.2789 -0.0120 -0.1544
24485W        W40294   3.938   0.358   1.353 -0.2374 -0.0261 -0.0479
24486W        W40295   9.554   6.204  16.047  0.1854 -0.2417  0.0190
24487W        W40296   8.020   9.880  10.641  0.2433  0.0564 -0.1205
24488W        W40297  13.644   8.921   3.350  0.0726 -0.0474  0.2329
24489W        W40298   5.009  13.669   5.215 -0.0331  0.0162 -0.1618
24490W        W40299   2.716   6.522  15.172  0.1571  0.2468  0.0495
24491W        W40300  16.154   5.091  10.827 -0.0168  0.0112 -0.0405
24492W        W40301  11.850  13.748  15.019 -0.0911  0.1214  0.0424
24493W        W40302  10.146  16.379  14.058 -0.2544  0.2274 -0.3563
24494W        W40303   6.527  11.204  15.991 -0.0949 -0.2551  0.0802
24495W        W40304   9.278   5.266  13.617 -0.0785 -0.0422 -0.3265
24496W        W40305   3.136   4.208   2.951 -0.0859  0.2293 -0.1491
24497W        W40306  13.384   0.989   5.516 -0.1956 -0.0964 -0.2569
24498W        W40307   8.275   9.448   9.415 -0.1938  0.1299  0.0339
24499W        W40308   0.165   5.851   1.430 -0.0108  0.1278  0.1773
24500W        W40309  16.748   4.676  14.907 -0.2208  0.0286 -0.0304
24501W        W40310  14.704   2.257  15.441 -0.5904  0.0891 -0.1044
24502W        W40311   3.751   3.306   2.234 -0.1853 -0.0945 -0.0335
24503W        W40312   8.581  16.610   0.295  0.1641 -0.0295  0.1203
24504W        W40313  10.948  14.777  11.727  0.1906 -0.1183  0.1889
24505W        W40314  14.060   6.559   1.540 -0.2727 -0.0441  0.1423
24506W        W40315  10.396   9.961   3.030 -0.1283  0.0894 -0.2907
24507W        W40316   0.312  13.951   3.984  0.0968  0.1108 -0.2115
24508W        W40317   4.164   7.849  14.691  0.0960  0.1881  0.1852
24509W        W40318   6.705  11.916   6.090 -0.2461  0.1274  0.1872
24510W        W40319   1.791   1.386  11.999  0.1727 -0.0747  0.1056
24511W        W40320   1.687   8.498   2.504  0.1150 -0.0407  0.3179
24512W        W40321  16.918  10.199  13.455 -0.0815 -0.1841 -0.3197
24513W        W40322   1.411  11.128  12.063 -0.1975  0.1802  0.0280
24514W        W40323   2.568  15.884   4.401  0.0011  0.0478  0.2566
24515W        W40324  11.824  16.759  11.300 -0.1188  0.0515 -0.0169
24516W        W40325   7.532  10.065   3.600  0.1591  0.1008 -0.0248
24517W        W40326   0.276  13.808  12.800 -0.0208 -0.1975  0.0795
24518W        W40327   0.713  15.007   2.798  0.0984  0.1230 -0.1039
24519W        W40328   1.376  13.297   4.544 -0.1310  0.2739 -0.1823
24520W        W40329   1.911   8.663   1.144  0.2199 -0.3313 -0.1962
24521W        W40330   5.965   4.662  10.301 -0.1922  0.2092  0.2793
24522W        W40331  14.822   1.065  14.008  0.0612 -0.0202 -0.1164
24523W        W40332   8.155  12.602  14.836  0.1406  0.1574  0.2745
24524W        W40333  11.058  17.914  15.415  0.0490  0.0924 -0.1341
24525W        W40334  12.762  14.154  12.891 -0.0630 -0.3678 -0.3925
24526W        W40335   2.476   5.605  12.799  0.1421  0.0881 -0.3772
24527W        W40336   2.556  17.447   0.211  0.2217 -0.1235 -0.0540
24528W        W40337   3.854   0.843  13.057  0.3588 -0.2354  0.0220
24529W        W40338  12.483  16.388  14.637  0.0765 -0.1038  0.0790
24530W        W40339   4.939   3.406   4.505  0.0118  0.2177  0.0776
24531W        W40340   1.964  12.540  13.813 -0.0553 -0.1771  0.0544
24532W        W40341   7.054  13.110  14.270  0.0595  0.0869  0.0273
24533W        W40342   8.584   3.883   2.551 -0.2638  0.0203 -0.0692
24534W        W40343   6.503  13.701  14.874 -0.2195 -0.3196 -0.2860
24535W        W40344   4.971   3.021  14.223 -0.0626  0.0670 -0.1090
24536W        W40345  16.171   9.535   3.880 -0.1073 -0.0506 -0.1680
24537W        W40346  16.681   8.869   4.064 -0.1060 -0.4237 -0.3075
24538W        W40347   4.441  13.598   0.409  0.2227  0.0491  0.0074
24539W        W40348  16.160  11.090  11.877 -0.3377  0.2849 -0.1746
24540W        W40349  13.970  14.299  11.222 -0.3283 -0.0545  0.1770
24541W        W40350  14.555   1.815  11.526 -0.1110  0.0389 -0.0011
24542W        W40351   7.987  17.898   2.479  0.0623 -0.1930  0.1168
24543W        W40352   6.752  11.182  12.283  0.1933 -0.1508 -0.1474
24544W        W40353  15.036   4.793  14.432  0.2271 -0.0654  0.0783
24545W        W40354  10.058  10.175  11.738  0.0338 -0.1640  0.3769
24546W        W40355  16.169  12.225   3.475  0.1048  0.2834  0.1047
24547W        W40356   7.664  14.932   4.083 -0.1357 -0.0584  0.3327
24548W        W40357  13.165   0.117  13.383 -0.4160  0.0200 -0.0719
24549W        W40358   4.970  10.597  14.891 -0.0460  0.1762  0.1190
24550W        W40359   0.633  16.371  10.875 -0.1004 -0.1354  0.1030
24551W        W40360  17.544   3.206   0.344 -0.0810  0.1424 -0.3881
24552W        W40361  11.296   0.248   5.812 -0.0351  0.3241 -0.0720
24553W        W40362   6.870  17.066  15.228 -0.0456  0.3860 -0.1803
24554W        W40363   2.893   0.188  10.362  0.3459  0.1458  0.0541
24555W        W40364   3.931   9.979   0.056  0.1074 -0.0184 -0.1825
24556W        W40365  12.163  14.881  14.505 -0.0333 -0.0573 -0.0530
24557W        W40366  10.102   1.563   3.637 -0.2445  0.0170  0.0470
24558W        W40367   5.322  12.768   1.723 -0.0434 -0.1023 -0.2450
24559W        W40368   1.151   0.579   0.008 -0.2469  0.3073 -0.1045
24560W        W40369   3.015   8.972  11.258  0.0764 -0.0577  0.2888
24561W        W40370   6.720   7.234   2.490  0.3095  0.0670  0.0653
24562W        W40371  16.553  16.692  13.607  0.0998  0.0048 -0.0205
24563W        W40372   9.302  12.351   2.482  0.0569 -0.0292  0.0285
24564W        W40373  15.330  12.838   5.635 -0.0586 -0.2644  0.0619
24565W        W40374   2.199   6.404   2.580 -0.0137 -0.0457  0.3144
24566W        W40375   3.400   2.304  15.007 -0.0775  0.2298  0.1110
24567W        W40376   9.787   1.760   1.080 -0.3148 -0.0362  0.0917
24568W        W40377   7.885  12.906   3.876  0.1139 -0.3634 -0.0178
24569W        W40378   1.877  13.028   2.975 -0.0325 -0.2147  0.0360
24570W        W40379   4.790   0.368   1.775  0.1214 -0.2085 -0.0994
24571W        W40380   1.666   2.853   0.016 -0.0150  0.0897 -0.2587
24572W        W40381  15.924   9.882  12.780 -0.2866 -0.0564 -0.2749
24573W        W40382   4.234   4.854   1.277  0.1126  0.0175 -0.2404
24574W        W40383   6.670  11.061   4.939  0.0981  0.1561  0.1262
24575W        W40384   2.202  15.235   1.121 -0.1624 -0.0775  0.0756
24576W        W40385  12.789   1.527   5.211  0.2175 -0.0019  0.3334
24577W        W40386   3.047  16.811  12.582  0.2787  0.0474 -0.0180
24578W        W40387  10.733  10.502  14.598 -0.3304  0.1165 -0.1949
24579W        W40388   4.769   6.336  11.726 -0.1516 -0.0613 -0.0738
24580W        W40389  10.726   0.012   4.308 -0.2413 -0.0231 -0.0413
24581W        W40390   3.230  13.718  15.869 -0.1710  0.0232  0.0429
24582W        W40391  14.924  16.080   3.842  0.1266 -0.0004  0.1848
24583W        W40392  14.174   2.241   3.822  0.2589 -0.2238 -0.1446
24584W        W40393   7.697   2.519  11.447  0.1572 -0.1962 -0.2821
24585W        W40394  10.163   6.234  11.714 -0.0020 -0.1848  0.1047
24586W        W40395   2.181   4.748   3.564  0.0257 -0.1292  0.0147
24587W        W40396   0.824   7.098  11.794 -0.0660 -0.3013  0.1494
24588W        W40397  12.638  17.496  15.160  0.1515  0.0472 -0.0182
24589W        W40398   0.227  10.212  12.855 -0.2261  0.0985  0.3975
24590W        W40399   5.922   5.221  10.974 -0.0967 -0.0044  0.0140
24591W        W40400   6.024  14.142  11.917  0.1698  0.0357 -0.3076
24592W        W40401   5.434   1.570  12.224 -0.1333 -0.0834  0.2855
24593W        W40402  11.105  14.993  15.293  0.1579 -0.1217 -0.1393
24594W        W40403  10.647   5.568  13.850  0.0414  0.0844 -0.3471
24595W        W40404   1.935  16.889   1.965 -0.1401 -0.0658 -0.0694
24596W        W40405   7.997   3.467   1.655  0.2182  0.0209 -0.3792
24597W        W40406   6.641   5.057   3.625 -0.2980  0.3077  0.0682
24598W        W40407  11.744   3.909  10.455  0.2863 -0.3077 -0.0864
24599W        W40408   6.816  17.009   4.205 -0.1975  0.0724  0.0488
24600W        W40409   6.038  17.731   4.887  0.1565 -0.0810 -0.0969
24601W        W40410  12.857  13.991  11.348 -0.0882 -0.0460 -0.1211
24602W        W40411   5.746   4.892   2.643 -0.1000 -0.0129 -0.0119
24603W        W40412  17.134  14.443  13.435 -0.0336  0.1944 -0.2429
24604W        W40413   1.635   1.652   0.647  0.0402  0.0041  0.2064
24605W        W40414   6.624   2.527  15.663 -0.1764 -0.2738  0.0220
24606W        W40415   2.043   7.117   0.329 -0.2170  0.1609  0.1070
24607W        W40416   2.558   1.185  12.745 -0.1574  0.0310  0.0577
24608W        W40417  11.186  12.455   1.112 -0.1358  0.0154 -0.0483
24609W        W40418  15.247  16.004  13.098  0.0480 -0.2182 -0.0181
24610W        W40419   4.460  10.717   0.080  0.0699 -0.1333 -0.3013
24611W        W40420  14.394  13.035  14.519  0.0906  0.0514  0.0900
24612W        W40421  14.562   0.369   1.961  0.0299  0.1227  0.0656
24613W        W40422  15.397   4.005   2.504  0.1109 -0.1638  0.0230
24614W        W40423   0.861   2.315  12.664  0.2717  0.2074 -0.0350
24615W        W40424  17.439  16.531  13.685 -0.2323 -0.0366  0.0733
24616W        W40425  12.774   7.403  14.011 -0.0723  0.0828 -0.1334
24617W        W40426  10.162   3.941   5.107  0.0839  0.0744 -0.0751
24618W        W40427   5.296  16.289  10.355 -0.2187 -0.0285 -0.3156
24619W        W40428  13.498   4.430   0.494 -0.2095  0.1625 -0.1148
24620W        W40429  13.827   3.451   5.379  0.1135  0.1815 -0.2756
24621W        W40430   8.213   9.546  15.560 -0.2803  0.1866  0.0803
24622W        W40431   5.114  17.730  14.344 -0.1678  0.0314  0.2840
24623W        W40432   6.177   8.269  10.920  0.0256  0.2967 -0.1238
24624W        W40433  17.412  10.000   0.745  0.1465 -0.1396 -0.0835
24625W        W40434  12.012   2.709   5.128 -0.4127  0.0763 -0.0379
24626W        W40435   7.911   2.276  13.533 -0.2298  0.2822 -0.0132
24627W        W40436  10.478  11.748  11.740  0.3088 -0.0902 -0.1461
24628W        W40437   6.679   4.591  13.337 -0.1193  0.2074 -0.0150
24629W        W40438  12.967  16.046  10.828  0.1404  0.2506 -0.2084
24630W        W40439  10.521   4.802   5.385  0.2883 -0.2704 -0.1010
24631W        W40440  10.596   2.823  15.105 -0.0771 -0.0947 -0.1920
24632W        W40441   6.963  15.138  11.551  0.3268  0.2306 -0.1565
24633W        W40442   3.925  16.879   4.008  0.1540 -0.2447  0.1309
24634W        W40443  13.622  17.344   5.590 -0.1756  0.0660  0.0666
24635W        W40444  17.481  18.185   1.309 -0.1399 -0.0101 -0.1343
24636W        W40445  11.038   4.863  12.498  0.0113  0.1905  0.0599
24637W        W40446  17.870   0.009  13.273 -0.0857 -0.0808  0.1421
24638W        W40447   1.081   4.294   0.662  0.2257 -0.1477 -0.0664
24639W        W40448  10.510  17.289  15.488 -0.2929  0.2246  0.0350
24640W        W40449  12.233   0.375   4.693  0.5052  0.2295 -0.0399
24641W        W40450   4.103   8.483   0.852  0.2300  0.1547  0.4258
24642W        W40451   2.527  13.611  10.777 -0.0956 -0.0598 -0.1290
24643W        W40452   6.961  11.287  14.842  0.0288  0.0859  0.1565
24644W        W40453   8.315  12.131  12.152  0.2945 -0.2620 -0.0141
24645W        W40454  17.609   8.843   2.645  0.0644  0.1135 -0.1361
24646W        W40455  14.835  13.036  14.117 -0.4013 -0.0012  0.1015
24647W        W40456  18.151   2.681  14.611  0.4628  0.2219  0.0821
24648W        W40457   3.470   5.054  11.034 -0.2986  0.0454  0.1922
24649W        W40458   1.124   7.602  12.849 -0.2253  0.0196 -0.1125
24650W        W40459   6.053  14.963  15.275  0.4317  0.3480  0.2886
24651W        W40460  12.167   8.396  12.633 -0.0019  0.1589 -0.1101
24652W        W40461  15.871  14.568  13.712 -0.0009  0.1513  0.4280
24653W        W40462  14.657   8.842  12.281  0.1834 -0.3441  0.0577
24654W        W40463   1.148   5.876   0.885 -0.0994 -0.4121  0.0596
24655W        W40464  17.709   4.122   0.794 -0.0378  0.3020  0.1865
24656W        W40465  13.581   6.271   2.669 -0.0122 -0.0105  0.1127
24657W        W40466   2.427   8.792  11.908  0.0975 -0.1095 -0.1873
24658W        W40467  10.962  13.184  12.545 -0.3936 -0.2053  0.1040
24659W        W40468   1.376   5.819  15.055 -0.1312  0.0107  0.1844
24660W        W40469  17.213   4.043   0.717  0.0794  0.2754 -0.1488
24661W        W40470  13.750   8.239   1.009  0.2119  0.0576 -0.1203
24662W        W40471  14.333  15.003   0.438  0.0313  0.2810  0.0186
24663W        W40472  14.536   0.480  13.748  0.2853  0.0104 -0.0975
24664W        W40473  10.657   9.139  13.821  0.1707 -0.0284 -0.1277
24665W        W40474  16.854  16.364   4.932 -0.1387  0.1237 -0.0110
24666W        W40475  17.532  14.644  12.213  0.4252 -0.0611 -0.2611
24667W        W40476   8.560  17.062   2.452  0.2028  0.0066  0.1026
24668W        W40477   2.332  12.067   5.139  0.0192 -0.1845  0.1053
24669W        W40478  11.060  15.603  15.876 -0.1679  0.2429 -0.2603
24670W        W40479   4.833   3.526  14.914  0.0327 -0.0635 -0.1003
24671W        W40480   4.431   0.310   4.290  0.0120  0.4253  0.0724
24672W        W40481  12.486   0.136   0.176  0.0063 -0.0655 -0.1897
24673W        W40482   9.214   1.833  12.959 -0.1118 -0.0069  0.1475
24674W        W40483  15.091   3.841   0.584  0.0977 -0.2240 -0.3916
24675W        W40484  12.452   5.053   5.710 -0.0852 -0.2775  0.0622
24676W        W40485   2.631  14.142   3.817  0.1945 -0.0561  0.1419
24677W        W40486   1.767   5.004  14.539 -0.2160 -0.2178  0.3417
24678W        W40487  14.402  15.723  12.123  0.1623 -0.1771 -0.0417
24679W        W40488   6.474  16.261  13.763  0.1773 -0.1300  0.2322
24680W        W40489   3.414   2.971  12.045 -0.0156 -0.0929 -0.0816
24681W        W40490  14.131  17.345  13.554 -0.2977 -0.3106 -0.1512
24682W        W40491   0.862   3.869  13.646 -0.1889 -0.1828 -0.4624
24683W        W40492   5.352   5.397  12.461  0.1480 -0.0607  0.1397
24684W        W40493  10.122   6.224   3.417 -0.2244 -0.1673  0.2342
24685W        W40494  11.922   6.186   0.379 -0.0920  0.0907 -0.0866
24686W        W40495   9.400  12.974  13.446 -0.0442  0.0244 -0.2930
24687W        W40496   0.577   8.580  13.748  0.2022 -0.0580  0.2026
24688W        W40497   2.714  14.169   4.310  0.1738  0.2264  0.2258
24689W        W40498  11.377   7.838   1.038 -0.2014 -0.1961 -0.2875
24690W        W40499   8.435   1.679  15.450 -0.0344 -0.2422 -0.2350
24691W        W40500  14.285   8.395   5.416  0.1484  0.2242  0.0311
24692W        W40501   1.447   9.730   2.934 -0.0776  0.2111  0.1721
24693W        W40502   0.228   6.402  13.468  0.1953 -0.0180 -0.0208
24694W        W40503   9.931   8.999  10.910  0.0881  0.2138 -0.3369
24695W        W40504  17.328  15.186   1.654 -0.2103 -0.0865  0.1789
24696W        W40505  14.932  10.144   1.665  0.0968  0.0582 -0.1188
24697W        W40506   4.328  17.953  13.858 -0.1533  0.2406 -0.1080
24698W        W40507   0.273  17.553   2.142 -0.0759 -0.1513  0.1492
24699W        W40508   3.645  11.676  11.631 -0.2589  0.0231 -0.3062
24700W        W40509   1.499  14.878   2.259  0.2163  0.2487 -0.0583
24701W        W40510   4.297  11.785   3.629 -0.3394  0.1188  0.1958
24702W        W40511  17.444  17.021  13.587  0.2032 -0.1966 -0.1217
24703W        W40512   9.428   5.399  14.595 -0.0408  0.0759 -0.1200
24704W        W40513  16.366  12.209  15.177 -0.1162  0.0945 -0.1339
24705W        W40514   4.997   8.865  14.360  0.1138 -0.0519  0.2772
24706W        W40515  10.565  12.535  11.975 -0.0535  0.0142 -0.1709
24707W        W40516   6.062   7.452  15.066 -0.1708 -0.1276  0.0538
24708W        W40517   6.597   2.455  14.312  0.1509  0.5054  0.2352
24709W        W40518   6.091  12.445   3.416  0.1506  0.2230  0.1898
24710W        W40519  12.954   7.830   3.913  0.1654 -0.1674  0.1570
24711W        W40520  12.506   4.424   5.289  0.1699 -0.0983 -0.1455
24712W        W40521   3.107  17.534   2.484  0.4798  0.0893  0.4150
24713W        W40522   7.794   9.480   3.043 -0.1167  0.1236  0.0376
24714W        W40523   4.440  17.074  15.071  0.0450 -0.4710  0.1182
24715W        W40524  14.626   2.250   4.056 -0.1873 -0.2654 -0.0769
24716W        W40525  15.591  10.267  13.050 -0.0115 -0.2172  0.2808
24717W        W40526   3.604   9.145  13.987  0.3262 -0.1769 -0.0361
24718W        W40527  13.656   8.107  12.137  0.0112 -0.0170  0.1611
24719W        W40528  16.757   1.457  12.317 -0.1793  0.3481 -0.0725
24720W        W40529   4.155   6.742  15.636 -0.0202 -0.0572  0.1406
24721W        W40530   8.280   1.073   5.221 -0.0795 -0.1105 -0.1632
24722W        W40531  13.589  18.179  14.600  0.1046 -0.1634  0.0707
24723W        W40532   0.930  10.206  10.901 -0.0707 -0.0425  0.0294
24724W        W40533  13.548   8.417   3.608  0.1539  0.1135 -0.2247
24725W        W40534  10.058  10.606  14.427 -0.1309 -0.0039  0.4034
24726W        W40535  11.297   8.339  13.322 -0.0588  0.0431  0.4881
24727W        W40536  12.703   6.261   0.007 -0.1285 -0.4648 -0.0042
24728W        W40537  12.071   6.101   4.190  0.2172  0.0391 -0.0451
24729W        W40538  11.347  10.701   0.969 -0.0568 -0.1121  0.0065
24730W        W40539   4.395   1.614  14.244  0.0287 -0.2697  0.0138
24731W        W40540  13.138  15.326   5.173  0.1106  0.2691  0.0978
24732W        W40541   9.938  12.230   1.829 -0.4297 -0.1310  0.2050
24733W        W40542   0.194  11.846  14.589 -0.0164 -0.0263 -0.0375
24734W        W40543   6.150   4.909   0.231  0.0036 -0.0662  0.1725
24735W        W40544  11.238   5.302  12.712 -0.0543 -0.1474 -0.0576
24736W        W40545  14.720   2.926   0.901 -0.1271  0.0107  0.0998
24737W        W40546   1.555  16.619   5.212  0.1400 -0.3229  0.2043
24738W        W40547   0.193  16.282   0.995  0.1100 -0.0201 -0.2117
24739W        W40548   1.236   3.789   5.429 -0.2650 -0.0544 -0.0739
24740W        W40549  13.555  11.401   5.250  0.0153 -0.1366  0.0082
24741W        W40550   6.910  10.424   1.700  0.0085  0.0859  0.1123
24742W        W40551   1.819   8.328   1.522 -0.1005  0.0542  0.1270
24743W        W40552   8.546   0.596   4.202  0.1759 -0.2233 -0.3456
24744W        W40553   6.830  16.901   3.607  0.1495  0.1702  0.0988
24745W        W40554   6.413  10.673   4.146  0.2128  0.2260 -0.4220
24746W        W40555   5.160  15.548  12.466 -0.2259 -0.2251  0.0080
24747W        W40556   5.357   6.311   0.094  0.1233 -0.1283  0.3022
24748W        W40557   0.463  17.351   2.907 -0.2682 -0.0450 -0.2914
24749W        W40558   2.726   8.821  12.782  0.0978 -0.0807  0.2025
24750W        W40559  13.202   8.465   2.263 -0.1922  0.0092 -0.3932
24751W        W40560   3.153   8.540  12.886  0.3905 -0.4890 -0.1396
24752W        W40561  15.251  10.296  11.313  0.3823  0.0290 -0.1864
24753W        W40562   5.499  13.642  14.620 -0.0253 -0.0514 -0.2919
24754W        W40563   1.604   0.252   0.770 -0.2194 -0.0331 -0.0226
24755W        W40564   9.109   5.321  12.165 -0.2788  0.2602  0.1537
24756W        W40565  14.532  12.172   0.378  0.3247  0.0263 -0.1454
24757W        W40566   7.142  17.288   5.780  0.1144 -0.3057  0.0517
24758W        W40567   1.647  14.375  12.589  0.1743 -0.1528 -0.0561
24759W        W40568  15.377  16.732   4.301 -0.1525 -0.4334  0.2420
24760W        W40569  12.026   5.791   5.421  0.0782 -0.0454  0.0788
24761W        W40570  15.495   6.152  12.846 -0.0285  0.2584 -0.2559
24762W        W40571   5.698  12.294  12.030 -0.0768  0.0936  0.3017
24763W        W40572   7.146   5.061  12.695  0.1420 -0.0442 -0.4087
24764W        W40573   3.143  17.118  11.387  0.0940  0.3559  0.1819
24765W        W40574   1.595   0.449  12.764  0.0615 -0.1962  0.3912
24766W        W40575  16.796  17.118  15.652 -0.0447  0.0626 -0.2048
24767W        W40576   6.180   6.351   1.698 -0.0813  0.2773  0.0676
24768W        W40577   5.582  15.857   4.832  0.2182 -0.2786  0.0021
24769W        W40578  12.801   8.602   3.989  0.4145  0.2114  0.1073
24770W        W40579   0.287  10.656  14.571 -0.0289  0.0005 -0.0571
24771W        W40580   6.427   2.954   3.019  0.1239  0.0353 -0.2581
24772W        W40581  11.730   6.748  15.265 -0.1771  0.0783  0.0096
24773W        W40582  17.025   3.613  13.874  0.3555  0.1089 -0.0955
24774W        W40583   4.231  16.096  12.436 -0.2054  0.4521  0.2181
24775W        W40584  11.764  15.298   2.532 -0.5693  0.0394  0.2436
24776W        W40585   1.331   0.106  12.448 -0.2473 -0.2019  0.0695
24777W        W40586   2.661  15.969   4.942 -0.3964  0.0721  0.0057
24778W        W40587  11.875   4.041   1.783  0.2301  0.0625 -0.0370
24779W        W40588   5.647   9.410  14.211 -0.1853  0.2042 -0.0548
24780W        W40589   0.302   8.789  15.310  0.0308  0.1316  0.0756
24781W        W40590   6.342  11.413   5.074 -0.1318  0.2407 -0.4000
24782W        W40591  15.594   1.766   2.900 -0.0428  0.0844 -0.1893
24783W        W40592  11.226   8.849  14.063  0.2942 -0.1259  0.2910
24784W        W40593  13.251  16.943   1.339 -0.3521  0.0809 -0.4312
24785W        W40594  13.198   9.802  12.875 -0.3605 -0.4978  0.3109
24786W        W40595   0.929  18.048   1.081 -0.1473  0.0954  0.1228
24787W        W40596  13.045   9.124   2.150 -0.1095 -0.0407  0.0088
24788W        W40597   9.717  15.451  12.299 -0.2121  0.0235  0.0261
24789W        W40598  13.130   5.756  13.624  0.3376  0.1137  0.0476
24790W        W40599   9.555   8.800   4.126  0.1609  0.2533 -0.0944
24791W        W40600  13.210  16.234  11.974  0.0255  0.2140  0.0276
24792W        W40601   3.675  15.727   0.275 -0.2414  0.1009  0.3937
24793W        W40602  16.816   1.819  15.561  0.2048  0.2893  0.1712
24794W        W40603  17.364   8.561  13.547  0.0741  0.1875  0.2797
24795W        W40604  15.221  11.869  14.897 -0.1056 -0.2201  0.1579
24796W        W40605  13.977   7.212   3.012  0.1198 -0.0864 -0.1647
24797W        W40606   5.481  13.031  14.032  0.1602 -0.0262  0.2404
24798W        W40607  10.937   7.023  12.735 -0.2566 -0.0733  0.1085
24799W        W40608  11.763  12.983   2.721  0.3093  0.1271 -0.2565
24800W        W40609   6.505  16.956  14.822 -0.1115 -0.0747 -0.2613
24801W        W40610   8.633   8.859  15.383  0.1033  0.0976 -0.1899
24802W        W40611  16.692  15.552   2.983  0.0132 -0.0347  0.1733
24803W        W40612   1.605  12.005   2.630 -0.0632 -0.3028  0.1891
24804W        W40613  12.861  15.083   1.787 -0.1751  0.1223 -0.2063
24805W        W40614   3.983  12.649   0.660  0.2060 -0.2610  0.0637
24806W        W40615   6.503  16.289   4.681  0.1353 -0.0423 -0.1849
24807W        W40616  13.314   7.623   4.172  0.4429  0.0022 -0.1861
24808W        W40617  13.202  17.033  15.614 -0.0028  0.1072  0.4181
24809W        W40618  10.298   3.501   4.137  0.0006  0.1450  0.0227
24810W        W40619   2.556  11.308  13.916 -0.0710 -0.1117 -0.4292
24811W        W40620   3.139  17.208   5.546  0.3366 -0.0096 -0.1632
24812W        W40621  10.176   3.896   3.156  0.3302 -0.0864 -0.0428
24813W        W40622   8.276  15.852   2.029  0.0870 -0.1830  0.2286
24814W        W40623  15.997  15.669   0.377 -0.1878  0.0308  0.0955
24815W        W40624   7.949  14.411  13.921  0.0867  0.1189  0.1827
24816W        W40625  13.180  10.827   3.703  0.4974  0.1104  0.1057
24817W        W40626  13.246  13.467  13.715  0.1442  0.0297  0.3253
24818W        W40627  16.330   0.935  12.992  0.0114  0.0177  0.0959
24819W        W40628  12.608   0.769   0.662 -0.0360 -0.1149 -0.0496
24820W        W40629   8.368   6.838  11.604 -0.1562 -0.0100  0.3139
24821W        W40630   0.111  13.826   3.131  0.0907  0.1812  0.0941
24822W        W40631   2.495   6.047  14.497  0.3381  0.0665 -0.0122
24823W        W40632   5.677  15.113   2.703  0.2661 -0.1134 -0.0646
24824W        W40633  14.340   2.303  11.381  0.1588  0.2982  0.0452
24825W        W40634   2.046  14.421   1.684  0.1621  0.0735 -0.0301
24826W        W40635  13.267   1.963  13.582  0.0779 -0.0001  0.0187
24827W        W40636   0.536  17.512  15.114  0.0834 -0.1584 -0.0773
24828W        W40637  12.531   9.177   3.381  0.0971 -0.0834 -0.2918
24829W        W40638   7.158   1.858   4.598 -0.0171 -0.1934  0.0138
24830W        W40639   0.023  15.742  13.810  0.0852 -0.0566  0.1487
24831W        W40640  16.201   2.156   1.777  0.0175  0.0471  0.0402
24832W        W40641   5.534   0.274  12.620  0.2825  0.1863  0.1327
24833W        W40642   0.693   1.040  13.961  0.0585  0.1074  0.0906
24834W        W40643  15.020   7.771   3.792 -0.0050  0.1302  0.3120
24835W        W40644  12.355  13.255  10.741  0.0290 -0.3087  0.0184
24836W        W40645  10.820  16.917   3.117 -0.3155  0.0731 -0.0947
24837W        W40646  16.003  17.845  12.997 -0.0357 -0.0864  0.2538
24838W        W40647  17.153   8.240   2.200  0.3745  0.1218 -0.0533
24839W        W40648   1.738   3.913   5.604  0.2268  0.1233 -0.0211
24840W        W40649   4.239   0.079   1.621  0.0286 -0.0700  0.0186
24841W        W40650  17.872  14.022  14.060  0.0305  0.0045  0.2865
24842W        W40651   3.464   5.778  15.481  0.2744 -0.1192 -0.3741
24843W        W40652  12.616   0.249  12.152  0.0641  0.0174 -0.0772
24844W        W40653   3.835  13.104   6.201  0.1567 -0.3226  0.0915
24845W        W40654   1.739  13.567  13.630  0.3185  0.1327  0.0087
24846W        W40655  11.149  13.468  11.947 -0.2240 -0.3598  0.0609
24847W        W40656  13.486   6.841  11.636  0.0571  0.1928 -0.0940
24848W        W40657   7.883  12.403  12.399  0.1070  0.1426 -0.1566
24849W        W40658   7.921  16.875  13.185  0.1492  0.0337 -0.2340
24850W        W40659   9.495  12.377   5.741 -0.2395  0.1069  0.0634
24851W        W40660   0.801   9.443  14.887  0.1325 -0.3483 -0.1110
24852W        W40661   7.263   0.766  15.588 -0.2478 -0.1845 -0.2918
24853W        W40662   3.350   4.336  13.295  0.1023  0.1139  0.1360
24854W        W40663   3.153   8.031   0.381 -0.1254  0.1302  0.1207
24855W        W40664   8.181   6.514  11.128 -0.1746  0.3426  0.0330
24856W        W40665   7.651  17.843   2.016  0.3253  0.0436 -0.3711
24857W        W40666   9.339  12.192   1.261 -0.4476  0.1258  0.0117
24858W        W40667  11.574  13.979   1.576 -0.0035 -0.1677  0.1643
24859W        W40668   1.736   3.721  12.401  0.0291  0.0716 -0.1378
24860W        W40669   9.189   4.024   0.721 -0.0314  0.0121  0.1553
24861W        W40670   0.489  15.392   0.777  0.0858 -0.2445  0.2783
24862W        W40671   7.454   7.333   0.475 -0.1225 -0.0440 -0.1956
24863W        W40672  13.499   2.678   3.294  0.0602 -0.1112  0.1681
24864W        W40673   3.193  15.171   4.008  0.0032 -0.0225  0.3836
24865W        W40674  13.112   5.009  15.990  0.1387 -0.0590  0.0728
24866W        W40675  17.905  10.324   1.052 -0.1519 -0.1340  0.4380
24867W        W40676   3.970  15.178   3.080 -0.0693  0.1190 -0.1744
24868W        W40677  11.924  10.308   0.384 -0.1314 -0.0049 -0.1171
24869W        W40678  12.673   4.791   1.582 -0.1512 -0.2185  0.0286
24870W        W40679  11.256   2.367   0.862  0.0051 -0.0166 -0.1983
24871W        W40680  12.092  13.872   4.106 -0.1263  0.0737 -0.1296
24872W        W40681  13.435  10.612   4.101 -0.0821 -0.2146 -0.1444
24873W        W40682   1.940  11.875   1.599  0.2969  0.0984 -0.0826
24874W        W40683   3.808   5.223   4.288 -0.3278 -0.0482 -0.2190
24875W        W40684  11.740  12.739   1.710  0.1775  0.1149  0.1077
24876W        W40685   5.523   1.053  15.060  0.1306 -0.4203  0.0797
24877W        W40686   5.099  16.435  10.905 -0.1124  0.1798  0.0479
24878W        W40687  11.934   3.057   2.317 -0.0920 -0.2291 -0.0027
24879W        W40688   7.119  10.197   4.764  0.2247  0.0400 -0.0887
24880W        W40689  10.563  13.128   3.392  0.1732 -0.1437 -0.0843
24881W        W40690   7.702  12.410  14.637 -0.0564  0.2840  0.0331
24882W        W40691   3.950  16.202  13.722 -0.0173 -0.2520 -0.1063
24883W        W40692   4.322   3.280  12.003  0.2078 -0.2710  0.1205
24884W        W40693  13.327   8.465  15.536  0.1262 -0.1606  0.0796
24885W        W40694   7.458   9.160   5.693  0.0021  0.0362  0.0815
24886W        W40695  16.446  12.290  14.246  0.0233 -0.0015  0.0523
24887W        W40696  11.680  17.115  11.670  0.0943  0.0800  0.0312
24888W        W40697   2.487   5.503   3.723  0.0582  0.0688 -0.2067
24889W        W40698   4.049  13.843  16.020  0.1011  0.1129  0.0427
24890W        W40699   2.692  10.166   4.960 -0.3207  0.0800  0.2901
24891W        W40700   9.168   8.972   3.161  0.2840 -0.1306  0.0779
24892W        W40701   5.811  14.271  12.829 -0.1249  0.0113 -0.1087
24893W        W40702   8.071  16.368  15.849 -0.1683  0.0541  0.3918
24894W        W40703  16.761  16.988   3.708 -0.0951 -0.0687 -0.1173
24895W        W40704   0.165   6.525  10.852  0.0653  0.2061  0.3504
24896W        W40705  14.134   6.971   2.518 -0.0654 -0.1506  0.0562
24897W        W40706  16.227   1.528  12.319  0.0454 -0.2569 -0.3166
24898W        W40707  13.948   6.866  11.234  0.3174  0.0894  0.0502
24899W        W40708  18.207  17.979  12.417  0.0872  0.0293  0.2233
24900W        W40709   1.660  11.318  15.753  0.1456 -0.0913 -0.1202
24901W        W40710   4.721   4.390  15.511 -0.2167 -0.0173  0.1421
24902W        W40711   9.915  11.563  14.564 -0.3012  0.0848 -0.1479
24903W        W40712  17.652   5.680   3.496 -0.0051  0.2572 -0.0520
24904W        W40713   2.002   3.598   0.736 -0.1204  0.3213 -0.1889
24905W        W40714   7.654  11.358  14.609 -0.5902  0.2212 -0.1677
24906W        W40715   0.106  15.622   2.579  0.1305 -0.1600 -0.2341
24907W        W40716  12.845  17.151  12.194 -0.1827 -0.2311 -0.2520
24908W        W40717   5.559   6.321  15.691 -0.3166 -0.3300 -0.1188
24909W        W40718  10.054   8.511   0.341  0.0750  0.3180  0.1740
24910W        W40719  12.979  17.841   3.715  0.1070 -0.1124  0.0819
24911W        W40720  14.717   0.171   3.438  0.0795 -0.4984 -0.1032
24912W        W40721   0.449  10.451  12.147 -0.2861  0.0623  0.1315
24913W        W40722   8.770  17.384  14.423  0.0211 -0.2994  0.1240
24914W        W40723   7.787   3.247  12.490  0.0041  0.3030  0.1187
24915W        W40724   7.786   8.527   5.228 -0.2595  0.1361  0.0371
24916W        W40725   3.128  12.056   4.166  0.0519  0.0323  0.1872
24917W        W40726   9.148   1.168   6.143  0.2432  0.2518  0.1857
24918W        W40727   3.198   8.932   1.849 -0.2554  0.1061  0.1598
24919W        W40728   5.038  12.764   5.245  0.0213  0.1719  0.2198
24920W        W40729   2.557   9.224   3.153  0.0234 -0.1247  0.0589
24921W        W40730   5.381  14.911  15.571 -0.1991  0.0653  0.2029
24922W        W40731   6.356   3.282   0.758  0.4405 -0.2193 -0.1598
24923W        W40732  13.865  13.754   5.181 -0.1165 -0.2031 -0.0913
24924W        W40733  16.097  10.949  11.360  0.0217 -0.0244 -0.3074
24925W        W40734   9.553  10.241  15.564  0.0565  0.0689 -0.2563
24926W        W40735  12.747   8.837   3.013  0.0416 -0.0905 -0.4333
24927W        W40736   9.447   7.038   4.208  0.1806  0.0262 -0.0575
24928W        W40737   8.190   5.387   0.240 -0.2557  0.0207 -0.2419
24929W        W40738  14.022   2.662   3.530 -0.0299  0.0708 -0.0169
24930W        W40739   6.062   5.689  13.776  0.0948  0.0259 -0.0214
24931W        W40740   3.932   6.723  13.291  0.2204 -0.3143 -0.1500
24932W        W40741   1.722  12.241  10.569  0.0999  0.0991 -0.2141
24933W        W40742  18.008  13.406  15.269  0.2361  0.0138  0.0489
24934W        W40743   4.303   7.762  13.777  0.1670  0.1805 -0.2761
24935W        W40744   4.632  11.682   1.427  0.1511  0.1642  0.0697
24936W        W40745   4.276  11.329  13.989 -0.1297 -0.0892 -0.0062
24937W        W40746   0.478   7.734   3.869  0.0800  0.3289 -0.2212
24938W        W40747  10.933   4.630   0.831 -0.2028  0.1332 -0.2481
24939W        W40748   2.272   5.088  12.771 -0.0288 -0.1044 -0.3006
24940W        W40749  17.607   6.382  12.272 -0.0669  0.0797 -0.2249
24941W        W40750   8.971   4.178   2.143  0.3127  0.1600  0.1977
24942W        W40751  13.082  14.073   2.638  0.1364  0.2071  0.0152
24943W        W40752  14.180   5.095   3.291  0.1263  0.0519  0.0911
24944W        W40753  16.150   5.797  11.869  0.0767 -0.0593  0.0585
24945W        W40754   0.203   4.938  14.664  0.0839  0.1752  0.0028
24946W        W40755   9.485  14.200  15.125 -0.2017  0.3556 -0.3025
24947W        W40756   4.007   2.288   1.992  0.3815  0.1045 -0.1513
24948W        W40757   8.220   4.336   5.331  0.0032  0.2319  0.0323
24949W        W40758  10.349  18.145   0.793 -0.2776 -0.1711 -0.0318
24950W        W40759  11.275   4.589   3.107  0.0303  0.0742 -0.1634
24951W        W40760   7.374  11.481   2.718  0.0224  0.3005 -0.0052
24952W        W40761  18.196   1.846   2.439  0.1066 -0.0127 -0.2299
24953W        W40762   3.879  13.715  13.401  0.2255 -0.4240 -0.2762
24954W        W40763  12.405   5.718   1.515 -0.0098 -0.4427 -0.0340
24955W        W40764  16.937   7.681  13.316  0.1727 -0.2593 -0.0281
24956W        W40765  15.455   1.161  12.860 -0.0276 -0.3808  0.0788
24957W        W40766  10.930   9.022  11.007 -0.0389 -0.2016  0.0551
24958W        W40767   9.583  17.506   0.575 -0.2771 -0.4148  0.2856
24959W        W40768  17.797  13.355   2.609  0.0788 -0.1323  0.0797
24960W        W40769   6.002  10.924  13.413 -0.4920 -0.1699  0.2855
24961W        W40770   9.521  11.911  14.394 -0.0860 -0.1021  0.2905
24962W        W40771  14.287   2.541  12.173  0.2285  0.1837  0.0706
24963W        W40772  11.356   6.152   2.444  0.0813  0.1310 -0.0527
24964W        W40773   0.438  16.542  11.353  0.0882 -0.2263 -0.1460
24965W        W40774   4.181   6.649  12.059 -0.0308 -0.0523 -0.2144
24966W        W40775   4.083   3.381  14.179  0.2325 -0.2523  0.0096
24967W        W40776  10.003   3.581  15.720 -0.2185  0.0116  0.1136
24968W        W40777   1.157   7.579   3.202  0.0588  0.1559  0.0532
24969W        W40778   9.108  15.777   5.313 -0.0700  0.0816  0.0657
24970W        W40779   6.054  14.309   3.283 -0.3038  0.0770 -0.2965
24971W        W40780  18.200   6.298   4.121 -0.2878  0.0720  0.0551
24972W        W40781  13.828  17.070  12.899 -0.1037 -0.0468  0.1630
24973W        W40782  13.750   9.917   1.865  0.1038  0.0016  0.2537
24974W        W40783  17.978   2.772  15.093  0.0157  0.3103  0.1911
24975W        W40784   4.604  12.792  13.721  0.4345  0.4362  0.0067
24976W        W40785  14.466   6.326   2.425  0.0095 -0.1510 -0.0937
24977W        W40786   6.580   0.522   2.015  0.2142 -0.0398  0.1269
24978W        W40787   1.291   1.632   1.538 -0.1373 -0.1257 -0.0348
24979W        W40788   2.177  13.398   3.185 -0.2316 -0.0576  0.1075
24980W        W40789  16.880   0.824  14.249  0.0358 -0.0572 -0.2453
24981W        W40790  14.596  13.666  11.076 -0.1807  0.3122 -0.1050
24982W        W40791   6.897   9.027  15.152 -0.3111 -0.0731  0.0430
24983W        W40792  17.944  15.143  14.144  0.1885 -0.0141  0.0330
24984W        W40793  11.757   3.568   0.269  0.0419 -0.0223  0.1501
24985W        W40794  14.225   9.434  15.470 -0.2151 -0.1770 -0.0124
24986W        W40795   5.078  13.655   2.165  0.1699 -0.0037  0.1631
24987W        W40796   7.426   1.289   0.683 -0.2333  0.2025  0.0105
24988W        W40797   6.810   8.156   1.355 -0.3620 -0.0239 -0.0034
24989W        W40798  14.222  13.429  13.897  0.0636 -0.1497  0.1340
24990W        W40799  14.325   3.293  15.225  0.0708  0.0426 -0.0818
24991W        W40800  16.218   8.426   0.232  0.1104 -0.4214  0.2049
24992W        W40801   5.435   2.819  15.851  0.1333  0.1517 -0.0806
24993W        W40802   5.871   7.913   5.610  0.1831  0.1380  0.2436
24994W        W40803  12.826  13.778   0.185  0.1225  0.3992  0.0869
24995W        W40804   6.049   3.046  15.302 -0.1287 -0.0870 -0.0631
24996W        W40805   1.526  17.953  14.887  0.4978  0.2685  0.0279
24997W        W40806  12.437   5.336  12.654 -0.0787  0.0058  0.0534
24998W        W40807  11.239   5.703   2.380  0.1319 -0.0256  0.1341
24999W        W40808   3.550  15.653  10.953  0.0478  0.1864  0.2634
25000W        W40809  14.110   3.667   0.538 -0.3736  0.1539  0.0065
25001W        W40810   4.416  16.960  14.578  0.1063 -0.0048 -0.2548
25002W        W40811   4.736  16.196  11.160 -0.1657 -0.0289  0.1867
25003W        W40812   2.391  13.700  14.267 -0.2802 -0.0002 -0.1264
25004W        W40813  17.711   3.749  11.748  0.0329 -0.4513  0.4174
25005W        W40814   1.491  16.060  15.416 -0.1317  0.0703 -0.1805
25006W        W40815  11.068  10.210   4.653 -0.2573 -0.1228 -0.2551
25007W        W40816  14.863   7.153  13.162  0.0722 -0.0845 -0.0461
25008W        W40817   4.542  16.994   5.195  0.1759  0.2324 -0.1619
25009W        W40818  14.067   7.943  15.394 -0.0800  0.0392  0.1169
25010W        W40819   7.480   6.749   1.193  0.3486 -0.1292  0.3936
25011W        W40820  15.482  13.895   1.750  0.1632  0.0056 -0.0013
25012W        W40821   2.237   6.429   2.079  0.0517 -0.0658  0.0775
25013W        W40822   9.102  13.044  15.614  0.0332 -0.1387 -0.1168
25014W        W40823  15.107   4.508  15.371 -0.1132 -0.2038  0.0921
25015W        W40824  11.749   9.601  14.397  0.0149 -0.0538  0.1453
25016W        W40825   8.342  17.858  10.351 -0.1171 -0.0016  0.0522
25017W        W40826   9.916  10.651   4.980 -0.0667 -0.2729 -0.0130
25018W        W40827   5.621   6.664   0.381  0.3595  0.2708 -0.3438
25019W        W40828  16.515   1.957   4.644  0.1909 -0.1283 -0.1763
25020W        W40829   2.642  17.120  14.494 -0.3613  0.1518 -0.0243
25021W        W40830  16.796  17.269   1.284 -0.0385  0.0939 -0.0224
25022W        W40831   6.415  12.871  15.269  0.2762  0.0966  0.0296
25023W        W40832  10.569   1.903  12.617  0.0463  0.0519 -0.1263
25024W        W40833   6.466   7.616   0.684 -0.0060 -0.0784 -0.0704
25025W        W40834  12.293   4.400   1.648 -0.0145  0.4083 -0.2073
25026W        W40835  10.674   5.592   4.895  0.0862  0.0972  0.0501
25027W        W40836  16.056   2.145   3.146 -0.1092 -0.0776  0.0804
25028W        W40837  18.102   4.399   4.452  0.2845  0.0015  0.2261
25029W        W40838  17.633   9.175   2.153 -0.1578  0.0925  0.1751
25030W        W40839  16.260  14.241  15.958  0.2134  0.1910 -0.1184
25031W        W40840   9.959   0.309  14.952 -0.1234 -0.0426 -0.0605
25032W        W40841   0.265   5.245  13.534 -0.1718 -0.4169 -0.3447
25033W        W40842  14.789  17.469  14.463  0.0113 -0.0709  0.0734
25034W        W40843   0.541   1.539   0.489  0.2068 -0.0124 -0.3302
25035W        W40844  16.172  16.409  13.121  0.0262 -0.2258  0.1143
25036W        W40845   7.626  10.512   0.933 -0.0210  0.2565 -0.1310
25037W        W40846  14.112   2.476   5.484 -0.1782 -0.2471 -0.1611
25038W        W40847  13.746  16.700  13.876  0.4136 -0.0667 -0.2235
25039W        W40848  13.576   1.227   1.636 -0.1318 -0.1532  0.1005
25040W        W40849   7.038  14.734  13.915  0.2845 -0.1183  0.1934
25041W        W40850   5.159   5.969   1.440 -0.3033  0.0185  0.1592
25042W        W40851  17.429   6.986   3.064 -0.0126 -0.1318  0.2892
25043W        W40852  18.066  14.558   2.707  0.2215 -0.1177 -0.2021
25044W        W40853   9.340  13.422  13.206 -0.0865 -0.2164 -0.1392
25045W        W40854   2.189   2.494  15.621  0.0381 -0.1436 -0.0211
25046W        W40855   5.640  11.072  12.780 -0.0236 -0.0631 -0.1971
25047W        W40856   5.027  18.003  15.157 -0.0074 -0.1486  0.1964
25048W        W40857   5.193   0.299   0.011 -0.0307  0.0567  0.1032
25049W        W40858  11.860   1.608   2.519  0.2942 -0.1276 -0.0247
25050W        W40859  17.576   1.509   1.985  0.0500  0.2598 -0.0956
25051W        W40860  15.678   0.366  11.469  0.2391 -0.0225 -0.0934
25052W        W40861   2.817  12.219   1.571 -0.1753 -0.0123 -0.3496
25053W        W40862  12.307   9.927  12.029 -0.1203  0.1493  0.4460
25054W        W40863   5.413   7.621   2.670 -0.0802 -0.3301 -0.0255
25055W        W40864   7.254  17.531  13.398  0.0720 -0.2443 -0.2105
25056W        W40865   2.503   0.828   4.071 -0.2221 -0.1133  0.1292
25057W        W40866   9.004  14.055  11.842 -0.1892 -0.1650 -0.0301
25058W        W40867   5.037   0.520  11.381  0.1589  0.0184  0.1399
25059W        W40868   1.382  15.711  12.008  0.0881  0.3952  0.2768
25060W        W40869   5.883  17.094  11.401 -0.0053  0.2567  0.2435
25061W        W40870   5.171  12.715   0.012 -0.0958  0.0941  0.1791
25062W        W40871  18.119  14.010  13.096  0.0768  0.2943  0.2082
25063W        W40872   9.929  10.204   3.213  0.0952 -0.1165 -0.0247
25064W        W40873  12.333   1.109  15.174  0.0579  0.2361  0.0574
25065W        W40874  16.709   2.138  15.222 -0.3218  0.3186 -0.0476
25066W        W40875   4.834   3.690  12.584  0.3169  0.0349 -0.1753
25067W        W40876   2.840  12.099   0.640 -0.0262 -0.0102 -0.1787
25068W        W40877   2.441  16.467   0.821 -0.0117  0.1389 -0.0193
25069W        W40878  10.523   9.339  13.184 -0.0043  0.5553 -0.1000
25070W        W40879   2.940   0.670   1.431 -0.1574  0.0144  0.1367
25071W        W40880   1.315   1.986  12.673 -0.0452  0.1843 -0.2887
25072W        W40881   5.006  17.731   6.515  0.3017 -0.1819  0.0880
25073W        W40882  13.652  12.667  11.742  0.0681  0.1522 -0.0209
25074W        W40883  11.520   6.345   5.079 -0.1222  0.4636  0.1232
25075W        W40884  12.748  17.754  13.276 -0.0874 -0.0567 -0.0834
25076W        W40885  11.830  11.693  14.336 -0.4119 -0.1225 -0.0465
25077W        W40886  16.400   8.431  12.932 -0.0706  0.1178  0.2956
25078W        W40887   5.435  11.822   0.768 -0.0314 -0.1209 -0.1060
25079W        W40888   2.226  13.792   0.994  0.2647  0.0740 -0.0083
25080W        W40889   5.739   9.895   4.825 -0.0233 -0.0371  0.5543
25081W        W40890   7.371   2.148   3.671 -0.3219 -0.0271 -0.1588
25082W        W40891  10.440   0.119  14.895 -0.1817  0.2526  0.1370
25083W        W40892  15.377  13.642  14.700  0.4286  0.3289  0.1954
25084W        W40893  16.153   3.172   3.344 -0.0464  0.0181 -0.0836
25085W        W40894  13.984  13.053  14.187 -0.1647  0.1828 -0.3679
25086W        W40895   5.552   1.151  10.497 -0.1099  0.2081  0.0233
25087W        W40896  16.323  13.819   0.685 -0.0688 -0.1579 -0.0945
25088W        W40897   9.202  15.956   5.811 -0.1140  0.0692  0.1013
25089W        W40898   4.175   2.149   1.274 -0.4497 -0.1044 -0.1549
25090W        W40899   4.034   7.634   1.479  0.0357 -0.0931  0.0111
25091W        W40900   1.029   8.586   5.696  0.0646 -0.2421 -0.0715
25092W        W40901   0.250  15.107   2.440  0.1872 -0.1067  0.0441
25093W        W40902   1.950  14.991   4.106  0.0038 -0.1814  0.1817
25094W        W40903   9.736   0.504   6.063 -0.2957  0.1335 -0.0151
25095W        W40904   5.730   4.824   3.734  0.5331  0.0679 -0.1627
25096W        W40905  10.449   2.052   1.915  0.1493 -0.1270 -0.1222
25097W        W40906  11.050  11.795   3.687 -0.3408 -0.0789  0.1499
25098W        W40907   3.581  17.395   4.750  0.0186 -0.0755 -0.1979
25099W        W40908   6.109  14.251  13.878 -0.1109 -0.0611 -0.0516
25100W        W40909  15.632  14.218  11.299 -0.1075  0.0432  0.1073
25101W        W40910  16.098   2.010  14.376  0.1595 -0.1037 -0.2207
25102W        W40911   7.686  17.358   3.375 -0.3161  0.1223 -0.1125
25103W        W40912   5.527   1.208   4.516 -0.1329  0.1690 -0.5812
25104W        W40913   8.964   3.437  14.337 -0.0847  0.0210  0.2292
25105W        W40914  10.629  14.500   3.983 -0.0983 -0.2524  0.1450
25106W        W40915   8.471  16.139  15.606  0.1117 -0.2796  0.0464
25107W        W40916   2.526   7.579   1.086 -0.0634  0.1832  0.1038
25108W        W40917   1.546   5.818   0.418 -0.3198  0.1994 -0.1390
25109W        W40918   4.633  16.331   3.577 -0.0668 -0.0311 -0.1165
25110W        W40919  16.547  10.199  12.204 -0.0912 -0.1936  0.2533
25111W        W40920   2.026  11.471   3.863  0.0510 -0.1271 -0.3350
25112W        W40921   9.493  10.826   0.945 -0.1951  0.2458 -0.0074
25113W        W40922   7.583   8.546  14.895 -0.0598  0.2913  0.1378
25114W        W40923   0.354   1.928   1.559 -0.1469 -0.0702  0.0557
25115W        W40924  14.941   9.422  15.374  0.0728  0.1353 -0.1025
25116W        W40925   8.538  15.641  15.499 -0.1474  0.2199  0.2888
25117W        W40926  17.445   9.583  13.741  0.1611 -0.1815 -0.0447
25118W        W40927   2.790  18.112  14.434  0.1458 -0.0594  0.0606
25119W        W40928   2.820  11.229   2.682 -0.0555  0.3010  0.0636
25120W        W40929  11.151   5.592  11.905 -0.3659  0.0327 -0.2121
25121W        W40930  17.524   3.960  11.311  0.0780 -0.1744  0.0588
25122W        W40931  15.861   5.672  12.325  0.0415  0.0893  0.0319
25123W        W40932  13.014   3.224  11.939 -0.0164 -0.0863  0.1087
25124W        W40933   0.311  17.551  10.440  0.0441 -0.2088  0.4352
25125W        W40934   3.431   1.725  14.203 -0.3488  0.2923 -0.1127
25126W        W40935   7.081  11.995   1.809 -0.1061 -0.2306  0.1875
25127W        W40936   9.283   5.829  12.195 -0.2538 -0.1947 -0.0440
25128W        W40937   0.628  13.878   0.518  0.3728  0.0636  0.1682
25129W        W40938   5.261  16.493  11.797  0.1544  0.1379 -0.1184
25130W        W40939  14.356  12.412  14.313  0.0524 -0.1689 -0.1474
25131W        W40940   1.247  14.880  13.248  0.0820 -0.0460 -0.1139
25132W        W40941   1.428  11.608   0.181  0.0706  0.1426 -0.0546
25133W        W40942   6.931  12.683  12.034 -0.3365  0.0973  0.1293
25134W        W40943   9.663   1.106  15.618 -0.0331 -0.2829  0.0701
25135W        W40944  12.107   0.772   1.871 -0.0552  0.0201  0.0926
25136W        W40945  10.939   3.445  13.908 -0.1902 -0.0322 -0.1767
25137W        W40946  12.233  13.657  15.442 -0.1389  0.2046 -0.0822
25138W        W40947   5.433  13.312  12.868  0.1149 -0.1137 -0.1314
25139W        W40948  12.289   8.799   2.438  0.2043 -0.0755 -0.1690
25140W        W40949   3.792  15.738  13.806 -0.0221  0.0661 -0.0904
25141W        W40950  13.707  16.604  11.978 -0.2658  0.0701 -0.0167
25142W        W40951   7.258  15.799   0.104  0.0956 -0.1959  0.0148
25143W        W40952  12.382   3.070   1.989  0.2472  0.0725 -0.4085
25144W        W40953  11.490  13.911  16.050  0.0606 -0.0790  0.0895
25145W        W40954   2.402   9.704   3.184 -0.0114 -0.0107  0.2192
25146W        W40955   0.131   7.100   0.772 -0.1282 -0.0399  0.1990
25147W        W40956   8.785   1.403  16.010  0.1053  0.1464 -0.0821
25148W        W40957   4.448   5.727  15.968 -0.0953  0.1046  0.1413
25149W        W40958  16.666   7.223   5.261  0.2788 -0.0745 -0.1958
25150W        W40959  16.705  12.870  10.227 -0.1300  0.1452  0.0028
25151W        W40960   9.866   0.074   3.942  0.1264 -0.1453  0.0585
25152W        W40961  10.543   3.388   1.934 -0.2334 -0.0491  0.2772
25153W        W40962  11.259   5.634   4.194  0.2425 -0.1399 -0.3341
25154W        W40963   8.634   7.951   0.534 -0.0246  0.0244 -0.0886
25155W        W40964   7.830   6.251  14.761  0.1450 -0.2012  0.0049
25156W        W40965   7.965  10.067   0.219  0.0822 -0.0850 -0.1411
25157W        W40966   2.392  15.652  10.492 -0.1185  0.1382  0.0757
25158W        W40967  13.526   6.150  15.946 -0.5114  0.0153 -0.2033
25159W        W40968  14.407  12.350  11.772 -0.1109  0.1009  0.0363
25160W        W40969  11.320   1.165   0.965  0.3684  0.0905 -0.0439
25161W        W40970  12.092  12.638  12.182  0.2860  0.0121 -0.0927
25162W        W40971  18.014   6.105  15.190  0.1294  0.0794 -0.0479
25163W        W40972   7.001  13.194   3.299  0.1701  0.0128  0.0372
25164W        W40973  14.275  11.001   0.362  0.2520 -0.0217 -0.2699
25165W        W40974  11.784  16.531   0.608  0.1299  0.0775 -0.3170
25166W        W40975  13.537   6.026  15.418 -0.2950  0.0729 -0.1201
25167W        W40976  17.156  17.527  15.731  0.0568  0.0246 -0.0452
25168W        W40977  14.253   5.620  15.819  0.1058 -0.3075 -0.2411
25169W        W40978  13.520   2.713   3.861 -0.0493 -0.4548 -0.0398
25170W        W40979   7.252  11.059   5.119  0.0560  0.1411 -0.1034
25171W        W40980  16.738   9.575  14.874 -0.0417 -0.2268 -0.2457
25172W        W40981   4.034   6.445   9.921 -0.0593 -0.3053 -0.0101
25173W        W40982  16.192  10.316   3.867 -0.1423  0.0348  0.1313
25174W        W40983   8.354  13.093  14.616 -0.1660 -0.0182 -0.1478
25175W        W40984  11.676  16.439   4.840  0.1502 -0.0103  0.1215
25176W        W40985   5.948   0.040  12.797 -0.0179 -0.0726  0.0192
25177W        W40986   1.716   2.354  15.766  0.1649  0.0240 -0.1264
25178W        W40987   5.914   1.944   4.439  0.1943  0.0248  0.1319
25179W        W40988  11.387   3.429  14.160  0.0655  0.1109  0.2465
25180W        W40989   4.041   5.678   2.029  0.0129  0.1441  0.0486
25181W        W40990   9.094   6.906  15.921  0.1161 -0.0809 -0.0423
25182W        W40991   5.586  11.417  12.477 -0.0025 -0.3358  0.0368
25183W        W40992  16.692  10.210   3.865  0.0663  0.0062 -0.0667
25184W        W40993  10.607   3.720  14.096 -0.2003 -0.0789 -0.2463
25185W        W40994   4.633  14.477  15.663 -0.2019  0.1566 -0.1005
25186W        W40995   4.022   7.804  14.211  0.1080  0.2250 -0.1827
25187W        W40996  12.168   9.918   3.434 -0.0969  0.1944  0.2520
25188W        W40997   8.510   6.400   5.115  0.0691  0.0516 -0.1557
25189W        W40998  13.001  18.071  12.976  0.2418  0.1663  0.4852
25190W        W40999  13.727  10.495   1.065  0.0711  0.0231 -0.0213
25191W        W41000   7.120  12.200   0.499 -0.0644  0.2434  0.0619
25192W        W41001  10.459  12.374   5.382  0.0802 -0.0690  0.1491
25193W        W41002  16.026   0.083   6.275  0.0451  0.0123 -0.0509
25194W        W41003  12.307   1.503  11.486  0.1531  0.0728  0.0156
25195W        W41004   8.697  14.538  13.548 -0.2755 -0.2988 -0.2667
25196W        W41005   2.345   8.797  12.429 -0.3275  0.0679 -0.0018
25197W        W41006  17.889  10.006   4.725  0.1612 -0.1572 -0.1538
25198W        W41007   5.941  12.129   5.500  0.0997  0.2760 -0.0226
25199W        W41008  11.977  17.410   5.584 -0.0930 -0.1195 -0.1406
25200W        W41009   3.073  14.500   5.108  0.2629 -0.2334  0.2885
25201W        W41010   8.275   4.177  13.937 -0.1450 -0.1959  0.1321
25202W        W41011   9.770  16.134   1.568 -0.2057 -0.0169 -0.0600
25203W        W41012   7.888  16.345  12.778 -0.0957 -0.1942  0.1308
25204W        W41013   3.918  10.531  11.163  0.0140  0.1839 -0.2536
25205W        W41014   3.606   1.536  12.362 -0.0402 -0.0576 -0.2110
25206W        W41015   3.590  14.158  11.450  0.1757 -0.1211  0.0112
25207W        W41016   2.470  15.373   4.936  0.0597 -0.0590  0.2242
25208W        W41017   9.801   8.451   2.949  0.0299  0.0677 -0.0265
25209W        W41018  16.557   9.574   0.621  0.0518 -0.0317 -0.6564
25210W        W41019   1.640  12.175   3.494 -0.1513  0.0580 -0.1046
25211W        W41020  12.668   4.130  11.057  0.3076 -0.1344 -0.1966
25212W        W41021  11.113  16.111  14.447 -0.2035 -0.1194 -0.0013
25213W        W41022   9.367  13.433   4.295  0.0297 -0.0083  0.2049
25214W        W41023  14.613  12.167   0.877 -0.0679  0.1383  0.0922
25215W        W41024  16.221  10.366   0.952  0.0915  0.2270 -0.0308
25216W        W41025   3.606   6.679  10.788  0.1058 -0.0468 -0.1458
25217W        W41026  14.754   5.795  14.036  0.0076 -0.0746 -0.2178
25218W        W41027   0.730  16.307  15.811  0.2455 -0.2045  0.1369
25219W        W41028   6.799  15.240  15.984  0.1478 -0.1325  0.1864
25220W        W41029   2.187   5.129   0.477  0.0163  0.0369  0.1528
25221W        W41030   1.896  10.099  13.415 -0.1458  0.0259  0.0078
25222W        W41031  10.493   3.347  11.354  0.1640  0.1090  0.1317
25223W        W41032  10.197   5.521  16.048 -0.0592  0.0972 -0.1239
25224W        W41033   1.994  10.546  15.359 -0.1028  0.0103  0.0407
25225W        W41034   9.222   3.433   0.005 -0.2753  0.0230  0.1995
25226W        W41035   5.201  14.038  12.449 -0.0118 -0.0905 -0.1353
25227W        W41036  17.731   2.085   4.773  0.2062  0.0966 -0.1324
25228W        W41037   0.801  10.435   0.498 -0.0168 -0.1079  0.1603
25229W        W41038   7.013  13.047   6.153  0.0130  0.0606  0.4507
25230W        W41039   4.512   7.072  15.311 -0.0043 -0.2422 -0.0306
25231W        W41040   1.793   4.030   0.785  0.2328  0.0744  0.0553
25232W        W41041  17.916   9.694   3.580 -0.2148  0.3415  0.1320
25233W        W41042   3.911  14.998   2.617  0.0461  0.0308  0.0314
25234W        W41043  14.915  15.372  14.490  0.2243 -0.0620 -0.0083
25235W        W41044  16.509   5.100  14.710 -0.1302 -0.2353  0.0560
25236W        W41045   1.365   4.832   3.377  0.3590 -0.0599 -0.1546
25237W        W41046   8.392  12.513   0.408 -0.1910 -0.0363  0.3302
25238W        W41047   2.150   7.316  10.866  0.0005 -0.1670 -0.0582
25239W        W41048   3.444  11.794  14.026  0.0544 -0.3476 -0.0336
25240W        W41049  17.606  10.236   9.994  0.0181  0.1319  0.1540
25241W        W41050   6.382  15.500  11.441 -0.4961  0.0796 -0.1343
25242W        W41051   5.077  14.759   5.258 -0.2092 -0.0854 -0.1458
25243W        W41052  16.889   3.279   4.755 -0.0219  0.1152  0.2758
25244W        W41053  12.810  12.754   1.962  0.2586  0.0014  0.0226
25245W        W41054  10.038   1.319  13.897  0.1218  0.0715  0.3082
25246W        W41055  11.386   4.294   4.436 -0.0211 -0.0248  0.2304
25247W        W41056  12.337   7.692   3.444 -0.1092 -0.1368 -0.1344
25248W        W41057  14.201  11.856   4.913 -0.3037 -0.2104  0.2312
25249W        W41058   4.215  17.869  15.234 -0.0435 -0.0467 -0.3315
25250W        W41059   4.355   0.909   1.077 -0.0587  0.2686 -0.2178
25251W        W41060  12.233  12.412   4.418 -0.3315  0.0387 -0.5102
25252W        W41061  11.763   5.686   4.112  0.1260  0.2342 -0.0715
25253W        W41062   6.873   3.449   3.808 -0.0549 -0.1247  0.0131
25254W        W41063   4.484   1.636  15.658 -0.2508  0.1297  0.0684
25255W        W41064  12.773  11.865  10.475 -0.0594  0.0502  0.0587
25256W        W41065   5.996   0.426   5.665 -0.2336 -0.1385  0.1989
25257W        W41066  13.934   1.064   5.591  0.1359 -0.2511 -0.3678
25258W        W41067   9.503  16.542   1.298 -0.2251  0.1067  0.1784
25259W        W41068   3.714   6.414   0.234 -0.0076  0.3323 -0.1664
25260W        W41069  11.631   8.899  12.621 -0.1091 -0.3451 -0.2911
25261W        W41070   1.026  13.024   3.740  0.3240 -0.1727  0.0680
25262W        W41071  14.349  13.780   0.398  0.2657 -0.0041  0.1141
25263W        W41072  10.069  17.419   4.960 -0.2296  0.2217 -0.1312
25264W        W41073   1.367   0.843   5.110  0.0375 -0.0465  0.1526
25265W        W41074  12.669  15.834  14.334 -0.3914  0.0915 -0.4055
25266W        W41075   3.727  13.009   5.691 -0.1957 -0.0586  0.0519
25267W        W41076  10.002   5.129  13.171  0.0158 -0.0583 -0.1140
25268W        W41077   3.948   6.334   1.757  0.1670  0.0141 -0.1317
25269W        W41078  13.720  10.963   0.693  0.0992  0.0071 -0.1515
25270W        W41079  13.709  12.566   0.711 -0.2254  0.1409 -0.2340
25271W        W41080   9.934  10.597   2.367 -0.0421  0.0857  0.2571
25272W        W41081  15.299  11.303  15.739 -0.0565 -0.0420 -0.0725
25273W        W41082  14.454   9.581   4.718 -0.0546  0.3403 -0.0466
25274W        W41083   2.043  17.832   3.823 -0.0050  0.2131 -0.0431
25275W        W41084  17.134  10.600  15.454  0.2453  0.0174 -0.0493
25276W        W41085   8.848  15.239  12.245 -0.0805  0.0700  0.0398
25277W        W41086   0.288   8.088  13.660 -0.3312 -0.1366 -0.2821
25278W        W41087   3.497  11.191  11.581  0.0516  0.4193 -0.1149
25279W        W41088   6.341   3.248   5.067 -0.0194  0.2663  0.0967
25280W        W41089   6.498   7.917   2.011  0.1888  0.3334  0.0479
25281W        W41090   3.709   3.568   0.780 -0.1166  0.1991 -0.2127
25282W        W41091   2.048   0.069  11.049 -0.0037  0.0516 -0.1763
25283W        W41092   5.501   8.477  14.489 -0.3959  0.0813 -0.0083
25284W        W41093   9.935  11.209   2.984  0.0663 -0.0896 -0.0470
25285W        W41094  13.320  11.999  15.149 -0.2503  0.0368  0.0977
25286W        W41095   7.764  11.697  12.876 -0.2319 -0.1837 -0.3524
25287W        W41096   5.091  16.494  12.894  0.0907  0.0227  0.2070
25288W        W41097  11.816  11.704   3.650  0.2941  0.2078 -0.0269
25289W        W41098   4.910   8.450  14.115 -0.0746  0.1862  0.2282
25290W        W41099   0.735   8.067   4.777  0.1505 -0.1284  0.0404
25291W        W41100  12.895   9.520   1.814  0.2265 -0.1772  0.1351
25292W        W41101   6.785   2.643  15.158  0.2201  0.2916  0.0175
25293W        W41102   2.234  13.644  12.328 -0.1136  0.1600 -0.1847
25294W        W41103   5.317   2.024  15.960 -0.1411 -0.0580  0.0183
25295W        W41104  12.652   4.454  14.865  0.2883  0.2378 -0.2793
25296W        W41105   4.121   7.399  14.473  0.3993 -0.1090  0.1398
25297W        W41106  16.772  16.573   4.332 -0.0966 -0.0287 -0.1035
25298W        W41107  13.838   8.083   1.599 -0.2091  0.2534  0.1195
25299W        W41108  17.588  16.844  12.637  0.0414 -0.0261  0.1322
25300W        W41109   7.093  16.449  14.482 -0.1456  0.0212  0.1207
25301W        W41110  12.899   5.307  15.617 -0.0263 -0.2487 -0.0683
25302W        W41111   6.564   7.120  13.900  0.2460  0.1461  0.1779
25303W        W41112  14.864   6.136  14.884 -0.0014  0.0598 -0.0804
25304W        W41113   6.914   4.484  11.602  0.1605  0.0407  0.1301
25305W        W41114  11.336  17.673   4.716 -0.0506  0.1063 -0.1152
25306W        W41115  12.829  12.587   4.037  0.0274 -0.0381 -0.1431
25307W        W41116  15.917  15.520  11.744 -0.1708 -0.0147 -0.0610
25308W        W41117  17.699   6.826  12.864 -0.1784  0.0449 -0.0222
25309W        W41118  17.267  16.933   1.817  0.0774 -0.0976  0.2341
25310W        W41119  10.629   4.081   4.890  0.1265 -0.0598  0.0110
25311W        W41120  16.436   5.796   2.311 -0.1317  0.1667 -0.1810
25312W        W41121   0.571   7.129  13.822  0.0545  0.0209 -0.2199
25313W        W41122   1.381  15.669   4.519  0.3126  0.1408 -0.0845
25314W        W41123   9.629   2.332  13.834 -0.0011  0.1861  0.0509
25315W        W41124  10.860  16.980   5.168 -0.0082  0.0927  0.1933
25316W        W41125   8.969  13.973   3.695 -0.1012 -0.1318  0.0001
25317W        W41126  17.934   0.704   4.714  0.0890 -0.1401 -0.3145
25318W        W41127   3.395   1.329   5.317  0.2526  0.3576 -0.1510
25319W        W41128  16.736  15.603  14.216 -0.0992  0.0193 -0.0418
25320W        W41129   8.922   4.685  14.511 -0.2470  0.1726 -0.0820
25321W        W41130   4.729   5.175  11.409  0.2304  0.2133 -0.2182
25322W        W41131   5.185  12.177  13.173 -0.1055 -0.0783 -0.2975
25323W        W41132  12.170   9.238  15.054 -0.1860 -0.1187 -0.0470
25324W        W41133  16.303  16.219  14.531 -0.1529 -0.2287  0.2028
25325W        W41134   9.530  11.903  15.681 -0.1058  0.1264 -0.1587
25326W        W41135   4.735  14.331  15.177 -0.0837  0.1685  0.0609
25327W        W41136  11.006   5.141   0.059  0.1215  0.0808 -0.1738
25328W        W41137  10.514   6.673   3.368  0.0315 -0.3023  0.2686
25329W        W41138  11.011  15.141   4.963 -0.0705  0.5350  0.1858
25330W        W41139   2.300  15.016  12.389 -0.2879  0.3058 -0.3255
25331W        W41140   7.755   8.779  15.470  0.4789 -0.1146 -0.0625
25332W        W41141   1.211  13.759  11.293  0.0988 -0.1692  0.1977
25333W        W41142  13.536  14.788  13.758  0.2508 -0.0573 -0.1415
25334W        W41143   9.407  11.840  10.862 -0.0729 -0.0247  0.2444
25335W        W41144   2.971   2.726   0.299  0.0727 -0.0212 -0.0141
25336W        W41145   9.951  15.415  12.780  0.1360 -0.0192 -0.2073
25337W        W41146   6.087  16.378  10.876  0.1287  0.2934  0.2992
25338W        W41147   5.563  12.280  12.863 -0.0051  0.0707  0.0372
25339W        W41148   8.705   7.629  11.266  0.1246 -0.1856  0.1586
25340W        W41149   9.371   2.991   1.441 -0.1373  0.0098 -0.0992
25341W        W41150   7.378  15.808  12.109 -0.2038  0.1268  0.2377
25342W        W41151  11.234   1.388   5.162 -0.2141  0.1029  0.1932
25343W        W41152   8.386   7.007  12.396 -0.2417  0.0228  0.1190
25344W        W41153   0.379  15.563   3.926  0.3896  0.1899 -0.0182
25345W        W41154  17.201  10.809  14.090 -0.0355 -0.2191 -0.1416
25346W        W41155  17.373   6.924   0.463  0.2779  0.1316  0.1738
25347W        W41156   8.164  11.257   0.706 -0.1187 -0.0606  0.1771
25348W        W41157   2.822  16.029  15.588 -0.0780 -0.1802 -0.0692
25349W        W41158  14.225  17.074  15.183 -0.1768  0.3105 -0.2376
25350W        W41159   2.967  16.545   0.930  0.0090  0.1294 -0.2723
25351W        W41160  12.046   0.275  12.895  0.0756 -0.0557  0.2650
25352W        W41161   3.464   3.878  15.763 -0.0790 -0.2309  0.1886
25353W        W41162  12.817   6.536   2.105 -0.1746 -0.1388  0.1301
25354W        W41163   6.565  12.301   3.521 -0.2486  0.0814  0.0764
25355W        W41164   5.772  13.223   1.247  0.0947 -0.0994 -0.3319
25356W        W41165   4.969  14.464  12.291  0.0769 -0.0456 -0.0487
25357W        W41166  16.733  13.983   4.746  0.0500 -0.1218 -0.0797
25358W        W41167   8.647  13.398   0.245  0.1319 -0.0198 -0.2570
25359W        W41168   4.537  14.776   0.931  0.1826  0.3884 -0.0344
25360W        W41169  15.435  15.893   4.919 -0.1353 -0.1699  0.2817
25361W        W41170  14.088   1.373  14.732 -0.3107 -0.0807  0.3528
25362W        W41171   2.846   6.063  12.329 -0.0420  0.2603 -0.0052
25363W        W41172  14.690  16.873  15.968 -0.0647 -0.0962  0.2138
25364W        W41173   1.994   8.465   2.973 -0.1199  0.2518  0.0058
25365W        W41174   0.635   5.754  15.007 -0.0460 -0.0109  0.3272
25366W        W41175  10.210   9.026  15.359 -0.0362  0.1708  0.1523
25367W        W41176   5.692   0.149  15.422  0.0270 -0.2359 -0.1208
25368W        W41177  12.731  11.146  14.785 -0.1521 -0.1354 -0.0684
25369W        W41178   6.481   1.129  14.114  0.1858 -0.0328  0.2740
25370W        W41179  10.189   9.709   2.629  0.2191 -0.0055 -0.0684
25371W        W41180   2.981  16.791  15.838  0.1740 -0.1806 -0.1446
25372W        W41181   1.772  17.989   1.353 -0.0248  0.1483 -0.0738
25373W        W41182  14.958   6.560   2.466 -0.1373  0.2695  0.0022
25374W        W41183  16.616  14.057  14.637  0.2468 -0.1257 -0.0616
25375W        W41184  10.075   8.805  14.502 -0.0099 -0.3861 -0.2923
25376W        W41185   8.152  15.780   4.966  0.0227 -0.1115 -0.3128
25377W        W41186  10.827  17.413   0.330  0.1513  0.0347 -0.0343
25378W        W41187   1.164   0.042  15.032  0.1054 -0.1644  0.3129
25379W        W41188   2.223  15.172   2.494  0.0080 -0.2464  0.1273
25380W        W41189  10.714  10.599   3.516  0.0428 -0.1101  0.0722
25381W        W41190  10.892   1.470   2.999  0.3113 -0.0878  0.0787
25382W        W41191  12.732   2.587  11.053 -0.0559  0.0790 -0.1095
25383W        W41192  14.768   0.885  11.897 -0.2453 -0.5381 -0.0614
25384W        W41193   5.809  15.589   4.467 -0.1368 -0.0815  0.0808
25385W        W41194   8.900   9.114  14.923  0.0399 -0.0448  0.3434
25386W        W41195   4.778  13.519  15.541 -0.2658 -0.2471 -0.0317
25387W        W41196  10.371  16.822   4.398 -0.0254 -0.0906  0.0167
25388W        W41197  14.305  13.855   1.826  0.2491  0.0002  0.1484
25389W        W41198  13.616   6.782   3.733 -0.2709 -0.1107  0.0265
25390W        W41199   9.676   9.529   2.147 -0.0072 -0.1135 -0.3617
25391W        W41200   1.229  15.952  12.842 -0.2661 -0.0212  0.0616
25392W        W41201   7.411   6.398   2.609 -0.3148  0.2526 -0.1521
25393W        W41202   6.465   9.866   0.542  0.1906 -0.2391 -0.3238
25394W        W41203  12.843  11.466  12.588 -0.2289 -0.0432 -0.1463
25395W        W41204  14.225   0.962   4.802  0.2856 -0.2107  0.0238
25396W        W41205   0.172   8.013   5.467 -0.2972  0.0188  0.0920
25397W        W41206  10.887   4.196   0.177 -0.0876 -0.1321  0.0499
25398W        W41207   6.924  18.063  15.139 -0.1364 -0.0439 -0.1270
25399W        W41208   9.023  12.586  13.649  0.2972  0.1018 -0.0238
25400W        W41209  12.111  10.761   0.375 -0.0410 -0.3358 -0.0334
25401W        W41210   0.020  14.342  11.965 -0.1684  0.1790 -0.2632
25402W        W41211   8.743   7.051  10.448  0.0329 -0.0455 -0.1595
25403W        W41212   5.420  13.983  15.592  0.2493 -0.0655 -0.0162
25404W        W41213  14.145   2.322   0.854 -0.0708  0.0761  0.2574
25405W        W41214  13.605  16.695   1.051  0.1211 -0.0765  0.0341
25406W        W41215  13.758   7.635  12.914 -0.0933  0.0041  0.1947
25407W        W41216   6.903   3.045  11.169  0.1487  0.4059 -0.0968
25408W        W41217   1.202   7.840   1.341  0.1068  0.0117 -0.1872
25409W        W41218   2.547  10.359   0.931 -0.2935 -0.0594 -0.1028
25410W        W41219  15.541  16.104   1.904  0.1050 -0.0517 -0.0300
25411W        W41220  14.103   6.032  13.805 -0.0447  0.1900  0.0690
25412W        W41221  14.742  11.040  11.481  0.1070  0.0221 -0.0034
25413W        W41222  17.322  18.032  13.554 -0.0100  0.2558 -0.0268
25414W        W41223   7.504  16.924  12.788 -0.0535 -0.2157 -0.0656
25415W        W41224   3.124   3.892   0.711  0.0969 -0.0997  0.1686
25416W        W41225  17.129  10.240   4.150 -0.0353 -0.0789  0.1236
25417W        W41226   7.651   1.387   2.886  0.0802  0.2947  0.0840
25418W        W41227  11.450   7.605  14.196  0.0243 -0.1635  0.1205
25419W        W41228   4.106  14.691  13.321  0.0009  0.1529 -0.2529
25420W        W41229  14.976   9.132  15.945 -0.0470 -0.2874 -0.0514
25421W        W41230   8.103   2.580  12.918 -0.0725 -0.3220 -0.1384
25422W        W41231   3.225  11.038   1.192 -0.0330 -0.0134 -0.0126
25423W        W41232   4.505   9.683   3.291 -0.1621  0.0374 -0.0989
25424W        W41233  13.904   5.771  12.197 -0.1057 -0.0430 -0.0057
25425W        W41234  18.032   3.740   5.742 -0.0288 -0.1312 -0.1681
25426W        W41235  14.343   0.209   3.747  0.1068  0.1243 -0.0645
25427W        W41236  15.217   8.720  15.644  0.1955 -0.1809  0.0715
25428W        W41237   8.513   5.975  13.905  0.1621  0.2054 -0.0933
25429W        W41238   1.198  17.235   1.200 -0.0355 -0.3781 -0.0780
25430W        W41239   1.417  14.752  15.232 -0.3266 -0.0917 -0.0153
25431W        W41240  14.293   0.269  14.147 -0.0769  0.1194  0.1912
25432W        W41241   5.699  14.772   5.171  0.0940  0.3593  0.0622
25433W        W41242  12.130   4.811  11.951 -0.0609 -0.2162 -0.1409
25434W        W41243  10.952  12.827  13.869  0.0486  0.4481 -0.0604
25435W        W41244   3.900  15.209   4.534  0.2304 -0.3123  0.0926
25436W        W41245   5.532  13.073   0.209  0.1066 -0.0487  0.2492
25437W        W41246   1.039   8.460  12.329 -0.1260 -0.2193 -0.0636
25438W        W41247   8.795  13.537   1.682 -0.2461 -0.0550  0.4655
25439W        W41248   2.020  14.197   2.572 -0.0997 -0.1396  0.1474
25440W        W41249   3.319  15.711  15.331 -0.1436 -0.0359 -0.1460
25441W        W41250  15.563   7.188   2.194  0.0576  0.0116  0.0804
25442W        W41251   1.529   1.548   4.425 -0.1794  0.0259 -0.2660
25443W        W41252   6.633   7.093  15.632  0.0673 -0.0663 -0.0383
25444W        W41253   2.754  12.408  13.172  0.1791  0.1868  0.0209
25445W        W41254  17.857   2.158  14.237  0.2662  0.1332 -0.0952
25446W        W41255  17.055   0.306  15.183 -0.1107 -0.0920  0.1768
25447W        W41256  14.248   1.823  15.518 -0.1397 -0.0662  0.0932
25448W        W41257  16.532   9.706   5.145 -0.2338  0.0714 -0.1329
25449W        W41258  11.232  11.816  11.413  0.4376  0.3876 -0.0321
25450W        W41259  10.615   3.939   2.048 -0.3088  0.0506  0.1503
25451W        W41260  13.489  12.733   1.106  0.1908 -0.1135  0.2299
25452W        W41261   2.997  13.209   0.709 -0.2067  0.0563  0.1076
25453W        W41262   6.248   4.432   3.701 -0.0714  0.0229  0.1020
25454W        W41263   3.474   8.101   0.815 -0.0591  0.0803 -0.0029
25455W        W41264  10.305   4.886  15.295 -0.0751 -0.3272  0.1919
25456W        W41265  16.092  10.339  11.771 -0.0582  0.1222  0.1476
25457W        W41266  11.159  16.493   1.183  0.0690  0.1398  0.3035
25458W        W41267   6.727  17.602   2.547  0.1089 -0.2345  0.2654
25459W        W41268   8.329  16.770  15.697  0.1369  0.4379  0.1612
25460W        W41269  16.241  18.016  12.276  0.3726 -0.1625 -0.0457
25461W        W41270   9.127   7.765  14.777 -0.3607 -0.1994 -0.1835
25462W        W41271   0.765   7.562  12.061 -0.0094 -0.1728 -0.1535
25463W        W41272  17.881  10.634  12.826 -0.0654 -0.3145  0.1555
25464W        W41273   2.044   5.914   1.750 -0.0088 -0.0091  0.2940
25465W        W41274  14.140  10.080  11.508 -0.2132 -0.1302 -0.2819
25466W        W41275  12.137  15.313  12.148 -0.1093  0.2576  0.1637
25467W        W41276   2.502  13.799  15.245 -0.2828  0.2273 -0.2665
25468W        W41277   9.689   0.507   3.770  0.0435 -0.0119  0.0300
25469W        W41278  13.980   2.937   2.591  0.0588  0.4368 -0.2192
25470W        W41279   8.681   0.117  13.072 -0.2735  0.0006  0.1121
25471W        W41280  14.719  14.489  13.345  0.1649 -0.2104  0.1363
25472W        W41281   1.620   8.341  15.615  0.0041 -0.3072 -0.1600
25473W        W41282  17.097   1.428   3.752  0.0857  0.1273 -0.0812
25474W        W41283   9.288  15.902   9.802 -0.0883 -0.0423  0.0988
25475W        W41284   5.531   0.342  13.996 -0.1851  0.0564  0.1486
25476W        W41285   1.443  11.856   3.073 -0.2906  0.1488  0.0516
25477W        W41286  10.416  17.942   3.193 -0.1530  0.0655  0.0386
25478W        W41287   0.699   9.268   1.474  0.2020 -0.0552 -0.0636
25479W        W41288   9.455   5.957   5.316  0.0291 -0.1595  0.1563
25480W        W41289   6.481  15.890  14.045  0.0856  0.1841  0.2650
25481W        W41290  11.591  13.417   0.250 -0.0678 -0.1152 -0.2745
25482W        W41291   3.021   8.053  14.044 -0.0233 -0.1392 -0.0343
25483W        W41292   1.311   7.278  11.929 -0.1680 -0.2163 -0.2934
25484W        W41293   8.997   4.985   3.217  0.0649  0.0025  0.0676
25485W        W41294  16.573   1.929  12.349  0.0795 -0.0032  0.0449
25486W        W41295  15.168  13.161   0.024  0.0766  0.1386  0.2276
25487W        W41296   4.672   0.769  13.655  0.0727 -0.1498 -0.1322
25488W        W41297   9.706   3.519   3.157  0.1070  0.0518 -0.2261
25489W        W41298   4.522  15.876   0.830 -0.1851 -0.2063 -0.2356
25490W        W41299   8.838   7.329  14.735  0.0991  0.0534  0.1143
25491W        W41300  12.234  18.266   2.023  0.1254 -0.1421 -0.1578
25492W        W41301  13.637  17.184   2.729  0.0548 -0.1029 -0.0251
25493W        W41302   1.086   7.400  10.051 -0.1002  0.1189  0.1796
25494W        W41303  15.468  16.871  15.561 -0.1045 -0.1410 -0.1946
25495W        W41304   9.298   1.061  13.397  0.1214  0.1159  0.1493
25496W        W41305  11.597   6.096   5.514 -0.4145 -0.3910  0.0685
25497W        W41306   8.388  15.601  11.715  0.1443 -0.3187  0.0566
25498W        W41307   8.872  12.546   2.308  0.0642 -0.0517  0.1018
25499W        W41308  11.509   7.695  14.695 -0.0214 -0.2091 -0.0534
25500W        W41309   7.514   4.647   9.801  0.0652 -0.1013 -0.0965
25501W        W41310   3.831   2.144  12.553  0.2396 -0.3076 -0.3435
25502W        W41311  12.297  14.234   3.838 -0.2723  0.1482  0.1126
25503W        W41312  10.954   6.995   4.697 -0.1905 -0.0457  0.0302
25504W        W41313  14.345   0.188  12.893 -0.0781 -0.3335  0.0690
25505W        W41314  17.886  10.544  13.857 -0.2013  0.0951  0.1164
25506W        W41315  13.045  10.328   0.256 -0.0977 -0.0801  0.2873
25507W        W41316  11.091  15.454  11.094 -0.0274 -0.2148 -0.0625
25508W        W41317  16.761   4.874  13.202  0.2148  0.1628  0.0810
25509W        W41318   3.812   9.451   1.402 -0.1110 -0.1210  0.1195
25510W        W41319   2.678  16.342  13.992 -0.2536  0.0085 -0.1353
25511W        W41320  17.905   6.470   2.593  0.0243  0.1815  0.2802
25512W        W41321  18.049  13.719   0.848 -0.3628 -0.0601  0.0664
25513W        W41322   9.490  15.650  15.275 -0.0822  0.2621  0.3095
25514W        W41323  11.673  12.482   2.593  0.0667  0.1186  0.2467
25515W        W41324   2.653  18.055   1.452  0.0250  0.0342  0.0117
25516W        W41325  12.098  15.688   4.658  0.0890  0.0663 -0.0009
25517W        W41326   4.834   3.948   0.170  0.3800 -0.0827 -0.1570
25518W        W41327  11.802   1.438   3.723  0.0154  0.0441  0.1415
25519W        W41328   5.390  15.745   0.095 -0.1040 -0.0096  0.1468
25520W        W41329   2.335  15.808   6.185 -0.1128  0.0051 -0.0541
25521W        W41330   7.046   5.576   1.727  0.0572  0.2646 -0.2018
25522W        W41331   3.753   7.443   2.353  0.1350  0.0052  0.2177
25523W        W41332   0.961   8.348   5.205 -0.0945 -0.1641  0.3289
25524W        W41333   4.648   2.693   0.977  0.0914 -0.1174 -0.0342
25525W        W41334   5.896  11.521   0.933 -0.1147  0.2368  0.0393
25526W        W41335   3.164   9.305  13.752 -0.3278 -0.0108 -0.0920
25527W        W41336   5.927   3.998  12.806 -0.0088  0.0747  0.0718
25528W        W41337  16.413  14.585   3.561  0.1232 -0.0844 -0.1265
25529W        W41338  10.777  10.854  12.131  0.2149  0.1748 -0.0860
25530W        W41339   3.109   1.411   4.312  0.0018  0.1152 -0.0301
25531W        W41340   0.279  16.655   0.629  0.1420 -0.0572 -0.3198
25532W        W41341   4.863  17.552   0.547  0.2030  0.2271  0.0425
25533W        W41342  12.936  10.815   4.177 -0.0872 -0.1812 -0.2646
25534W        W41343   3.628   9.400  13.041  0.0931 -0.1474 -0.0310
25535W        W41344  16.560   1.402   3.682 -0.1019 -0.0882 -0.1479
25536W        W41345  16.968  16.747   1.444  0.3576 -0.0715 -0.0465
25537W        W41346   8.270  10.792  12.107  0.1801 -0.1829  0.1091
25538W        W41347   6.515   5.297  10.349 -0.1148 -0.0182 -0.1471
25539W        W41348   0.706  12.221   1.180 -0.2545 -0.0127  0.0328
25540W        W41349  10.213  14.302  14.547  0.1447  0.1031 -0.0622
25541W        W41350   9.372  13.360  14.777 -0.3264  0.2255  0.1782
25542W        W41351   0.709   4.558   2.273  0.0668 -0.4466 -0.0320
25543W        W41352  17.262   2.469  14.142  0.2672 -0.1489  0.2189
25544W        W41353   9.160   1.272  14.847  0.1003 -0.2732 -0.0916
25545W        W41354  10.068   5.556   2.580 -0.0099  0.2069  0.0322
25546W        W41355   9.522   2.256   0.849  0.0154  0.1400 -0.3459
25547W        W41356   1.459  10.629  11.265 -0.1988 -0.0575  0.0370
25548W        W41357   9.546   1.278  15.151  0.1260 -0.1799  0.0077
25549W        W41358  17.993  15.251   3.393 -0.0154 -0.1288 -0.2283
25550W        W41359   4.959  10.657   0.120  0.0289  0.3010 -0.0063
25551W        W41360   4.354  10.695  13.295  0.0509  0.0203  0.3825
25552W        W41361   3.679  18.233   5.028  0.0505 -0.1218  0.1557
25553W        W41362  14.471  15.617  12.602 -0.1486  0.0519 -0.1593
25554W        W41363  18.001  11.972   3.260 -0.1848 -0.1107  0.0406
25555W        W41364   1.748  12.370   1.471  0.1634 -0.1188 -0.1036
25556W        W41365   0.965   6.243  14.200 -0.0080  0.2288 -0.1360
25557W        W41366   9.947   8.475   4.749  0.0541 -0.1367 -0.2916
25558W        W41367  15.619   7.500  15.714  0.1305 -0.1870  0.1170
25559W        W41368  17.215  14.180  12.898  0.0745  0.0408  0.0617
25560W        W41369  12.825   1.598   2.591 -0.2084 -0.0678  0.4687
25561W        W41370   6.969  15.646  11.478  0.1403  0.2034 -0.0798
25562W        W41371  16.025   2.741  15.116 -0.0125  0.1517 -0.2597
25563W        W41372   2.077  10.178   0.659 -0.1811  0.1685 -0.4208
25564W        W41373  15.361  15.853  16.060 -0.1170 -0.2321 -0.1531
25565W        W41374   7.296   1.623   1.139  0.0885  0.3565 -0.0397
25566W        W41375  15.513  13.545  11.477 -0.0785 -0.0437  0.0638
25567W        W41376  13.503   9.303  16.045 -0.3686  0.0332 -0.1063
25568W        W41377   3.124   1.761   0.377 -0.3066  0.2703  0.0083
25569W        W41378   0.875   4.444   5.360  0.0722  0.0450  0.0636
25570W        W41379   7.907  15.241   1.366  0.0063  0.0956 -0.1172
25571W        W41380   6.603   4.236   0.626  0.3700  0.0544  0.0506
25572W        W41381  12.100   9.849  15.024  0.2607 -0.3072  0.4770
25573W        W41382   7.384  11.095  10.708  0.0502 -0.0429  0.1502
25574W        W41383  17.279  17.188   1.428  0.1279 -0.1505  0.1109
25575W        W41384  18.134  15.804  11.418  0.4314 -0.0465  0.3334
25576W        W41385  17.782   8.503   1.696  0.2470 -0.1288 -0.1209
25577W        W41386   4.622   9.090  14.042 -0.1920 -0.2613 -0.0302
25578W        W41387   2.949  12.407  11.512 -0.3175 -0.0871  0.0389
25579W        W41388  15.668   8.476  12.245  0.0177 -0.0769  0.0150
25580W        W41389  18.192  10.308   2.950  0.1600  0.0705 -0.3408
25581W        W41390   2.400  12.179   2.942 -0.1099 -0.0953  0.1638
25582W        W41391   6.689  11.266   5.443 -0.1655 -0.1157  0.1351
25583W        W41392  11.203   2.614  13.403  0.1402  0.1407  0.0117
25584W        W41393   6.236   1.459  14.406 -0.0260 -0.0247  0.0531
25585W        W41394  15.188  17.739   3.889 -0.0115 -0.0722 -0.1572
25586W        W41395   9.723   2.481   3.970 -0.0296 -0.1568  0.0206
25587W        W41396  15.874  14.190   2.680  0.2476 -0.1446  0.1914
25588W        W41397   6.836   4.857  12.373  0.0728  0.1218 -0.1730
25589W        W41398   6.281  17.261  13.896 -0.2345  0.3041  0.0839
25590W        W41399   7.471  11.572  16.040  0.0629  0.1841 -0.0234
25591W        W41400   5.587  16.748   1.300 -0.4167 -0.0036 -0.0275
25592W        W41401   9.565   4.798  12.021  0.1023  0.2144  0.1852
25593W        W41402   8.230   2.321   5.673 -0.0932 -0.0489  0.2183
25594W        W41403  15.838   3.394   3.660 -0.1706  0.3645 -0.1978
25595W        W41404  10.648   7.260  15.546 -0.0870  0.0765 -0.0645
25596W        W41405  17.458   0.766  14.989 -0.4528 -0.0057 -0.2630
25597W        W41406   7.500   3.259  12.958 -0.0014  0.0142  0.0783
25598W        W41407  15.557   9.389  11.653  0.0401 -0.0700  0.0572
25599W        W41408  16.846   4.647   1.509  0.1013  0.2703  0.2688
25600W        W41409   4.922   7.508   0.930  0.1462  0.0419  0.1914
25601W        W41410  13.893   6.784   5.059  0.1449 -0.1669 -0.0448
25602W        W41411  15.209  10.711  14.109 -0.1203  0.0306 -0.2482
25603W        W41412   8.799  10.809  15.032  0.0064 -0.1510  0.3459
25604W        W41413   1.924   8.875  11.688 -0.0230 -0.1086  0.0574
25605W        W41414  14.088   9.617   2.592 -0.0053  0.0635  0.1209
25606W        W41415   3.533  14.563  13.068  0.2331  0.1094 -0.1159
25607W        W41416   2.049   6.527  13.340  0.0368  0.1147 -0.0811
25608W        W41417  11.113  13.987   4.448 -0.0262 -0.2238 -0.0833
25609W        W41418   3.581   5.385   1.828  0.0689  0.0081 -0.1695
25610W        W41419   9.265  16.622   4.743  0.0859 -0.1380  0.0193
25611W        W41420   7.615  13.267  12.044  0.0106 -0.1840 -0.1454
25612W        W41421   4.885  13.659   1.684 -0.1177  0.1787  0.0835
25613W        W41422  12.085   0.257  15.570  0.1347  0.0060  0.1593
25614W        W41423  11.063  15.353  14.900  0.1853  0.1079  0.1950
25615W        W41424  16.212   1.898   5.687 -0.2396  0.0253  0.1947
25616W        W41425   1.452  10.769  12.765  0.0286  0.1965 -0.1943
25617W        W41426   9.614   2.081   1.763  0.2009 -0.0505 -0.1750
25618W        W41427  12.688  16.766  11.208 -0.0316 -0.1939  0.0145
25619W        W41428  14.232   6.821   5.490  0.1134  0.0378 -0.1596
25620W        W41429  16.840   1.994   1.290  0.0845 -0.3210  0.0569
25621W        W41430   8.042   2.813  15.786  0.0583  0.2740 -0.1847
25622W        W41431   9.976  11.091  14.725  0.0684  0.1302 -0.3566
25623W        W41432  18.103   5.691   1.821  0.1762 -0.0211 -0.0049
25624W        W41433  14.694  12.826  10.589  0.2353 -0.1673 -0.1134
25625W        W41434  10.352  11.353   0.705 -0.1386 -0.0351  0.0463
25626W        W41435   4.875   5.013   5.202  0.0306  0.0139  0.2010
25627W        W41436   2.587   8.936   1.053  0.0655  0.0349 -0.0196
25628W        W41437  11.133  16.042   1.424  0.0613  0.2342  0.0850
25629W        W41438   3.359  15.325   5.917 -0.0314  0.0878  0.0115
25630W        W41439  13.000   8.216  13.797  0.2348 -0.2727 -0.1960
25631W        W41440  16.160  11.403   1.312 -0.0682  0.0342  0.0397
25632W        W41441   0.684  11.706  11.594  0.1182 -0.0048  0.1067
25633W        W41442   8.858   3.235  12.079 -0.0724 -0.1208 -0.1494
25634W        W41443   6.287  10.162   3.314  0.0177 -0.0257 -0.3304
25635W        W41444   4.728   2.810  15.147 -0.1129  0.0627 -0.0270
25636W        W41445  16.650  14.452  12.145 -0.2091  0.1766  0.0113
25637W        W41446   9.925  13.465   5.061 -0.0558 -0.0207  0.2172
25638W        W41447   1.281  17.970  12.867  0.0798 -0.0799  0.0583
25639W        W41448  15.727   8.207   2.967 -0.1081 -0.1360  0.1766
25640W        W41449  16.428  16.408   0.777  0.0878 -0.1500  0.0778
25641W        W41450   1.468  17.683   2.782  0.0755 -0.2929 -0.2129
25642W        W41451  16.943   5.092   1.340 -0.3729 -0.0040 -0.0035
25643W        W41452  11.115  14.031   5.028  0.0891  0.1283 -0.0986
25644W        W41453  15.761  11.579   5.189  0.0591  0.0029 -0.1113
25645W        W41454   2.345   9.259   4.482 -0.0127 -0.1964 -0.0058
25646W        W41455  16.566  10.229  14.503  0.0558 -0.3190 -0.0365
25647W        W41456  14.459   1.628  15.962 -0.2658  0.0193  0.3668
25648W        W41457   6.499   1.592  13.889  0.1035  0.1453  0.0516
25649W        W41458   0.427   8.449   5.431 -0.2731 -0.0301 -0.0437
25650W        W41459   0.955   4.488   3.282  0.0383 -0.1248  0.4137
25651W        W41460   7.568   0.972  11.500 -0.0185 -0.1727  0.0539
25652W        W41461   8.643   2.243   0.278  0.1218 -0.1255  0.1437
25653W        W41462  17.465  15.082   3.294  0.0469  0.2530  0.0881
25654W        W41463  10.916   2.885   4.694 -0.0326 -0.3998 -0.2100
25655W        W41464  14.646  17.660   3.466  0.2463 -0.0723 -0.1123
25656W        W41465   1.533  11.949   1.228 -0.1705 -0.0637 -0.0213
25657W        W41466  12.166   7.569   2.016  0.0815 -0.0623  0.1431
25658W        W41467  14.443   5.032  11.271  0.3484  0.1580 -0.1473
25659W        W41468  14.238   2.081   3.027 -0.1458  0.0213  0.3681
25660W        W41469  16.610   7.362  13.633 -0.0328 -0.0091 -0.0676
25661W        W41470  10.491   4.742   6.275  0.0684 -0.0354 -0.1076
25662W        W41471   0.341  14.317   3.099 -0.1809  0.0489 -0.2215
25663W        W41472   9.907  11.380  10.550 -0.0649 -0.0968  0.0257
25664W        W41473   4.434   6.857   1.069  0.2346  0.0906 -0.4327
25665W        W41474  10.870   6.644   2.870 -0.1641  0.3952  0.0117
25666W        W41475   1.414   7.035   4.560 -0.0341  0.2246  0.1087
25667W        W41476   1.403  14.728  12.206  0.3950  0.2524  0.0869
25668W        W41477  16.063   0.161   5.483  0.0180  0.3970  0.1238
25669W        W41478   0.870   9.379  14.011 -0.1018 -0.2716 -0.1816
25670W        W41479   0.993  17.249  14.904 -0.0729 -0.1309  0.0484
25671W        W41480  15.054   1.869  11.845 -0.1220  0.0801  0.2852
25672W        W41481   8.518  16.958  14.397  0.0799 -0.3088  0.0189
25673W        W41482  18.070   2.038  15.426  0.2621  0.1393  0.0027
25674W        W41483   8.461  13.818   4.001 -0.0720  0.1071  0.0423
25675W        W41484   7.967   7.763  11.911 -0.0152  0.1344  0.3113
25676W        W41485  12.904   8.695   4.907 -0.0328 -0.1951 -0.1537
25677W        W41486   0.867  10.702  11.388  0.0405 -0.1915  0.0613
25678W        W41487   7.205   3.814   1.593 -0.1145  0.1288 -0.1174
25679W        W41488  13.791   7.323  10.999 -0.1306 -0.0192  0.3426
25680W        W41489   0.194   7.033  11.095  0.0829  0.0161 -0.0490
25681W        W41490  15.288   3.029   2.090  0.2391  0.0442 -0.2915
25682W        W41491  14.224  11.700  11.138  0.1142  0.1293  0.2293
25683W        W41492  10.467   9.884  10.863 -0.0963  0.1240  0.1168
25684W        W41493  17.429   5.578   4.600 -0.2188  0.0630  0.1096
25685W        W41494   1.102  13.342  10.950  0.0145 -0.0171  0.2070
25686W        W41495   1.528  12.875   5.094  0.1062  0.0370 -0.0035
25687W        W41496  14.815  13.791   4.996 -0.0038  0.0163  0.0073
25688W        W41497  11.909  13.582   1.433  0.1490 -0.0944 -0.0971
25689W        W41498   2.379   0.757  15.840  0.2085  0.1341 -0.0135
25690W        W41499  16.799  12.046  12.860  0.0929  0.2316 -0.0510
25691W        W41500   6.795   7.469   2.933  0.1075  0.1167 -0.0158
25692W        W41501   2.544  15.440   2.836 -0.3000 -0.1941 -0.0489
25693W        W41502  17.492  13.081  14.699 -0.1324 -0.0600  0.0233
25694W        W41503  11.467  17.323  15.111 -0.1035 -0.1617 -0.1768
25695W        W41504   7.463   6.107  15.799 -0.0998  0.2589 -0.1661
25696W        W41505   6.081   3.968   4.296  0.0839 -0.0805  0.1251
25697W        W41506  16.631   5.327   0.329 -0.1629  0.0895 -0.1993
25698W        W41507   2.740   8.095   3.238 -0.2044  0.0240  0.5281
25699W        W41508   1.293  18.259  14.528  0.1742 -0.0758 -0.0230
25700W        W41509   4.531  17.057  11.216 -0.0143  0.0934  0.0711
25701W        W41510   2.556  11.329   1.780  0.0815  0.0858  0.3017
25702W        W41511  12.295   1.044   0.375 -0.1409 -0.5882 -0.1239
25703W        W41512   0.442  10.434  11.300 -0.2416 -0.0266  0.1093
25704W        W41513   5.401   5.488   1.949 -0.0346  0.1329  0.0832
25705W        W41514  12.178   6.999  15.134  0.1265 -0.3022 -0.2252
25706W        W41515   3.577   2.004   5.474 -0.1585  0.1924 -0.4121
25707W        W41516   4.719   2.206   3.297 -0.0071  0.0049 -0.0389
25708W        W41517   7.461  13.047   2.037  0.0626 -0.3246  0.1494
25709W        W41518  12.333   3.593  14.038 -0.0372 -0.2995  0.0307
25710W        W41519  10.848   0.550   5.666  0.0377 -0.0722  0.1315
25711W        W41520   0.576   6.946   4.292  0.0085 -0.1502  0.2587
25712W        W41521   3.685  14.493  15.435 -0.0342 -0.5236  0.0911
25713W        W41522   2.702  14.966  14.578 -0.2863  0.2122  0.1275
25714W        W41523  16.361   8.988   2.711  0.2255 -0.2341  0.3131
25715W        W41524  17.573  17.097   5.828  0.1327  0.0161  0.0999
25716W        W41525  13.205   0.948   4.975 -0.0105 -0.1642 -0.3869
25717W        W41526   1.661  13.535  15.079  0.2727 -0.1307  0.0159
25718W        W41527  16.047   9.705   5.253  0.0826  0.1937 -0.0120
25719W        W41528  10.374  10.090   3.985 -0.3225 -0.2398  0.3022
25720W        W41529   1.767   1.577   1.159 -0.1439 -0.0258  0.1685
25721W        W41530  15.627  11.825   1.003  0.0755  0.2423  0.3812
25722W        W41531   2.511   8.903   4.853 -0.0127  0.0467 -0.0229
25723W        W41532  18.034  16.048   3.216  0.0798 -0.0696 -0.0333
25724W        W41533  12.674   7.397  13.120 -0.0504  0.4386  0.2834
25725W        W41534   3.776   3.965  13.428  0.0333  0.1210  0.0439
25726W        W41535  15.511  17.679  11.995  0.3001  0.0831 -0.1512
25727W        W41536   2.627  13.277   3.421 -0.0045 -0.2018  0.0101
25728W        W41537   8.245  14.760  10.326 -0.1740 -0.0235  0.1652
25729W        W41538  16.859  14.815  11.776  0.1714 -0.2083  0.1386
25730W        W41539   0.612  17.435   3.844  0.0745  0.3026  0.2431
25731W        W41540  16.115  12.189   3.940  0.1109  0.1065  0.2069
25732W        W41541  13.553   3.502   3.147 -0.3150 -0.5003  0.0042
25733W        W41542  10.543   2.025   2.444  0.2005  0.3176  0.2076
25734W        W41543   3.227  14.845   4.350 -0.4024  0.1228 -0.0715
25735W        W41544  17.145   3.283  15.389  0.0924 -0.1935  0.3010
25736W        W41545  16.348  10.688  12.097 -0.0895 -0.0485  0.0752
25737W        W41546   8.288   2.698   4.632  0.1426 -0.0535 -0.0322
25738W        W41547  13.789  10.407   1.722 -0.3933  0.2597  0.2502
25739W        W41548   9.013   6.962   1.330  0.1626  0.0967 -0.3391
25740W        W41549  15.410   7.873  15.982 -0.0886  0.2202 -0.1992
25741W        W41550   8.125   5.383  14.345 -0.3174 -0.0435  0.0264
25742W        W41551  11.367  16.806   3.472  0.3847  0.3007  0.1817
25743W        W41552   5.605  10.321   4.579 -0.1144  0.3032  0.1182
25744W        W41553  13.648   6.726  10.884  0.0652  0.0672  0.2750
25745W        W41554  14.444   4.934   1.258 -0.2033  0.0436 -0.1813
25746W        W41555   1.671   3.675   2.483  0.1199 -0.0746 -0.0994
25747W        W41556  18.221  12.805  12.021  0.1796  0.1723  0.0787
25748W        W41557  13.707   9.988   0.970 -0.1679  0.2534  0.2055
25749W        W41558   6.407  16.838   1.885 -0.0162  0.1011 -0.0100
25750W        W41559   7.300   6.381   0.856 -0.0653 -0.0701  0.0636
25751W        W41560   8.158   6.594   1.834 -0.0744  0.2286  0.0739
25752W        W41561   8.696   1.838   5.054 -0.0360 -0.0261  0.1548
25753W        W41562   6.291  15.053   3.963 -0.1874  0.1075  0.0293
25754W        W41563   2.780  12.521   5.532  0.0002  0.2126 -0.0333
25755W        W41564   4.905   3.448   0.830 -0.0222 -0.1677 -0.3429
25756W        W41565   0.121  15.344  11.551 -0.0274  0.0601  0.1677
25757W        W41566   3.145   8.971   3.130 -0.0385 -0.1000 -0.0953
25758W        W41567  17.891   8.948   4.912  0.2599  0.3028 -0.0626
25759W        W41568   1.918   4.162  12.564  0.0100  0.1068 -0.1441
25760W        W41569   9.496   4.820   1.241  0.0767 -0.3634  0.3609
25761W        W41570  12.427   9.747   0.012 -0.3467  0.2278 -0.1979
25762W        W41571  12.898  15.150   3.747  0.0903 -0.2109  0.2502
25763W        W41572   0.681  16.747  12.540 -0.1454  0.2036 -0.1534
25764W        W41573  13.559   9.545   1.417  0.1652  0.1027  0.0241
25765W        W41574   2.737   7.951  13.573  0.0167 -0.0893 -0.1440
25766W        W41575   6.276   4.765  14.824 -0.3063  0.1943 -0.0275
25767W        W41576  18.191   6.179   2.973  0.1026  0.0494 -0.1113
25768W        W41577   8.403   6.696   3.636  0.2178  0.0132 -0.0007
25769W        W41578  11.304  11.616   2.350 -0.0152 -0.0761  0.1125
25770W        W41579  16.435   4.162   2.244  0.0469 -0.1719 -0.0439
25771W        W41580   9.002   6.778   3.477  0.0962 -0.0844 -0.2399
25772W        W41581   2.905  13.641   4.242  0.1981  0.0498 -0.0038
25773W        W41582   8.531  14.961  11.277 -0.1749 -0.1549 -0.1454
25774W        W41583   6.781  10.342  14.456  0.0282 -0.0327  0.2727
25775W        W41584  16.289   6.521   1.599  0.1002 -0.2711  0.1356
25776W        W41585   8.454   4.310  12.662  0.0856 -0.0443 -0.3517
25777W        W41586  16.522   8.790   4.985 -0.0880  0.1592 -0.1349
25778W        W41587  16.917  17.828   5.061  0.0912 -0.1258 -0.2101
25779W        W41588   3.566  10.343   3.153  0.0115  0.1102  0.1795
25780W        W41589   2.224  10.319   1.470  0.1198 -0.2216  0.2986
25781W        W41590  10.340  13.450  11.493 -0.0441  0.0858 -0.1983
25782W        W41591  15.542   6.114  13.513 -0.0402  0.0656  0.1055
25783W        W41592   4.665   1.701  10.557 -0.0906 -0.1576 -0.2226
25784W        W41593  11.918  16.019   2.186 -0.0613 -0.1117  0.0574
25785W        W41594  15.535  15.880  11.873  0.0076  0.1217 -0.1303
25786W        W41595   4.266   9.595  12.266  0.0624  0.1732 -0.0461
25787W        W41596  17.301  15.486   0.011 -0.2386 -0.0839  0.0253
25788W        W41597  12.764   0.767  12.998 -0.2006 -0.0326  0.1348
25789W        W41598  17.638  13.667  13.687 -0.2732 -0.2025 -0.3883
25790W        W41599   0.735  17.697   1.448  0.2824 -0.2154  0.0366
25791W        W41600   3.129   0.026   4.275  0.1346  0.2174  0.3488
25792W        W41601   1.416   4.780   4.779 -0.0425 -0.1988 -0.1228
25793W        W41602   1.481   9.358  11.122 -0.0493 -0.2675 -0.0275
25794W        W41603  16.786  17.763   1.073  0.1428  0.0273 -0.0102
25795W        W41604   3.954   2.857   5.203 -0.1083  0.0936  0.2051
25796W        W41605  17.595  15.102  13.523  0.0580  0.0010  0.0536
25797W        W41606  10.573  16.602  13.013  0.3860  0.1794 -0.0666
25798W        W41607   7.412  16.381  11.320 -0.2184 -0.3671 -0.1566
25799W        W41608   8.759   3.933   4.705  0.3184 -0.2266 -0.1563
25800W        W41609  13.124   1.718   5.986 -0.0962  0.0868 -0.0844
25801W        W41610  10.587   2.741  10.655 -0.4086 -0.3319  0.2650
25802W        W41611  17.682   8.610  11.921  0.0219 -0.2044 -0.3597
25803W        W41612  13.162   6.694   2.554  0.0985  0.0363 -0.0892
25804W        W41613   5.722  15.306  10.944  0.1767  0.1298  0.1180
25805W        W41614   9.362  12.830   1.182 -0.2505  0.3292 -0.1063
25806W        W41615  12.656   6.469  11.871 -0.1810  0.1845 -0.1123
25807W        W41616  14.305   3.354  13.470 -0.0997  0.0701 -0.0035
25808W        W41617  13.665  16.787  11.551 -0.4243  0.3234 -0.0275
25809W        W41618  15.748  11.777   4.641 -0.2467  0.0289 -0.0570
25810W        W41619   4.495   4.541   2.361 -0.1622 -0.2305  0.0388
25811W        W41620  16.296  15.110   3.648  0.1755  0.0170 -0.1363
25812W        W41621  11.061   6.866  14.497  0.1822  0.4490  0.1186
25813W        W41622  14.516  13.651   2.677  0.3770 -0.2968 -0.0133
25814W        W41623  12.379  14.390  15.421 -0.0453 -0.4111  0.0024
25815W        W41624   8.168  16.648  11.888  0.1027  0.1342  0.0006
25816W        W41625  14.380   8.876   0.661  0.0222  0.0986  0.0895
25817W        W41626   5.510   4.009  14.640 -0.1794  0.1079  0.0465
25818W        W41627   1.255   1.699  11.220 -0.1140 -0.1967  0.0197
25819W        W41628  11.135   8.748  13.568 -0.0237  0.1227  0.0137
25820W        W41629  10.672  10.285  10.458  0.1256  0.1320  0.0494
25821W        W41630   9.952   3.308   0.108  0.0467  0.1942  0.0326
25822W        W41631  14.623   1.681   5.187 -0.0447 -0.1486  0.1109
25823W        W41632  10.152   4.169   4.642 -0.5156 -0.5383  0.1303
25824W        W41633  11.152   2.930  13.901  0.1355  0.1571 -0.0154
25825W        W41634   7.928   3.660  14.805  0.0725  0.1459 -0.1690
25826W        W41635   2.667  14.055  14.079  0.0779  0.0268  0.2363
25827W        W41636   5.912   7.906  13.052  0.2858  0.0163 -0.0158
25828W        W41637   4.427  12.857   1.945 -0.0571  0.0612  0.0362
25829W        W41638   6.150  16.768  10.562 -0.0906 -0.3021  0.0209
25830W        W41639   7.336   8.587   4.981 -0.1602 -0.0192 -0.0387
25831W        W41640   9.710   0.993   3.026 -0.0417 -0.2967 -0.1399
25832W        W41641   3.135   5.435  10.761 -0.1669 -0.1928 -0.0579
25833W        W41642   7.720   7.763   2.546  0.2257  0.1453  0.0586
25834W        W41643  12.129  16.119  10.593 -0.0754 -0.2304  0.1503
25835W        W41644  16.537  18.062   2.860  0.1066  0.1718  0.1704
25836W        W41645   3.655   0.263  15.405  0.0493 -0.1285  0.1579
25837W        W41646   6.686   8.810   2.096  0.2939 -0.1851  0.1884
25838W        W41647   8.221  14.920   5.394  0.1690 -0.1224 -0.0667
25839W        W41648  13.431   5.772   5.192 -0.2708 -0.2450 -0.0432
25840W        W41649   6.012  12.203   2.612  0.2992  0.2750  0.2206
25841W        W41650  15.242  13.532   3.160 -0.2081  0.0294  0.2270
25842W        W41651   2.121   1.556   0.367  0.1042 -0.3818  0.2237
25843W        W41652   1.329  17.084   0.118 -0.0795 -0.5915  0.0454
25844W        W41653   0.985   5.862   5.014  0.0101 -0.2900 -0.1223
25845W        W41654   8.199   9.709   4.110  0.1656 -0.1821 -0.0061
25846W        W41655  12.445   3.671   3.354  0.2597 -0.0645 -0.1486
25847W        W41656   8.336   5.680   2.024  0.2481  0.1487  0.0965
25848W        W41657   4.338   5.096  15.250 -0.2183  0.0895 -0.1496
25849W        W41658   1.645   7.376  12.919 -0.3020  0.3786  0.0855
25850W        W41659   3.196  15.574  13.038  0.1944 -0.2154 -0.1392
25851W        W41660  16.561  17.213  13.875  0.0356  0.1685  0.0273
25852W        W41661  15.794  13.811  12.749  0.0106  0.0911  0.0054
25853W        W41662  16.188   0.805   5.074 -0.2320 -0.0805 -0.1810
25854W        W41663  10.184   9.375  13.628  0.1109 -0.0090  0.2165
25855W        W41664   9.992   2.352   0.083  0.0582  0.0179  0.2169
25856W        W41665   4.014  16.406   1.931 -0.0385 -0.1413 -0.1459
25857W        W41666  13.802   2.353   1.491 -0.0133 -0.0336  0.1231
25858W        W41667   3.725   8.151   3.769  0.0590  0.2084 -0.0547
25859W        W41668  14.744  16.586   0.322  0.0816  0.0727  0.1290
25860W        W41669   7.914  14.574   2.059 -0.0593  0.1277  0.0549
25861W        W41670  18.122   4.114  15.271 -0.0357 -0.0528  0.1503
25862W        W41671   9.625   0.599   1.516  0.2618  0.0369  0.0135
25863W        W41672  14.067  17.897   0.484  0.1983  0.0691  0.0907
25864W        W41673  12.802   8.795   2.443  0.0196 -0.0467 -0.3018
25865W        W41674   7.245   2.486  11.105 -0.0001 -0.0203 -0.1565
25866W        W41675   8.275   0.649  11.729 -0.0796  0.0224  0.0283
25867W        W41676  11.926   3.580   2.060 -0.2018  0.1720 -0.0003
25868W        W41677   6.516   9.337  15.068 -0.0955 -0.0769  0.1489
25869W        W41678   9.123  13.197   3.898 -0.0873  0.1410 -0.0306
25870W        W41679   2.016   2.937  13.449 -0.2210  0.2670 -0.1601
25871W        W41680  10.123  10.324  10.401 -0.1358  0.0132 -0.1731
25872W        W41681   8.209   9.252   3.236 -0.1036 -0.3507 -0.1351
25873W        W41682   5.603   1.494  11.734  0.1782 -0.0112 -0.1060
25874W        W41683  11.587  17.216  15.790 -0.1272 -0.1746 -0.1320
25875W        W41684  12.709   0.804   1.738 -0.1008 -0.1470  0.0407
25876W        W41685   3.169   7.740   2.580  0.0028 -0.0629  0.2007
25877W        W41686   0.431  16.811   3.089 -0.2048 -0.0056 -0.2215
25878W        W41687  11.742  12.972   5.213  0.0587 -0.0276  0.0379
25879W        W41688   0.082   8.678  13.762 -0.0934 -0.0311  0.1517
25880W        W41689  13.995  11.974  10.744  0.1815 -0.1311 -0.1446
25881W        W41690  10.839   9.711  11.238 -0.1639  0.2565 -0.2330
25882W        W41691  13.531   6.565   5.416 -0.0827 -0.0570 -0.1952
25883W        W41692   2.829  11.194   0.930  0.1130  0.4149  0.1823
25884W        W41693  13.920   3.046  11.526 -0.0003 -0.0383 -0.0260
25885W        W41694   0.385   4.646   3.674 -0.0894 -0.1588 -0.0758
25886W        W41695  13.154  17.603   2.902 -0.1442  0.3271 -0.1196
25887W        W41696  14.977   4.350  12.282 -0.1084  0.0602  0.0614
25888W        W41697  12.969  17.570  11.437  0.0329 -0.1792 -0.2917
25889W        W41698  17.769  16.564   5.786 -0.1191 -0.0018 -0.3255
25890W        W41699  14.011   6.381  11.075 -0.3801 -0.2237 -0.1061
25891W        W41700   3.342  16.168   4.085  0.1348  0.0489 -0.1733
25892W        W41701  11.510  11.889  13.008  0.2680  0.1410  0.2098
25893W        W41702  15.925  14.172   3.486  0.2081  0.2147  0.0874
25894W        W41703  10.570   0.290   3.256 -0.1472  0.0280  0.1857
25895W        W41704  14.199   5.012   5.016  0.2517 -0.2223 -0.1285
25896W        W41705   8.146  10.656  10.888 -0.1663  0.0090 -0.2283
25897W        W41706   3.105  17.285  14.222  0.0747 -0.2176 -0.0025
25898W        W41707   3.868   0.050  13.655  0.0992 -0.2648 -0.0170
25899W        W41708  17.817   7.021   0.272 -0.1184 -0.2731  0.2323
25900W        W41709  18.052  15.976   0.989 -0.2451 -0.4319  0.2551
25901W        W41710   1.378   9.562   4.361  0.2996 -0.0774  0.1003
25902W        W41711  10.189  10.542   3.620  0.0194  0.2990  0.0847
25903W        W41712   4.133   9.887  13.384  0.0744 -0.0095  0.0101
25904W        W41713  13.713   6.445   4.669 -0.1375 -0.0874 -0.0315
25905W        W41714  17.387  13.758  15.261  0.1937 -0.1082 -0.0906
25906W        W41715  14.642   1.363   3.939 -0.0957  0.0159  0.0468
25907W        W41716   4.837  10.361   2.258 -0.1078  0.0237 -0.3296
25908W        W41717  16.139   2.686   1.691  0.1520 -0.1568  0.0158
25909W        W41718  13.054  15.783   4.750 -0.0759  0.2636  0.2125
25910W        W41719  17.286  15.011   6.186  0.0841 -0.3033  0.1363
25911W        W41720  14.063  12.869   1.954 -0.2141 -0.3864  0.0277
25912W        W41721   1.952  13.592  14.563  0.0824 -0.0399  0.0119
25913W        W41722   5.844   6.147  13.459  0.0389  0.2303 -0.1091
25914W        W41723  12.510   9.078  14.660  0.2778  0.2098 -0.2393
25915W        W41724   7.885  14.493   3.447 -0.2153  0.2694  0.1378
25916W        W41725  13.472   4.052  15.100 -0.0178  0.0475 -0.2362
25917W        W41726   2.918   7.650  13.229 -0.0267 -0.1623 -0.0580
25918W        W41727   4.984  14.806  15.871 -0.0456 -0.0060 -0.0318
25919W        W41728   2.978  18.032   2.490 -0.1235 -0.0145 -0.1062
25920W        W41729   1.079   6.012   0.227 -0.2031 -0.3114 -0.0148
25921W        W41730   9.300  15.749  15.860 -0.1285  0.0240  0.2060
25922W        W41731  16.395  12.021   1.898  0.1284  0.0794 -0.0490
25923W        W41732   5.224  13.528  15.878 -0.0916  0.0848  0.1569
25924W        W41733  14.552  12.797  11.373 -0.1696 -0.1970  0.2566
25925W        W41734  16.513  13.501   5.625  0.3132 -0.0574 -0.3547
25926W        W41735   4.839  17.128  15.433  0.0988  0.0802  0.0639
25927W        W41736   3.295   3.790  11.484 -0.0328 -0.1263  0.1529
25928W        W41737   1.204   5.872  14.405 -0.1559 -0.2003 -0.2608
25929W        W41738  13.610  13.373  10.909  0.2387 -0.1496 -0.0803
25930W        W41739   4.893  15.373   3.751 -0.1018  0.1089 -0.1166
25931W        W41740  14.961   4.135   1.033  0.3014  0.2586  0.0041
25932W        W41741   9.961  15.916  10.723 -0.1217 -0.1735  0.0807
25933W        W41742  14.500   4.839   5.793  0.2311  0.0868 -0.3076
25934W        W41743   2.490   0.859   1.513  0.4014  0.0511  0.2554
25935W        W41744   2.112   8.074  11.359  0.2531  0.1623 -0.0518
25936W        W41745  17.545   4.388  16.025 -0.3585 -0.1870 -0.1402
25937W        W41746   2.110  17.538   2.168 -0.0668  0.1189 -0.2317
25938W        W41747   8.619   9.905   4.930  0.2517 -0.1140  0.0939
25939W        W41748  11.310   0.505   1.639  0.1922 -0.0714  0.0112
25940W        W41749  14.016  10.902   4.847  0.2160  0.0495 -0.1621
25941W        W41750  14.529  11.213  11.973  0.1495 -0.1639  0.0609
25942W        W41751  12.970  12.239  15.466  0.1818  0.0516  0.1405
25943W        W41752   5.008   6.093  11.353 -0.0813 -0.1973  0.1378
25944W        W41753  16.470  14.960   1.115 -0.1629 -0.0532 -0.0983
25945W        W41754   3.569  11.493   5.205  0.2951  0.0911  0.1257
25946W        W41755   8.238   9.300  10.858  0.4742  0.0332  0.0114
25947W        W41756   3.201  16.899  11.854  0.1648  0.0168  0.0018
25948W        W41757   1.332  17.373   4.564  0.2091 -0.2725  0.1661
25949W        W41758  18.038  11.573  15.551 -0.0499 -0.0760 -0.0104
25950W        W41759   6.430   0.708  12.892 -0.0245 -0.0146  0.0714
25951W        W41760   7.702   5.593   2.329 -0.0235 -0.1192 -0.1474
25952W        W41761  11.720   2.955  15.143  0.0121  0.1238  0.4266
25953W        W41762  13.584  16.046   5.423 -0.1443  0.1095  0.1636
25954W        W41763  10.089   6.483  12.947 -0.2729 -0.0202  0.1197
25955W        W41764   2.231  15.310   3.611 -0.3069  0.1587  0.0632
25956W        W41765   1.752  11.743  14.399  0.1494 -0.0026 -0.3047
25957W        W41766   3.101  17.748  12.800 -0.1637  0.1185  0.2762
25958W        W41767  14.414   8.406   0.213  0.0663 -0.0189  0.0095
25959W        W41768  18.060   9.821   4.092 -0.1207 -0.0088 -0.2276
25960W        W41769   3.014  10.374  15.854  0.1288  0.1542 -0.0617
25961W        W41770   8.669   8.729  15.926 -0.0560 -0.3891  0.0690
25962W        W41771   2.976   3.297  12.147 -0.0051 -0.1407  0.2553
25963W        W41772  14.760   1.388   6.042  0.1088  0.0514  0.0650
25964W        W41773  15.895   7.333   2.621  0.0193 -0.0167  0.1179
25965W        W41774   6.822   7.239   1.554  0.1484 -0.2258  0.0892
25966W        W41775   4.222  15.742   4.788 -0.0966 -0.2845 -0.0671
25967W        W41776  15.341   4.690  14.041 -0.3706  0.0023  0.0625
25968W        W41777   5.542   1.614  14.960 -0.0483  0.3060 -0.2139
25969W        W41778   1.176   2.281   4.034 -0.0468  0.0246  0.1588
25970W        W41779  16.157   4.387  13.603  0.2551  0.0660 -0.1895
25971W        W41780  16.085   1.540   4.350 -0.3042 -0.0940  0.0327
25972W        W41781  16.144  13.027  13.366 -0.0791  0.0086  0.1293
25973W        W41782  10.166  14.262   1.848  0.1346 -0.1261 -0.3142
25974W        W41783  10.073  15.487  14.588  0.0273  0.1084 -0.1049
25975W        W41784   5.745   7.293   2.295  0.1661  0.0750  0.0540
25976W        W41785  13.425  16.412   3.953 -0.1023  0.1706  0.1427
25977W        W41786  10.593   7.565  15.140 -0.0225 -0.2115  0.4058
25978W        W41787   2.312   8.483   1.485 -0.1130  0.0511  0.1253
25979W        W41788   1.578  16.114  12.522  0.1119 -0.0777 -0.2655
25980W        W41789  13.104  17.045   1.836  0.1885 -0.0960 -0.0531
25981W        W41790   1.632  12.224  11.900  0.0973  0.0170 -0.1263
25982W        W41791  13.202  15.237  13.708 -0.1207 -0.0181 -0.0585
25983W        W41792   2.010  14.734  12.647  0.0500  0.0415  0.0144
25984W        W41793   6.430   8.339  14.184  0.0513  0.3027  0.2045
25985W        W41794  16.452   1.198   4.187 -0.2901  0.1879  0.0751
25986W        W41795  14.075  11.036  12.439  0.2267 -0.0795  0.0050
25987W        W41796  17.151   6.628   0.119 -0.1966 -0.2090 -0.2284
25988W        W41797  13.759   7.961   4.836 -0.0453 -0.0747 -0.0620
25989W        W41798   4.932   6.780  14.331  0.2692  0.0484  0.5175
25990W        W41799   7.229   3.338   2.028  0.0235  0.2421 -0.0394
25991W        W41800   7.610  13.036  13.461  0.2850 -0.0295 -0.1065
25992W        W41801  10.847   8.598   3.378  0.1593  0.1667  0.0456
25993W        W41802  12.391   0.245  14.810 -0.3414 -0.0763  0.3130
25994W        W41803  17.638  11.166  14.203 -0.2425 -0.3515  0.1439
25995W        W41804  17.644  10.088  14.814  0.1142 -0.1155  0.4448
25996W        W41805  12.505  15.123   2.197 -0.3009 -0.1876 -0.0738
25997W        W41806  10.441   7.017  13.698  0.1338 -0.2561 -0.1074
25998W        W41807  12.460   5.724  12.390  0.1389  0.0018 -0.1660
25999W        W41808  14.511  17.184  15.666  0.0025  0.0758  0.0455
26000W        W41809  11.510   3.923  14.278 -0.2529 -0.0436 -0.1368
26001W        W41810   4.500  11.750  12.103  0.0524  0.1046 -0.2859
26002W        W41811   6.130   5.533   2.122  0.0052 -0.0509 -0.0958
26003W        W41812  17.388   6.742  13.941  0.1925 -0.1067  0.0920
26004W        W41813   6.822  15.779   5.340  0.0708 -0.0696 -0.1504
26005W        W41814   4.080   8.110  11.712 -0.0477 -0.2066 -0.1409
26006W        W41815  13.503  17.051  14.706  0.2137  0.0910 -0.4247
26007W        W41816  18.118  11.294  11.173  0.0324 -0.0048  0.1108
26008W        W41817  14.820  18.031   3.703 -0.0119 -0.1932  0.2039
26009W        W41818   3.518  17.062  12.168  0.0158  0.0256  0.1434
26010W        W41819  15.802   4.510  12.677  0.0149 -0.0205 -0.2505
26011W        W41820  14.867   2.713   2.074 -0.2080  0.0584  0.0130
26012W        W41821  13.035   6.966   0.173 -0.4354  0.0880 -0.0781
26013W        W41822  12.105  13.258  15.180  0.1490 -0.0410  0.0255
26014W        W41823   4.838  13.896  14.379 -0.1707  0.0131 -0.3742
26015W        W41824   6.563   1.164   1.199  0.1386 -0.1541  0.0948
26016W        W41825   0.109   1.468  14.744 -0.0840  0.2054  0.0519
26017W        W41826   2.619   4.014   0.794  0.0599 -0.1684 -0.2049
26018W        W41827  12.660   7.490   2.554 -0.2243 -0.0539  0.1413
26019W        W41828  17.432  10.188  14.363  0.1460 -0.2903  0.1313
26020W        W41829  15.518   3.765  14.435  0.0011 -0.0025 -0.0493
26021W        W41830   0.377   7.924  15.634 -0.2844 -0.1637  0.3285
26022W        W41831  15.760  17.381  12.929 -0.2816 -0.3165 -0.0116
26023W        W41832   6.863   6.690  14.005  0.2987 -0.1384  0.1905
26024W        W41833  15.369   2.148  13.832  0.0315  0.0560  0.1239
26025W        W41834   1.379  16.480  15.047 -0.1223  0.2775  0.0111
26026W        W41835   5.734  13.011   0.657  0.0282  0.1616 -0.2183
26027W        W41836   7.897   8.644  16.030 -0.1637 -0.0981  0.1942
26028W        W41837  14.735   1.111   3.468 -0.2020 -0.1210  0.1053
26029W        W41838   3.352  16.011   0.660 -0.0150  0.0992 -0.2334
26030W        W41839  16.204   2.751   3.679  0.0040 -0.2306 -0.4479
26031W        W41840  16.296  16.188   0.302 -0.2016  0.0826  0.0386
26032W        W41841   7.172  10.315   0.865  0.0300  0.1119 -0.1194
26033W        W41842  17.255  11.863  11.909 -0.0156 -0.2535  0.2477
26034W        W41843  10.344  17.642   0.335  0.1286  0.0148  0.1863
26035W        W41844   9.477  13.311  15.904  0.2646  0.2111 -0.1594
26036W        W41845   5.729   1.199   3.255 -0.0346  0.1104 -0.3699
26037W        W41846   9.964   0.905   0.652 -0.1931 -0.1965  0.0475
26038W        W41847  16.671  11.739  11.354  0.0746  0.1811  0.1093
26039W        W41848  16.094   4.200   1.516  0.0455  0.0931  0.0608
26040W        W41849   2.090   7.658  11.659  0.0804  0.0745 -0.0910
26041W        W41850   1.736  14.517   3.955  0.1898  0.5300  0.0740
26042W        W41851   3.861  16.003   1.721 -0.0429  0.2016  0.0433
26043W        W41852  11.857  15.541   0.586  0.2774  0.4006  0.4389
26044W        W41853   0.284   5.415   1.856 -0.0442  0.1304 -0.0053
26045W        W41854  12.840  13.388  13.376  0.0006 -0.0831 -0.1334
26046W        W41855   7.098   4.572  12.668  0.3268 -0.0426  0.1529
26047W        W41856  11.293  10.354   2.039 -0.0711 -0.1025  0.0692
26048W        W41857  10.648   9.935  12.359  0.2947  0.0197  0.0900
26049W        W41858  15.811  13.565  14.440  0.3279 -0.0304 -0.0348
26050W        W41859   9.590   9.804  11.006 -0.1266  0.4158 -0.1381
26051W        W41860  15.839   7.200   3.640  0.0068 -0.0216 -0.0802
26052W        W41861   9.779   6.041  13.819  0.2892  0.3253  0.1801
26053W        W41862  17.360  16.127  11.257  0.0644 -0.0342 -0.0763
26054W        W41863   1.417  14.343   2.134  0.0738  0.0133  0.0707
26055W        W41864   4.965  12.884  14.122 -0.1496  0.0568  0.2510
26056W        W41865   4.611   8.062  14.697 -0.0094 -0.1627 -0.2465
26057W        W41866  12.785   3.973   2.131  0.1103  0.4170 -0.1589
26058W        W41867   7.338  16.849   5.111  0.0542 -0.2045  0.0066
26059W        W41868   3.339   9.409   1.123  0.2001 -0.1867  0.0761
26060W        W41869  12.774   1.537  11.837  0.0361 -0.1476 -0.0571
26061W        W41870   7.312   6.191  12.168 -0.0723  0.4698  0.0436
26062W        W41871   3.060   4.204  10.689 -0.1003  0.1362  0.0996
26063W        W41872   9.888   1.988   5.742  0.1297 -0.0292 -0.0136
26064W        W41873   4.585   5.124  14.263  0.2627  0.2434  0.0799
26065W        W41874   9.340  11.007  14.997 -0.0468 -0.2462 -0.2492
26066W        W41875   0.029   0.062  14.810 -0.1132 -0.4402 -0.0627
26067W        W41876   4.168   3.513   0.578  0.2101  0.1246  0.0635
26068W        W41877  12.941  10.484  11.820 -0.1037  0.1849  0.0350
26069W        W41878  15.440   3.499  12.720  0.0940  0.0305  0.0704
26070W        W41879  11.615   4.432   4.920 -0.0748  0.2020  0.2199
26071W        W41880   0.257  13.938  11.724 -0.2698  0.0923 -0.3317
26072W        W41881  14.315   8.751  11.314 -0.0819 -0.1163 -0.3695
26073W        W41882  10.857  12.878  15.833 -0.0803 -0.2032 -0.2624
26074W        W41883  12.610  13.636   5.605  0.2030 -0.0904  0.0153
26075W        W41884  15.282   2.197  10.988  0.0805  0.0250  0.1113
26076W        W41885   4.020   4.521   0.060  0.2245 -0.1820  0.2152
26077W        W41886  10.913   8.738  11.553  0.0083  0.0726  0.2986
26078W        W41887   8.339  11.464  13.985  0.2348 -0.0975  0.4110
26079W        W41888   2.602  13.709   3.025  0.0432  0.1953 -0.1248
26080W        W41889   0.358   4.607   5.152  0.1243 -0.0633  0.1014
26081W        W41890   0.822  13.693  15.412  0.3134 -0.1144 -0.1043
26082W        W41891   9.614  15.532   4.034  0.2096 -0.0474 -0.0944
26083W        W41892   7.242  14.207  12.728 -0.2083 -0.2887 -0.0360
26084W        W41893  16.201   7.889  15.277 -0.2426 -0.1700 -0.0791
26085W        W41894   1.172   3.042  13.921  0.0285  0.3595 -0.0392
26086W        W41895   2.234   4.411  12.256 -0.1674  0.0216 -0.4222
26087W        W41896   0.725  16.143  12.764 -0.2681  0.2227 -0.1006
26088W        W41897  15.205   0.409   2.894  0.1010  0.0350 -0.1419
26089W        W41898  14.010  15.095   2.528 -0.0799  0.0754 -0.1116
26090W        W41899   5.944   4.881  11.821 -0.0524 -0.0355  0.1466
26091W        W41900   5.048   6.736  12.000 -0.0072 -0.0234 -0.1144
26092W        W41901   8.312   3.901  11.822 -0.0557 -0.0954 -0.0040
26093W        W41902  12.746   1.180   0.307  0.0814 -0.0268  0.0814
26094W        W41903   9.259   2.866  13.956 -0.1704  0.2314  0.3011
26095W        W41904  16.220  15.533   5.373 -0.1184  0.2635  0.0202
26096W        W41905  16.343  12.629   3.222 -0.6033  0.0451 -0.2112
26097W        W41906   0.404   9.454  11.219 -0.0242  0.2296  0.0563
26098W        W41907  12.314   6.105  14.713 -0.3044  0.2484 -0.5009
26099W        W41908  12.795  16.017  13.884 -0.1175 -0.0644 -0.2224
26100W        W41909  14.566   9.862   3.409 -0.0171  0.1511 -0.1926
26101W        W41910   1.842   5.989  13.339 -0.1322 -0.1235 -0.0755
26102W        W41911   4.223   9.199   0.365  0.1143 -0.1061  0.1218
26103W        W41912   5.764  12.521  10.565 -0.0589 -0.1756  0.0806
26104W        W41913  11.064   8.640  15.395  0.3930  0.0224 -0.3057
26105W        W41914  10.412  11.393  14.772 -0.1773 -0.0234  0.3995
26106W        W41915   5.250   7.395   1.305  0.0249  0.0364  0.2093
26107W        W41916   8.835   9.728   2.729 -0.4110 -0.2960  0.1734
26108W        W41917  14.949   2.134  12.338  0.1125  0.1831  0.3203
26109W        W41918   9.230  17.284  14.730 -0.0700 -0.0501 -0.2661
26110W        W41919  12.120   8.923  15.481  0.1098 -0.0941 -0.0980
26111W        W41920  14.644  16.268  14.328 -0.0760 -0.1704  0.1848
26112W        W41921   5.545   3.428   2.394 -0.1201 -0.0683 -0.1686
26113W        W41922  12.516   2.594  15.365 -0.0087 -0.0455  0.1279
26114W        W41923   7.327   3.835   2.088  0.0381 -0.2111  0.4154
26115W        W41924   5.012  13.766   4.701  0.0060  0.1734 -0.0121
26116W        W41925   4.958   1.758   3.214  0.1663  0.3528  0.2013
26117W        W41926  15.210  11.200  11.752  0.4333  0.0862 -0.0089
26118W        W41927  13.017   8.088   1.710  0.0069 -0.1544 -0.0455
26119W        W41928   0.865   7.810  15.835  0.1469 -0.0565 -0.1404
26120W        W41929   4.075  12.114  13.412 -0.1710 -0.0025  0.0037
26121W        W41930   1.061   1.747   0.445 -0.2636 -0.0941  0.2717
26122W        W41931   4.498   1.461   3.965  0.1230 -0.0005 -0.0656
26123W        W41932  12.565   8.128   0.731 -0.0097  0.3713 -0.0241
26124W        W41933  15.373  16.228  12.651 -0.0965  0.1514  0.0565
26125W        W41934  15.695   3.460   1.926  0.0809 -0.0176  0.1228
26126W        W41935  16.020  10.686  13.783 -0.2441 -0.0120  0.2295
26127W        W41936   9.843   2.764  14.630  0.1450 -0.1106  0.0221
26128W        W41937  17.618  15.001  14.543  0.2814 -0.1493 -0.4433
26129W        W41938   3.680  12.835  14.213 -0.6591  0.0336 -0.0094
26130W        W41939  12.963   6.804   4.292 -0.0808 -0.1067  0.0260
26131W        W41940   6.244  10.220  14.300 -0.1016  0.2196  0.0791
26132W        W41941  14.714   3.375  14.943 -0.1090 -0.0987  0.2034
26133W        W41942  15.796   7.979  15.603 -0.1259  0.0506  0.0051
26134W        W41943   4.902   1.356  12.992  0.2543  0.2911 -0.1383
26135W        W41944  17.601   3.516   2.520  0.0893  0.0707 -0.1996
26136W        W41945   3.919   1.852  13.127 -0.2004 -0.1320 -0.0145
26137W        W41946  17.405  17.501  13.589  0.1014  0.0561  0.0895
26138W        W41947   6.124   5.836   4.919  0.2736 -0.0582  0.3241
26139W        W41948   6.311  11.178   3.258  0.1067 -0.0812 -0.1404
26140W        W41949   9.462  11.090   0.430 -0.0021  0.1408 -0.0678
26141W        W41950  17.169   8.793  12.100  0.0920 -0.0386 -0.2549
26142W        W41951   7.537   8.362   3.313  0.0120  0.0204  0.0832
26143W        W41952   2.283  16.567  13.009 -0.0241 -0.0000  0.0761
26144W        W41953   5.619  11.844  14.893 -0.0321  0.0959 -0.0452
26145W        W41954   5.657  12.259   5.853 -0.0657  0.0690  0.1443
26146W        W41955   4.402   2.655  11.243  0.4170 -0.1717 -0.2092
26147W        W41956  11.809   0.837  15.590 -0.0933  0.0178 -0.1031
26148W        W41957  11.219   0.661  15.692  0.0274  0.1453 -0.0408
26149W        W41958   0.472   4.253   3.324  0.0628  0.1598 -0.1095
26150W        W41959   4.190   6.036   1.168  0.2203 -0.1456  0.1929
26151W        W41960   9.410   0.454   5.208  0.0610  0.0494  0.3011
26152W        W41961   4.370  17.482  13.724 -0.0663 -0.1134  0.1007
26153W        W41962   5.216   5.678   2.992  0.3161 -0.2745  0.0142
26154W        W41963   6.489   9.430  14.500 -0.3117 -0.1592 -0.0337
26155W        W41964   9.458  15.743  11.908 -0.2273  0.0414  0.1023
26156W        W41965   9.583   9.892   3.345 -0.0037  0.0002 -0.0092
26157W        W41966   6.900  12.792   5.725 -0.0540 -0.0050  0.0707
26158W        W41967  12.767   3.298  14.259 -0.3849 -0.1248  0.1289
26159W        W41968   1.591  12.069  11.399 -0.2736  0.1975 -0.1081
26160W        W41969   8.578   6.128  12.940  0.2310 -0.1754  0.4986
26161W        W41970   3.446  14.567  13.741 -0.2611  0.1470  0.2092
26162W        W41971  16.443   8.161   2.812 -0.1983 -0.2299 -0.2109
26163W        W41972  15.458   1.959  14.820  0.0997  0.0342 -0.0513
26164W        W41973   9.009   6.166   0.844  0.0370 -0.0948  0.2098
26165W        W41974   7.497  16.509  13.200 -0.0610 -0.1793  0.3339
26166W        W41975   1.790   7.018   4.023 -0.0170  0.5251  0.2195
26167W        W41976   7.937   7.392   0.260 -0.0091 -0.1292 -0.3948
26168W        W41977  12.990   8.016  15.966  0.0977  0.3668 -0.0856
26169W        W41978   2.610   4.139   5.368 -0.0427  0.1134  0.2512
26170W        W41979  15.289   4.612   0.295 -0.1171 -0.1995  0.1091
26171W        W41980  10.208   9.646   2.056 -0.0521 -0.0838 -0.0232
26172W        W41981  13.835   2.593   0.557 -0.1090 -0.3197  0.0341
26173W        W41982   4.755   7.626  15.323  0.0302 -0.3930 -0.2140
26174W        W41983  12.298   3.804   2.332 -0.1197  0.1912 -0.0085
26175W        W41984  12.300   1.580  13.820 -0.2021 -0.0425  0.1490
26176W        W41985  14.814  10.545  11.410 -0.0587 -0.1118  0.3561
26177W        W41986   8.142  16.230  10.736 -0.1383 -0.0704 -0.0885
26178W        W41987   6.037   0.470  12.555 -0.1921  0.2564 -0.1303
26179W        W41988   5.791   8.517   9.480 -0.2669 -0.1026  0.0986
26180W        W41989   9.417  16.809   6.524  0.0816 -0.1056 -0.0513
26181W        W41990  12.492   0.658  14.077 -0.0990  0.0583  0.2043
26182W        W41991  13.219  16.706   9.868 -0.1687 -0.0343 -0.1962
26183W        W41992   8.694   7.615  15.158  0.1043 -0.0135 -0.1650
26184W        W41993   6.169   5.838   0.635  0.4620 -0.1020  0.2400
26185W        W41994   3.849   8.638  15.982  0.0887  0.3033 -0.1477
26186W        W41995  11.205   5.156   4.459  0.2830 -0.1640 -0.1772
26187W        W41996   5.695  13.154  14.530 -0.1273 -0.0248  0.1502
26188W        W41997  13.332  17.153   3.223 -0.0938 -0.3840 -0.1807
26189W        W41998   3.528   5.918   3.560  0.1539  0.2547 -0.1071
26190W        W41999   9.787  12.990   4.337 -0.0755 -0.2080  0.2455
26191W        W42000   9.840   7.125  14.478  0.0010  0.0154  0.2110
26192W        W42001  12.773  11.512  10.822 -0.1062  0.3357  0.0048
26193W        W42002   1.017  11.829   9.966  0.0181  0.0505  0.1600
26194W        W42003   1.812  17.078   4.529  0.0968  0.1174  0.3279
26195W        W42004   4.135  10.864   2.645 -0.0424  0.2261  0.0812
26196W        W42005   4.618  11.470  14.547  0.2407  0.1735 -0.3245
26197W        W42006  10.496   6.661  14.661  0.3800 -0.3152 -0.1297
26198W        W42007  10.037  10.283  14.057 -0.1124 -0.2750 -0.0354
26199W        W42008  14.251   6.259   6.187  0.0477  0.1099 -0.2325
26200W        W42009   0.370   2.576  12.960 -0.2250  0.0818 -0.0125
26201W        W42010   5.022   1.269   4.589 -0.0508 -0.2081 -0.0940
26202W        W42011  13.158  12.574  10.943 -0.2240 -0.0061  0.0230
26203W        W42012   0.992   8.491   3.277  0.0528 -0.2171 -0.0543
26204W        W42013   9.038   8.943   4.158  0.0329  0.1930  0.3894
26205W        W42014   4.669   3.754   1.204 -0.1643  0.0327  0.1960
26206W        W42015  12.199  11.928  14.975  0.0572 -0.0407 -0.2795
26207W        W42016  17.913   6.739   5.403  0.3073  0.0028 -0.0348
26208W        W42017   3.555   5.981   0.402 -0.0865 -0.0991  0.0125
26209W        W42018   6.419  11.896  14.515  0.1054  0.2164 -0.0947
26210W        W42019   1.232   2.985  14.848  0.1066 -0.0260 -0.1189
26211W        W42020   8.735   7.421  12.283  0.0740 -0.0454  0.0559
26212W        W42021  14.847   8.694   0.374  0.4824 -0.0404 -0.1089
26213W        W42022  15.089   7.297  15.069 -0.1322  0.0059 -0.1069
26214W        W42023   6.376   9.070  13.767  0.0732 -0.3275 -0.0704
26215W        W42024   6.155   1.075  12.620  0.2046  0.0150 -0.0806
26216W        W42025   6.359   2.370   4.544  0.0250 -0.2050 -0.1672
26217W        W42026   6.470   6.957  10.524  0.0520  0.0084  0.1596
26218W        W42027   9.001  17.720  10.400  0.1316 -0.0768  0.1689
26219W        W42028   9.748   0.069   0.442 -0.1495  0.0602 -0.1089
26220W        W42029   5.331   1.364   4.056  0.2001 -0.0736 -0.0170
26221W        W42030   6.584  14.215  15.061  0.1064 -0.3105 -0.1110
26222W        W42031   5.098   5.160   0.218  0.1270  0.0881  0.0820
26223W        W42032  13.863   1.466  14.050  0.0650  0.0052  0.0932
26224W        W42033   7.444  11.640   4.942  0.1075  0.1332 -0.1122
26225W        W42034   4.048   6.689  10.414 -0.1156  0.0933 -0.1271
26226W        W42035   7.537   5.133  13.096 -0.0665  0.0947  0.0445
26227W        W42036   7.768   0.423  13.169  0.2003  0.0895  0.1418
26228W        W42037   5.295  15.006  14.882  0.2337 -0.1273  0.0863
26229W        W42038  15.966  16.506   1.996  0.0751  0.0706  0.3052
26230W        W42039   4.644   0.846   3.141  0.1122 -0.0453  0.1400
26231W        W42040  14.922   4.117   3.167 -0.0831  0.0895 -0.0435
26232W        W42041  16.860  13.186  15.837  0.0873 -0.2109 -0.0603
26233W        W42042  12.521   7.597  12.579  0.1140  0.1432 -0.1799
26234W        W42043   5.731  16.444  13.619  0.0345 -0.2332 -0.2328
26235W        W42044  15.544   7.985   4.412  0.0359 -0.0002 -0.0025
26236W        W42045   2.705   7.682  13.998 -0.0070  0.2010 -0.0852
26237W        W42046   1.845   3.912   3.355 -0.1068 -0.4400  0.0875
26238W        W42047  13.897   1.776   1.665 -0.0647 -0.5745  0.0560
26239W        W42048   3.378   1.017   2.642 -0.3075  0.0774 -0.1133
26240W        W42049  16.173   9.930   4.653  0.0893  0.2024 -0.1063
26241W        W42050   1.870   2.115   0.961 -0.0794  0.1103 -0.1368
26242W        W42051   8.631   8.347   0.861 -0.1555 -0.0116  0.1528
26243W        W42052   7.093   8.775   3.151  0.0755 -0.0173  0.1573
26244W        W42053  15.693   3.636  13.824 -0.0905 -0.1840  0.0663
26245W        W42054   6.735   4.808  15.116 -0.1156 -0.2196  0.5347
26246W        W42055  16.432   4.823   2.596 -0.2607 -0.0360 -0.1159
26247W        W42056   5.524  16.234   0.169 -0.1443 -0.2188  0.0420
26248W        W42057   6.280   4.664  11.222 -0.1355 -0.0892  0.1493
26249W        W42058  13.936   6.237  14.667 -0.2493 -0.1992  0.2971
26250W        W42059   2.191  16.988  14.668 -0.2533  0.3385  0.0356
26251W        W42060   6.862   9.675   1.858  0.1274 -0.2071 -0.0079
26252W        W42061   8.328  14.464  11.397  0.0633  0.2771  0.1956
26253W        W42062   6.561  16.675  13.035 -0.2888  0.0917 -0.1061
26254W        W42063  17.773  10.330   5.174  0.0962 -0.1151  0.0060
26255W        W42064   7.962  18.170  11.704 -0.0415  0.1018  0.0221
26256W        W42065  15.208  15.695  11.003  0.0982  0.0311 -0.0710
26257W        W42066   1.066  14.933  15.621  0.1634  0.1556 -0.3485
26258W        W42067  12.769  13.754  13.731 -0.1991  0.3540  0.1599
26259W        W42068   0.943  10.158   5.678  0.1192  0.2104  0.2977
26260W        W42069   3.688   8.708   1.826 -0.1796  0.2846  0.4680
26261W        W42070  10.838  13.340  11.572 -0.0222  0.0701 -0.0450
26262W        W42071  18.021  12.519  10.639  0.2636  0.0866 -0.2541
26263W        W42072  16.957  11.444  11.786  0.2578 -0.0462 -0.0645
26264W        W42073   8.893  18.124   5.291 -0.1267 -0.1989 -0.0869
26265W        W42074   6.326   9.848  11.366 -0.0274  0.0128  0.4330
26266W        W42075   0.932  18.132  15.673 -0.2358 -0.0633  0.0840
26267W        W42076   7.736  17.160   4.613 -0.0282  0.2122 -0.1432
26268W        W42077   4.670   8.255  15.589  0.2603  0.0750 -0.1064
26269W        W42078  14.234  15.222  12.296 -0.4663 -0.0045  0.1013
26270W        W42079  11.621   8.139   3.468  0.2130  0.1355  0.3191
26271W        W42080   7.753   6.222   0.748  0.0405 -0.3948 -0.0318
26272W        W42081  10.097  17.977  12.197  0.2742  0.1305 -0.0497
26273W        W42082   3.733  10.346   4.511  0.1567  0.1518  0.2296
26274W        W42083   5.407   4.100   0.222 -0.0494 -0.0614 -0.1751
26275W        W42084   6.080  17.412  12.719  0.3079 -0.1384  0.0002
26276W        W42085   0.607  16.526   4.199 -0.1503 -0.3992  0.1372
26277W        W42086   6.006  14.306   4.433  0.1469  0.1164 -0.2300
26278W        W42087   3.974   0.872   1.452  0.1639 -0.1672 -0.3583
26279W        W42088   5.079   3.209   2.424  0.0273  0.3622 -0.2422
26280W        W42089   1.241   4.319  14.400 -0.2107 -0.0339 -0.4132
26281W        W42090   4.460  16.055   3.068  0.2045  0.2062 -0.0812
26282W        W42091   6.428  16.964   0.857 -0.0831  0.1506 -0.0178
26283W        W42092  17.854   9.047  15.215 -0.0707 -0.0869 -0.1842
26284W        W42093   6.745   7.590  13.257  0.0588 -0.2103  0.1553
26285W        W42094  11.110  17.884  12.769  0.0753 -0.3749 -0.0425
26286W        W42095   7.882   1.826   2.096  0.0988 -0.2287  0.2228
26287W        W42096  12.817   4.670   3.290  0.0101 -0.0823 -0.1668
26288W        W42097   5.490   9.805  13.015  0.0468  0.5609 -0.3944
26289W        W42098  16.157  12.750   3.712 -0.3466 -0.0021 -0.1566
26290W        W42099  17.558   6.476   0.369 -0.0904  0.3661  0.1556
26291W        W42100   3.763  12.308  15.978 -0.2635 -0.0651 -0.0658
26292W        W42101   4.641   4.711  13.859 -0.3395 -0.1150  0.0935
26293W        W42102   0.410   5.705  12.402  0.1767  0.3410  0.0502
26294W        W42103  16.917   8.085  11.255 -0.0626 -0.0571  0.3067
26295W        W42104  13.284   1.425  12.672 -0.0513 -0.2635  0.0229
26296W        W42105   0.758   4.521   4.160 -0.0483  0.0295 -0.3224
26297W        W42106  14.695   4.269  15.209  0.1159  0.1232  0.1348
26298W        W42107   1.551  10.230  11.631  0.5771  0.0792 -0.3375
26299W        W42108   6.327   3.576  13.853 -0.1307  0.2005  0.2267
26300W        W42109  14.677  14.368  12.108 -0.1793 -0.1645  0.1031
26301W        W42110   9.879   6.664   3.576  0.2786 -0.1601 -0.5197
26302W        W42111   4.808  11.515   6.179 -0.2844  0.2413  0.2760
26303W        W42112  12.430  15.489  11.001 -0.0362  0.3801 -0.1863
26304W        W42113  12.865   9.499   3.252  0.0678 -0.1035 -0.0943
26305W        W42114   1.372   4.866  12.735 -0.0356  0.1926  0.3053
26306W        W42115   2.284  14.537  10.892  0.0231  0.0484  0.4519
26307W        W42116   2.741   1.465   5.986 -0.5535 -0.1074 -0.1315
26308W        W42117   3.401   5.523  12.871  0.1507 -0.0409  0.1652
26309W        W42118  13.648  15.065   3.781 -0.1074  0.1383 -0.1089
26310W        W42119  18.123  10.197   3.570 -0.2780 -0.0841  0.3564
26311W        W42120  10.084   3.713   6.045  0.2346 -0.0065 -0.1424
26312W        W42121   2.897   0.310   5.561 -0.0475  0.0834 -0.0780
26313W        W42122   6.729  11.423  14.431  0.2994  0.0825  0.1587
26314W        W42123   4.178   6.355  14.465 -0.0611  0.1844  0.1923
26315W        W42124   6.375  11.539  11.405  0.1012 -0.1292  0.1715
26316W        W42125  16.127   3.428   0.424  0.1188  0.0087 -0.0517
26317W        W42126   7.242  10.698  10.482  0.0193  0.1190  0.3111
26318W        W42127   5.542  15.746  11.314  0.0508 -0.1011 -0.0302
26319W        W42128  14.671   5.947  15.808  0.1953  0.0115  0.1295
26320W        W42129   6.063   8.040   1.890 -0.0898  0.1941 -0.2627
26321W        W42130   8.339   5.678  12.761  0.0926 -0.1280 -0.2085
26322W        W42131   0.891  10.683  12.084 -0.0743  0.4146 -0.0904
26323W        W42132   7.587   0.514   1.713  0.0589 -0.2553  0.1640
26324W        W42133   6.182   1.773   1.894  0.0161  0.2085 -0.1997
26325W        W42134   8.667   7.864   0.034 -0.0295 -0.1324  0.1228
26326W        W42135  11.673  13.724  11.195  0.4027  0.0078  0.0431
26327W        W42136  17.090   6.084  14.488 -0.0929 -0.1219 -0.1419
26328W        W42137   7.347   1.273   2.286  0.2007  0.0235 -0.1135
26329W        W42138   5.004   7.178   0.489  0.2773 -0.0606 -0.1492
26330W        W42139  16.214   1.293   5.014  0.0077  0.1241  0.1873
26331W        W42140   4.816   4.792   0.014  0.1873  0.2923  0.0924
26332W        W42141   6.156   7.429  15.969 -0.2733  0.1221  0.2251
26333W        W42142   4.441  11.047  14.760  0.1560 -0.2409  0.1231
26334W        W42143   4.481   4.911  14.813  0.2249 -0.2510 -0.1693
26335W        W42144  14.421   9.356   4.216  0.3228  0.0077  0.1061
26336W        W42145   2.393   7.258   5.791  0.2206  0.0574 -0.0666
26337W        W42146   1.164   2.982  11.377 -0.2022 -0.1426 -0.0275
26338W        W42147  12.965  16.126   1.498 -0.1474  0.0641 -0.0978
26339W        W42148   3.065   1.217   2.325 -0.1444  0.2440  0.1374
26340W        W42149   0.983   4.805   5.014  0.2306  0.1735 -0.1651
26341W        W42150   3.664  14.644   5.246  0.2537  0.0110  0.4471
26342W        W42151   9.558   6.906  14.920 -0.0734 -0.1836  0.1406
26343W        W42152  14.938  11.934   0.257  0.3599 -0.0088 -0.0493
26344W        W42153   8.010  10.668  13.699  0.0292 -0.1636  0.1159
26345W        W42154  10.617   2.649  16.073  0.2387  0.2204  0.0737
26346W        W42155  11.478   9.765  11.633  0.0410 -0.1763  0.1775
26347W        W42156  13.387   8.706   4.837 -0.4799  0.0067  0.2029
26348W        W42157  11.723  15.892   4.941 -0.0237 -0.0847  0.1993
26349W        W42158   6.968   7.744  14.837 -0.0510 -0.1216 -0.2520
26350W        W42159  10.148   4.101   2.178 -0.1700 -0.2219 -0.3437
26351W        W42160   9.530  11.723   3.282  0.0767  0.2016  0.0224
26352W        W42161   4.666  11.122  11.361  0.1923 -0.2072 -0.1036
26353W        W42162   3.126   2.725   0.914  0.1898 -0.1072 -0.2142
26354W        W42163  14.408   4.745   4.701 -0.3901 -0.2971  0.3791
26355W        W42164  13.804   7.519   5.022 -0.2339 -0.1936 -0.1962
26356W        W42165  16.593   6.779  10.839  0.1672  0.3229 -0.4167
26357W        W42166  16.351  17.481  15.673 -0.2375  0.1236 -0.2669
26358W        W42167  12.052   7.519  15.253  0.0969  0.0276 -0.1392
26359W        W42168   5.033   3.062  13.209 -0.1377  0.0645 -0.0685
26360W        W42169   5.128   6.218  12.289 -0.3338 -0.2904 -0.0929
26361W        W42170   0.699  13.397  11.258  0.2201  0.1938 -0.1390
26362W        W42171   7.598   1.670  10.371 -0.1552  0.0021 -0.2284
26363W        W42172  12.554   5.250   1.491 -0.1957 -0.0066  0.1617
26364W        W42173  17.357  10.364  10.550 -0.2019 -0.0551 -0.2632
26365W        W42174   2.478   4.750  15.238  0.1499  0.2588  0.3047
26366W        W42175  10.462   6.126   4.939 -0.0951  0.1988 -0.1518
26367W        W42176  11.039   8.874   2.967  0.1650 -0.0233  0.0612
26368W        W42177   7.192   1.604   5.383  0.0064 -0.0025 -0.0008
26369W        W42178  17.244  13.286  12.474  0.1393 -0.3621  0.1554
26370W        W42179  13.635  17.627   2.980  0.3030 -0.0505 -0.2504
26371W        W42180   1.326   6.739   2.840 -0.0555  0.1650  0.1743
26372W        W42181  11.661   7.524  13.112  0.0656  0.0849  0.2908
26373W        W42182  15.495  16.306   4.039  0.1029 -0.1902 -0.2032
26374W        W42183   7.642   8.744   3.643  0.0023 -0.1399 -0.1935
26375W        W42184   0.905  15.553  13.873 -0.0442  0.2127 -0.0019
26376W        W42185  17.451   1.574  13.692 -0.0709  0.0419 -0.0088
26377W        W42186   4.689  10.995  10.273  0.1034  0.0677 -0.0208
26378W        W42187   5.778  15.088   5.903 -0.3563  0.0331  0.1508
26379W        W42188   3.734  11.858  14.440  0.0150  0.0113 -0.0461
26380W        W42189   3.090  15.869  11.685  0.0644 -0.1653  0.1118
26381W        W42190   8.655  16.033  12.335 -0.0683 -0.0445  0.0100
26382W        W42191   5.557  12.013   4.173 -0.1164  0.1730 -0.4532
26383W        W42192  13.246   2.293   3.485  0.0121 -0.1220 -0.1963
26384W        W42193   7.368  10.731   4.046 -0.0915  0.1658 -0.0049
26385W        W42194  15.907   5.998   0.506  0.2290  0.0425  0.1762
26386W        W42195   9.986  12.127  14.373 -0.0438  0.2937 -0.3585
26387W        W42196   4.891   8.061  15.142  0.0754 -0.2300 -0.1840
26388W        W42197   9.937   4.927  11.790  0.0195  0.4884  0.1891
26389W        W42198   5.969  18.175   2.150 -0.3187  0.0461 -0.0579
26390W        W42199  14.764  12.964  13.289 -0.1547  0.1260 -0.0661
26391W        W42200  17.856   4.146   0.259  0.1441  0.2117  0.0227
26392W        W42201   3.574  10.710   3.800 -0.1621 -0.0191 -0.0647
26393W        W42202  14.522   4.569   5.138 -0.0950 -0.2994  0.0803
26394W        W42203  15.610  10.128   1.055 -0.0879 -0.0217 -0.0067
26395W        W42204  14.807  16.831   3.385  0.3334 -0.0002  0.0468
26396W        W42205   1.511  18.141  13.984  0.0055 -0.0512  0.3432
26397W        W42206  13.305  12.053   4.453  0.1159 -0.1584 -0.0805
26398W        W42207  13.798   7.393   1.124  0.0213 -0.1441 -0.1548
26399W        W42208  12.649  14.671  15.045  0.1489 -0.0169 -0.0926
26400W        W42209  10.412  12.651  13.654  0.3176 -0.1496 -0.1763
26401W        W42210   1.596   7.064  14.455  0.3807 -0.0817  0.0915
26402W        W42211  11.215   8.545  14.453 -0.1573  0.0855  0.2540
26403W        W42212   9.901   6.835  15.322 -0.4990 -0.1115 -0.1289
26404W        W42213  14.032   2.956   0.236 -0.1377 -0.3953  0.0599
26405W        W42214  13.100   7.208  13.382  0.0726 -0.2129 -0.0675
26406W        W42215   3.253   4.163   0.162 -0.1724 -0.0046  0.0824
26407W        W42216  17.807  16.406   2.436 -0.1384  0.0019  0.2535
26408W        W42217   2.753   5.706  13.270  0.3073  0.2876  0.0330
26409W        W42218   9.714   6.732   4.734 -0.6581  0.0432 -0.0686
26410W        W42219   6.346  15.316  14.004 -0.0681 -0.1321 -0.0004
26411W        W42220  14.599  15.394   0.069 -0.0164 -0.0404  0.1448
26412W        W42221  12.428   2.872  14.496  0.2308  0.2770  0.0241
26413W        W42222  15.875  13.277   3.721  0.1241  0.2085 -0.3839
26414W        W42223  16.585  17.177  14.494  0.1414  0.0722 -0.0497
26415W        W42224   4.149   2.479  11.773 -0.1525  0.0679 -0.3193
26416W        W42225   7.087   4.934   3.970  0.0816  0.0305 -0.1293
26417W        W42226  16.901  12.854   1.678  0.2199  0.1316  0.1816
26418W        W42227  13.194   8.090  12.730 -0.1247  0.1262  0.2411
26419W        W42228   0.207   3.583   6.061  0.1808 -0.2476 -0.0726
26420W        W42229   8.757   2.634   4.386 -0.0743  0.0016 -0.3673
26421W        W42230  10.865   9.754   3.224  0.3079  0.2184 -0.2375
26422W        W42231   0.705   1.379  12.028  0.0615 -0.2071 -0.2259
26423W        W42232   8.775   1.038  14.261 -0.1336 -0.1103 -0.0461
26424W        W42233  13.754  17.481   2.194  0.0022 -0.0339 -0.2294
26425W        W42234   8.548  16.455   5.847 -0.0760 -0.2384 -0.0658
26426W        W42235  10.676  14.755   3.325 -0.2514  0.2407  0.1239
26427W        W42236   9.508  14.181  12.804 -0.0024  0.1813  0.1826
26428W        W42237  11.736  14.689  15.126 -0.0161 -0.2077 -0.0375
26429W        W42238  10.359  16.396   3.574  0.0713 -0.0039  0.0818
26430W        W42239   1.765  11.825  15.937  0.1401 -0.0550 -0.3616
26431W        W42240  13.458  17.676  15.426  0.1925  0.1065 -0.0495
26432W        W42241   3.270  13.049  13.024 -0.0449  0.0587  0.2478
26433W        W42242   3.637   7.178  11.114 -0.3095 -0.2617 -0.2782
26434W        W42243  15.347  10.876   4.910 -0.1634  0.0008  0.1711
26435W        W42244  11.362  17.739   0.048  0.2571  0.2880 -0.1985
26436W        W42245   1.890  16.123  13.683  0.2155  0.3198 -0.0671
26437W        W42246   9.274   6.708   1.716 -0.2149  0.2846  0.2393
26438W        W42247   3.944  15.467   2.409 -0.0776 -0.3334 -0.0629
26439W        W42248   0.415   7.368   0.241  0.0957  0.5944  0.0789
26440W        W42249   7.383   5.201   0.206 -0.0828  0.1778  0.3767
26441W        W42250  11.934  15.875  14.965 -0.0698 -0.0288  0.1397
26442W        W42251  15.654   6.220   3.398 -0.0380 -0.1579 -0.0098
26443W        W42252  16.852  11.752  10.848  0.2498  0.5646  0.3055
26444W        W42253   0.928  16.004  11.879 -0.0702  0.0808 -0.1066
26445W        W42254  11.863  10.557   4.133  0.1010  0.0767 -0.0493
26446W        W42255   3.771  15.204   0.303  0.1923  0.1777  0.0434
26447W        W42256  15.048   9.388  14.427 -0.2347 -0.2050 -0.1408
26448W        W42257  14.582  13.222  10.847  0.1038 -0.1435  0.0110
26449W        W42258   0.150   6.416   1.429 -0.0040 -0.0054  0.3502
26450W        W42259  15.383   3.996   3.038  0.0401  0.2533 -0.2347
26451W        W42260   0.426   8.776   0.123  0.1254  0.3056  0.3377
26452W        W42261   5.548  16.739  10.043  0.0686 -0.2037  0.1122
26453W        W42262  17.927  15.114  11.369 -0.3549 -0.1290  0.4660
26454W        W42263   1.588  11.625  13.125 -0.0484 -0.0714 -0.1214
26455W        W42264   5.918  11.330   5.887 -0.0161 -0.0444 -0.1720
26456W        W42265  12.127   7.256  15.969 -0.1091  0.0935 -0.1554
26457W        W42266   0.003   2.228  13.043  0.0179 -0.1885  0.2123
26458W        W42267   7.135  17.310   2.444 -0.1206 -0.2259  0.0035
26459W        W42268  11.184   5.561   4.687 -0.0101 -0.1292  0.0256
26460W        W42269  10.900   5.815  11.573 -0.0081  0.0597 -0.1318
26461W        W42270   9.618  16.405  11.082  0.2328  0.0378  0.0807
26462W        W42271   5.833  11.445   0.429  0.0584  0.0246 -0.1630
26463W        W42272   1.958  14.543   2.198 -0.1950 -0.0874 -0.2276
26464W        W42273  15.324   9.685   1.215 -0.0150  0.1300  0.1075
26465W        W42274   0.012   8.197  12.967 -0.1500 -0.2266 -0.2333
26466W        W42275   6.067  17.522  11.647 -0.1310  0.0580  0.1227
26467W        W42276   7.384   9.215   0.509  0.3505  0.1211  0.1410
26468W        W42277   9.174  17.326   4.946  0.4313  0.1352 -0.2463
26469W        W42278   5.034  15.953   4.607 -0.1780  0.0501 -0.2154
26470W        W42279   5.890   7.273  10.769 -0.1140  0.2172 -0.0719
26471W        W42280   5.541   7.716   0.436 -0.0569  0.2977  0.0971
26472W        W42281   7.505   3.289  12.014  0.0416  0.1273  0.4118
26473W        W42282   4.406   2.161  14.329  0.1510  0.0475 -0.3665
26474W        W42283  10.826  16.963   4.543 -0.0673  0.4137 -0.0154
26475W        W42284  15.979   6.284   2.996 -0.2633 -0.0276  0.0560
26476W        W42285  12.890  16.561  15.504 -0.1562  0.1168 -0.0693
26477W        W42286   5.637   8.491  12.011 -0.1388 -0.2574 -0.1785
26478W        W42287  11.217  13.512  13.417  0.0826  0.1697 -0.0643
26479W        W42288   9.390  17.046   2.002  0.1018  0.0391 -0.2863
26480W        W42289   8.550   7.962   1.699  0.1924  0.0146 -0.1456
26481W        W42290  12.592   6.396  15.600 -0.2761  0.1447 -0.0950
26482W        W42291   8.678  12.240   3.668 -0.0977  0.0320 -0.3102
26483W        W42292   4.462   1.950   3.658 -0.0978  0.0080  0.1303
26484W        W42293   6.324  10.619   4.682 -0.1389  0.4806 -0.0192
26485W        W42294  10.578   5.439   3.705  0.3021 -0.1022 -0.2802
26486W        W42295   4.701   3.517   2.192 -0.1558 -0.0052  0.1945
26487W        W42296   0.432   0.426  14.545  0.1270 -0.0548 -0.4068
26488W        W42297   3.291  11.897  14.655  0.1394  0.3799  0.1693
26489W        W42298   5.612  11.199  11.700  0.0283  0.3663 -0.0130
26490W        W42299   3.666   9.483  15.929  0.1009 -0.3763 -0.0688
26491W        W42300   1.319   5.262   3.631 -0.0936  0.1169 -0.0782
26492W        W42301   3.909  13.726   0.424  0.0186  0.0876  0.0707
26493W        W42302  11.329  11.045   1.507  0.3920  0.1754  0.0148
26494W        W42303   8.487   9.957   0.216  0.1222  0.0195  0.0601
26495W        W42304   9.098   2.733  11.784 -0.2232 -0.1063  0.2889
26496W        W42305  10.206   5.021  13.853 -0.0769  0.0577  0.0786
26497W        W42306   5.838   4.340   2.338 -0.0122  0.0385 -0.1316
26498W        W42307  17.157   6.071   1.029 -0.0023 -0.0290  0.1835
26499W        W42308  17.527   7.668   0.921 -0.1261  0.1625  0.0673
26500W        W42309   2.749  15.314   1.052  0.0463  0.0267  0.1219
26501W        W42310  18.206   0.946   1.992  0.2168  0.2780 -0.0998
26502W        W42311   9.387   2.723  14.870  0.1357  0.0868  0.0006
26503W        W42312   5.836   3.010   4.252  0.0282  0.2948 -0.0862
26504W        W42313   4.950   5.755  12.945  0.0607 -0.0375 -0.0886
26505W        W42314  10.523   1.081  13.301 -0.2469  0.1041 -0.0416
26506W        W42315   7.690   9.223  15.614 -0.2579  0.0301 -0.0438
26507W        W42316  12.694   4.290   2.535  0.0052  0.1970  0.0725
26508W        W42317   5.309  13.638   3.223  0.0290  0.0408  0.0722
26509W        W42318   6.277  10.841   2.806 -0.1428 -0.2297 -0.1197
26510W        W42319   4.743   5.933  11.992 -0.3176  0.0363 -0.0918
26511W        W42320  13.765  10.701  12.673 -0.0084 -0.0224  0.2967
26512W        W42321  12.804   4.469  11.390 -0.0010 -0.2643 -0.0599
26513W        W42322   5.808   4.215  10.001  0.0825  0.0654  0.0252
26514W        W42323   3.735   0.564  13.515 -0.2403  0.2650  0.1381
26515W        W42324  11.996   1.037  16.016  0.0815  0.2363  0.1529
26516W        W42325   0.208   8.820   4.368 -0.0009  0.0397  0.3337
26517W        W42326   0.507   3.128   1.821  0.1548  0.0440 -0.1072
26518W        W42327  16.689   6.236  13.565  0.3686 -0.2771 -0.0684
26519W        W42328   2.328  10.772   3.369  0.2561 -0.1286  0.0224
26520W        W42329   7.671   8.188   1.878 -0.0057  0.1048  0.1330
26521W        W42330   6.877  14.823   1.466 -0.1541  0.5371 -0.0406
26522W        W42331   7.878   6.701  15.909  0.3333 -0.1232  0.0758
26523W        W42332   8.944  11.808   0.464  0.1251  0.0115 -0.0274
26524W        W42333   5.019  10.107   0.980 -0.2600 -0.0780 -0.2179
26525W        W42334   3.125   3.881  13.484 -0.0746 -0.1886  0.2088
26526W        W42335   9.370  16.830   5.979  0.1026 -0.4187  0.0962
26527W        W42336  13.748  10.146  15.742 -0.0005 -0.1574  0.3721
26528W        W42337   3.727  11.243   1.172 -0.1087  0.1254 -0.1449
26529W        W42338   6.180  12.200  14.106 -0.1016  0.0010  0.1134
26530W        W42339  16.036  13.853   3.062  0.2840  0.1428 -0.0124
26531W        W42340  14.962   0.885   5.936 -0.2802  0.1384  0.1857
26532W        W42341   7.209  15.858  11.102 -0.1955  0.0798  0.2015
26533W        W42342   8.965   8.256  13.843  0.0051  0.0240  0.1200
26534W        W42343   1.139   9.100   1.764  0.0234 -0.1618  0.2926
26535W        W42344  10.982   3.811   2.911 -0.2731 -0.1496  0.0429
26536W        W42345  13.677  16.339   2.822 -0.3293 -0.2889 -0.0459
26537W        W42346  17.557   2.066   2.520  0.3160 -0.0745  0.0086
26538W        W42347   6.058   2.366  14.452 -0.1507 -0.3130 -0.2328
26539W        W42348   5.894   2.983   0.077 -0.1434 -0.1375  0.0780
26540W        W42349   7.899   7.866   3.978  0.1431 -0.4576  0.0723
26541W        W42350  12.289  16.386  11.969 -0.0570  0.0273 -0.0861
26542W        W42351   6.140   8.692  13.972  0.1842  0.2329  0.0977
26543W        W42352  17.442   1.746   5.044  0.1907 -0.0685 -0.0676
26544W        W42353   2.940   2.807  12.232  0.2125  0.1599  0.1882
26545W        W42354  11.233   7.503  13.602 -0.0700  0.2321  0.1582
26546W        W42355   9.270   4.818   0.224 -0.0777 -0.0924 -0.0810
26547W        W42356   6.646  12.251  11.365 -0.1438  0.0225 -0.2883
26548W        W42357  15.679  16.440   1.521 -0.2103 -0.2352  0.2884
26549W        W42358  16.766   0.298   0.607 -0.0819 -0.0559 -0.4356
26550W        W42359   2.960   1.598  14.095  0.0849 -0.0923 -0.3135
26551W        W42360   4.601  15.668   0.361  0.1874 -0.4021  0.1582
26552W        W42361   7.326  11.163  12.284 -0.0279  0.0653  0.2193
26553W        W42362   1.147  10.338   2.877 -0.1485 -0.1726  0.0519
26554W        W42363  11.688  15.511   5.255 -0.0714  0.0227  0.0227
26555W        W42364   4.329  11.299  12.057  0.0121 -0.1100 -0.2525
26556W        W42365  11.530   7.740   4.118  0.0305 -0.1472  0.0255
26557W        W42366   1.796   5.434   1.595  0.0601  0.0419 -0.0146
26558W        W42367   6.360  17.437   2.243 -0.0034  0.0529  0.3570
26559W        W42368  13.216   7.117   2.888 -0.0180  0.0997 -0.3497
26560W        W42369  18.203   5.622  12.701  0.0240 -0.1621 -0.2368
26561W        W42370   7.909  11.949   4.160  0.1246  0.4443 -0.0209
26562W        W42371  14.829   4.833   1.606 -0.3086  0.1113  0.0233
26563W        W42372   7.205   6.405   4.914  0.1040 -0.2753  0.1557
26564W        W42373  11.719   6.819  12.017 -0.0683  0.2034  0.0207
26565W        W42374  16.999   6.122   0.567 -0.1342  0.2165 -0.0157
26566W        W42375   6.693   5.418   2.104  0.1942 -0.1592  0.2223
26567W        W42376  13.372   2.713  15.860  0.1040  0.2109 -0.2353
26568W        W42377   8.135  12.566   3.102  0.2207 -0.0962 -0.2013
26569W        W42378  10.310   4.713   3.455  0.0629  0.0520 -0.0672
26570W        W42379   5.525  16.238  14.063 -0.1033  0.0999  0.3795
26571W        W42380   7.046   4.458   0.491 -0.1656 -0.2072 -0.0601
26572W        W42381   2.343   9.651  11.382  0.2634  0.2247 -0.0071
26573W        W42382  10.474  10.996  14.511 -0.0068  0.0921 -0.0552
26574W        W42383   2.533  11.811  13.958  0.0125  0.0440 -0.0845
26575W        W42384   7.699  17.825  13.640 -0.1588  0.1417 -0.1222
26576W        W42385  12.768  16.299  11.283  0.2515  0.0983  0.2092
26577W        W42386   9.713   0.585   2.727 -0.2120  0.0289  0.0127
26578W        W42387   2.143   4.364  14.210  0.1022  0.0355  0.0523
26579W        W42388   5.877  13.325  11.315 -0.5806 -0.0024 -0.0309
26580W        W42389   2.350  10.654  11.149 -0.0348  0.2742 -0.2207
26581W        W42390   6.862  16.613  12.029 -0.3643 -0.0644  0.1915
26582W        W42391   1.171   7.270   0.686  0.3687  0.1241  0.1091
26583W        W42392   7.872   4.313  12.685  0.1756  0.1917  0.1278
26584W        W42393  11.473   3.739   3.096 -0.1899 -0.0619  0.1171
26585W        W42394   4.309   0.957   2.679 -0.1963 -0.0352  0.0665
26586W        W42395   7.765   6.466   2.140 -0.2718  0.0827 -0.1193
26587W        W42396   1.736   6.735  15.105  0.1113 -0.0425 -0.1204
26588W        W42397   0.285   0.083   3.904  0.2269  0.0767  0.0117
26589W        W42398   8.916   4.911  12.001 -0.2781  0.1776  0.2293
26590W        W42399   2.050   8.485  14.312  0.1432  0.0552 -0.0125
26591W        W42400   3.807   7.114  15.788 -0.2464 -0.4279 -0.1453
26592W        W42401  14.592   8.026   4.492 -0.1827  0.0413 -0.0739
26593W        W42402  10.669  17.172   3.512 -0.0076  0.3805  0.3798
26594W        W42403  10.537   4.996   4.324 -0.1531  0.0234  0.0391
26595W        W42404   3.546  16.995   5.004  0.0311  0.0065  0.1577
26596W        W42405  12.077   3.086   4.632  0.0213 -0.0292  0.1439
26597W        W42406   9.214   6.329  12.454 -0.2363  0.0652 -0.0149
26598W        W42407  13.962   9.342  10.903  0.0689 -0.0566  0.0446
26599W        W42408   7.201  14.512   5.116  0.0857 -0.0381  0.0235
26600W        W42409  14.243   8.240   1.305  0.1462 -0.1900 -0.0144
26601W        W42410   4.465   2.219   1.777 -0.0757  0.3443  0.0240
26602W        W42411   0.515   6.825  15.596  0.1431  0.0087  0.1228
26603W        W42412  11.480   3.335   4.094 -0.3106 -0.0373 -0.2674
26604W        W42413   8.520  16.635   3.699 -0.2281  0.1534  0.3022
26605W        W42414   0.778   7.937  12.463 -0.3722 -0.1590 -0.2926
26606W        W42415  10.674   9.994  14.879 -0.1607 -0.0535  0.0813
26607W        W42416  17.175   9.509   4.957  0.0744 -0.0133 -0.3802
26608W        W42417  11.527  12.764  12.604  0.0289 -0.4326  0.0697
26609W        W42418  14.879   7.804   3.274 -0.0442 -0.1114 -0.1139
26610W        W42419   2.865   3.417  11.344 -0.0877 -0.2718 -0.0525
26611W        W42420  13.167   5.416   3.452 -0.1205  0.2197  0.0547
26612W        W42421   0.466   4.772  15.745  0.0250  0.1261  0.1944
26613W        W42422   7.346   4.310   1.767  0.0327  0.2092 -0.2904
26614W        W42423   5.120   9.040   4.091  0.2503  0.0901 -0.0295
26615W        W42424   7.516  10.651   3.473  0.0980 -0.0643 -0.0997
26616W        W42425  10.451  13.169  12.849  0.0005 -0.1244 -0.0640
26617W        W42426   3.551   9.129   4.760 -0.3230  0.0889  0.1038
26618W        W42427  10.155   5.630  13.644  0.1678 -0.2063  0.3134
26619W        W42428   7.840   5.007  13.714  0.4057 -0.0572  0.0975
26620W        W42429   7.985   3.612  12.253 -0.1856  0.2353  0.0812
26621W        W42430  17.945  10.937   4.185 -0.0014  0.1616 -0.0926
26622W        W42431   6.777  15.938   2.752  0.0129  0.0142 -0.2073
26623W        W42432   3.518   7.695  10.487  0.2962  0.1570 -0.0586
26624W        W42433  10.655   9.362   0.175  0.3818 -0.0848  0.0050
26625W        W42434  17.886   2.648  12.438 -0.2072  0.2167 -0.2213
26626W        W42435   2.930  13.107  12.629 -0.0626  0.1573  0.1186
26627W        W42436   1.328   3.111   1.653 -0.2676  0.3365 -0.2285
26628W        W42437  11.213   2.632  12.837 -0.0325 -0.0684 -0.0595
26629W        W42438   7.984   1.497  12.392 -0.2950  0.0793 -0.3377
26630W        W42439  15.313  14.332   1.965  0.0795  0.1502 -0.0390
26631W        W42440  12.463   7.300   5.048 -0.3490 -0.2232 -0.0103
26632W        W42441  11.142   0.868  12.065 -0.0387 -0.3783  0.1988
26633W        W42442  12.976   2.095  13.164 -0.0473 -0.0288  0.1534
26634W        W42443   1.021   4.261  12.663  0.0219  0.0520 -0.0331
26635W        W42444  17.483   6.527   4.680 -0.1603  0.1159  0.2908
26636W        W42445   9.638   8.469   1.855  0.0197 -0.3091 -0.0275
26637W        W42446  12.213  13.538   5.893 -0.0673  0.0593  0.1339
26638W        W42447  10.425  14.776  14.737  0.0630 -0.3112 -0.0303
26639W        W42448   0.079  12.467  15.358  0.0629 -0.3595 -0.0866
26640W        W42449  10.726  17.417   2.471 -0.0430 -0.1462  0.2893
26641W        W42450   6.653  14.747  11.449 -0.2385 -0.1041  0.0342
26642W        W42451   1.543   0.865   2.661  0.1549  0.0161  0.1132
26643W        W42452  13.948  10.658   2.190 -0.0001 -0.1965 -0.2569
26644W        W42453  11.084  17.362  12.777 -0.0331 -0.1384  0.0336
26645W        W42454  12.604  11.868  13.762  0.1592  0.0195  0.0937
26646W        W42455  12.882   5.438  12.203 -0.3212  0.0569 -0.0476
26647W        W42456   1.016  13.453  15.881 -0.0226  0.2588  0.2061
26648W        W42457   8.312  16.756   2.954 -0.0612 -0.0006  0.1316
26649W        W42458  10.309   1.501  13.001  0.1565 -0.0283 -0.1022
26650W        W42459   3.371  11.168   5.624 -0.0236 -0.1553 -0.2574
26651W        W42460   9.897   2.916   5.631  0.1757 -0.0862  0.2709
26652W        W42461  14.319  11.203   3.777 -0.0394 -0.3134 -0.0799
26653W        W42462   0.624   3.579  12.423 -0.2161 -0.0794  0.2411
26654W        W42463   7.084   4.796   0.100 -0.1576  0.0871 -0.0690
26655W        W42464   6.160  12.935   3.147 -0.1166 -0.1579 -0.0505
26656W        W42465   2.601   2.237  15.668  0.0041 -0.0974  0.1154
26657W        W42466   3.742  12.475   1.089 -0.0309 -0.2494  0.1367
26658W        W42467   6.032   1.435  13.959 -0.0819 -0.0021 -0.2063
26659W        W42468   7.453   3.564   2.498 -0.2655  0.0954 -0.1079
26660W        W42469  17.737  17.747  12.256 -0.0912  0.0220 -0.0003
26661W        W42470  18.011   1.847  13.176  0.1471  0.1035 -0.2870
26662W        W42471   7.574   0.138   5.141 -0.0312 -0.1521  0.0263
26663W        W42472  12.512   5.567   4.743 -0.2477  0.1999  0.0267
26664W        W42473  12.342   4.824  13.409  0.0604 -0.0795 -0.2411
26665W        W42474   7.147   5.322  12.258  0.3053  0.2101  0.0603
26666W        W42475  10.073   8.395   2.249  0.1485 -0.1200  0.3178
26667W        W42476  14.078  12.746   3.106 -0.3097  0.0490 -0.0059
26668W        W42477  16.931  17.581  14.792 -0.0366  0.3050  0.1052
26669W        W42478  15.962  16.413   1.063  0.1410  0.0120 -0.1423
26670W        W42479   2.364   7.358   2.693  0.2448  0.4921 -0.4322
26671W        W42480  13.439   8.884   3.806 -0.3885  0.1615 -0.0569
26672W        W42481   6.752  17.801   4.053  0.1105 -0.0408  0.1669
26673W        W42482   7.918   4.443  13.182 -0.0663  0.1173  0.1134
26674W        W42483   6.900  10.529  12.913 -0.0834  0.0111 -0.0346
26675W        W42484  11.253   9.376  15.991  0.0966 -0.2258  0.0838
26676W        W42485  14.395   3.866   4.364 -0.0439  0.0134 -0.0766
26677W        W42486   6.536   1.400  15.804  0.5825  0.1211 -0.0987
26678W        W42487  15.949   3.667  13.401  0.0633 -0.1402  0.2496
26679W        W42488  16.462  17.659   3.331  0.0619  0.0163  0.2281
26680W        W42489  10.871  10.216   3.065 -0.0783 -0.1010 -0.0278
26681W        W42490   5.295   9.776  15.089  0.1995  0.1046 -0.0010
26682W        W42491  16.863   3.108   3.879  0.1095  0.2461 -0.0034
26683W        W42492  14.000   2.091  13.507 -0.0116 -0.0171  0.1077
26684W        W42493   4.703  13.351  15.074  0.2264 -0.0167  0.1037
26685W        W42494   3.001  15.496   6.237  0.5148  0.0633 -0.0092
26686W        W42495   6.875   0.693   1.113  0.1468  0.0298  0.0666
26687W        W42496  10.429  16.877   4.889 -0.0069  0.1096  0.2422
26688W        W42497  17.402   2.222  12.021  0.0599 -0.1718 -0.0925
26689W        W42498   4.784   6.266  14.390 -0.0379  0.0362  0.0724
26690W        W42499  12.363  17.607  14.084  0.0518 -0.0029 -0.0523
26691W        W42500  11.303  11.994   0.479 -0.1800  0.0304  0.0449
26692W        W42501  17.659   2.002  15.634 -0.0408  0.4782  0.1629
26693W        W42502  10.187   1.532  14.738 -0.1669 -0.0107  0.2928
26694W        W42503  10.712  15.997  13.525 -0.2870  0.1308  0.0347
26695W        W42504   8.138   2.330   0.369  0.0747 -0.0757 -0.0973
26696W        W42505  16.691   1.277   2.591 -0.2695 -0.1621  0.0127
26697W        W42506   8.995  13.676  10.567 -0.1615 -0.1717 -0.0315
26698W        W42507   5.091   7.402  15.075  0.1069  0.1143  0.1262
26699W        W42508   5.493   3.785   0.648 -0.0293  0.2820 -0.2781
26700W        W42509   6.236  14.319   2.342 -0.1948  0.1203 -0.0687
26701W        W42510   5.885  16.357  12.225 -0.2072  0.0788  0.1338
26702W        W42511  11.568   0.699   0.048  0.0129 -0.0139  0.0639
26703W        W42512  11.518   0.823  11.707 -0.0354  0.2388 -0.2347
26704W        W42513  14.766   2.764  13.984 -0.1825 -0.2447 -0.4354
26705W        W42514   4.089  12.285  12.920  0.0989  0.0061 -0.0404
26706W        W42515   5.547   9.322  14.976 -0.2179 -0.2415  0.1892
26707W        W42516  12.603   3.567  12.946 -0.0313  0.1941  0.0963
26708W        W42517  15.656   8.441  14.274 -0.1084 -0.0052 -0.1812
26709W        W42518   1.987   8.631   4.191  0.0250  0.0432 -0.2089
26710W        W42519   0.141  15.757  11.892 -0.0253  0.2181  0.1426
26711W        W42520   3.698   4.818  15.903  0.0450  0.0389  0.0658
26712W        W42521  12.454   4.983   1.102 -0.0449  0.0547  0.0526
26713W        W42522   7.286  11.069   3.693  0.2576  0.1605 -0.2013
26714W        W42523   6.136   1.594  11.802 -0.1478  0.0031  0.1616
26715W        W42524  13.423  18.082   1.305 -0.0633 -0.2427  0.4308
26716W        W42525  13.939   8.790   3.679  0.1333 -0.2652 -0.3540
26717W        W42526  11.455  15.431   0.194  0.2914  0.2078  0.1581
26718W        W42527   9.512  10.322   1.627  0.0983 -0.0068 -0.1745
26719W        W42528  10.246   0.295   4.281  0.0436 -0.2252  0.3155
26720W        W42529  11.322   0.239  14.953  0.0506 -0.1879  0.0733
26721W        W42530  14.699  15.192  11.405 -0.0814  0.2691 -0.1832
26722W        W42531   5.616   9.689  11.868  0.0567  0.2906  0.1902
26723W        W42532  11.349   9.855   2.174  0.0254 -0.3463  0.1692
26724W        W42533   3.476   5.861   4.869  0.1346 -0.0997 -0.0559
26725W        W42534   5.058   5.016  15.536  0.3119  0.1431 -0.3001
26726W        W42535  16.259  18.004   5.722  0.2950  0.1504 -0.2607
26727W        W42536   7.061   9.636   2.358  0.1739  0.0201 -0.0466
26728W        W42537  14.149  16.279  14.404  0.1258  0.3465  0.2848
26729W        W42538   7.279   8.153  14.046 -0.0351  0.3643  0.0804
26730W        W42539   1.056   6.979  13.670 -0.1123  0.2563 -0.0410
26731W        W42540   0.581  13.831  13.208  0.2195 -0.1699  0.2030
26732W        W42541   1.224   8.316  13.294 -0.3165 -0.2100  0.1797
26733W        W42542  16.731   4.579  12.151  0.2777 -0.3832  0.1419
26734W        W42543   8.662   9.008   3.406 -0.2965  0.1902 -0.0852
26735W        W42544  10.693  10.828  15.411  0.1251 -0.3129  0.0416
26736W        W42545   9.019   3.974  13.457  0.1564 -0.3278 -0.0133
26737W        W42546   2.099  11.644   5.010  0.0927  0.0791  0.0473
26738W        W42547  12.140   8.960  12.464 -0.1896  0.0884  0.2930
26739W        W42548   1.446  16.710  11.822 -0.2153 -0.0588 -0.0276
26740W        W42549   0.897   1.381   0.791  0.0351 -0.0340  0.3121
26741W        W42550   6.821  10.454   2.967 -0.1325  0.0152  0.2111
26742W        W42551   6.792   8.082  13.936 -0.0854 -0.2135  0.1655
26743W        W42552   2.519   0.030  10.730 -0.3144  0.1220 -0.1304
26744W        W42553  15.933   7.562  11.943 -0.2821  0.0022 -0.2128
26745W        W42554  13.577   7.835   1.223 -0.0743  0.2726 -0.0223
26746W        W42555   8.505   3.877  14.848  0.2223 -0.2105 -0.1167
26747W        W42556  17.863   0.205   1.477 -0.1416  0.3503  0.0873
26748W        W42557   3.545  11.369   2.493  0.1342  0.0535 -0.1012
26749W        W42558  11.290   9.922   3.391 -0.1142  0.0237  0.2245
26750W        W42559   4.681   8.120  11.394 -0.4281  0.0472 -0.0856
26751W        W42560   4.608   0.856   5.154  0.2096 -0.2253  0.1096
26752W        W42561  16.455  16.228  12.719 -0.1438  0.1712 -0.1505
26753W        W42562   7.130  14.945  13.248  0.0874  0.2021  0.0698
26754W        W42563  17.103  14.751   2.002  0.0278  0.1433  0.1358
26755W        W42564  14.157   7.446  11.960 -0.0551  0.2160  0.1395
26756W        W42565   1.697   2.081  15.315  0.2985 -0.1647 -0.0715
26757W        W42566   9.891  13.212  13.138  0.0660  0.1575 -0.0248
26758W        W42567   4.846   9.158   4.537  0.1018 -0.1311 -0.0675
26759W        W42568   8.393  11.271  15.880 -0.0710  0.2233  0.2941
26760W        W42569  13.640  16.692   3.591  0.2507  0.1450 -0.2411
26761W        W42570  16.090  10.026   1.377 -0.2071  0.0189  0.0366
26762W        W42571   2.812  14.937   1.858 -0.1660 -0.0081 -0.1090
26763W        W42572  11.961   2.611   4.604  0.0760  0.1353 -0.0769
26764W        W42573  15.938  11.706   4.117  0.2491  0.0990  0.1326
26765W        W42574   3.486  13.928   6.142 -0.1798  0.4525  0.2531
26766W        W42575  15.743  11.557  13.329 -0.0356 -0.3018 -0.0382
26767W        W42576  16.529  12.795  10.795  0.0605  0.2368 -0.0797
26768W        W42577  17.543   6.303  13.153 -0.1323  0.2478 -0.1735
26769W        W42578   5.079   6.538   4.158  0.2503 -0.0630 -0.0997
26770W        W42579   2.231   9.726  11.944  0.1966  0.0066 -0.2312
26771W        W42580  13.217   4.133   4.897 -0.2492 -0.1037 -0.1042
26772W        W42581   0.990   9.507  12.761 -0.0211 -0.2037 -0.1549
26773W        W42582  16.356  13.464  11.368  0.1158 -0.0278  0.0396
26774W        W42583   9.523   0.523   3.234  0.3749  0.0345 -0.0571
26775W        W42584   7.656   4.460   4.462  0.0891  0.3713  0.2331
26776W        W42585  12.744  15.584   5.203  0.1476  0.0412 -0.0554
26777W        W42586  13.887  16.706   4.628  0.0390  0.0064  0.1983
26778W        W42587  15.422  16.325   4.675  0.2570 -0.0749  0.1086
26779W        W42588   9.584   9.443  13.851  0.2158  0.1494  0.1362
26780W        W42589  10.547   2.174   4.245 -0.0302 -0.1297  0.0310
26781W        W42590  16.652   4.015  13.974  0.0759  0.2043 -0.2206
26782W        W42591  10.648  13.535   2.295  0.1736  0.0019  0.0836
26783W        W42592   7.606  12.721   1.190  0.2327  0.0743 -0.1745
26784W        W42593   3.021  10.806   5.571  0.0601  0.2766  0.0355
26785W        W42594   4.789  14.285  11.279 -0.1221  0.0735 -0.0473
26786W        W42595  17.629  12.307  11.736  0.1048 -0.0016  0.1054
26787W        W42596  13.112  13.387   3.379 -0.4325 -0.0110  0.1524
26788W        W42597   1.197  10.019   5.222 -0.1414  0.0625 -0.0909
26789W        W42598  11.523   4.083  15.601 -0.2569 -0.1950 -0.0660
26790W        W42599   8.411  17.069   4.520  0.0756 -0.0324  0.1705
26791W        W42600   2.423   1.799   0.073 -0.0182 -0.1441 -0.0484
26792W        W42601  14.342  13.095  12.981  0.4506 -0.3183  0.0922
26793W        W42602   6.836   4.622  10.973 -0.1604 -0.0535  0.0413
26794W        W42603  13.078  14.379   3.351  0.2318  0.1894  0.1279
26795W        W42604   2.538  13.594  14.761 -0.1361 -0.1285  0.2388
26796W        W42605  18.164  16.308   2.016 -0.1013  0.0196  0.0818
26797W        W42606   1.856   4.709  12.943  0.0772  0.0190  0.1489
26798W        W42607  13.975   5.087  13.292 -0.0780  0.1795  0.1786
26799W        W42608   0.860   1.855   1.853 -0.2073 -0.4078  0.3809
26800W        W42609   6.189   2.176  12.695  0.2531 -0.0603  0.1346
26801W        W42610  13.081   1.165  14.614 -0.0003 -0.0306 -0.1260
26802W        W42611   7.379  18.030   3.236 -0.0050 -0.1298  0.0699
26803W        W42612  10.061   8.748   1.097  0.1153 -0.0366 -0.1160
26804W        W42613   5.398   5.139  13.523  0.0141  0.2170 -0.2174
26805W        W42614  13.640  17.320  15.682 -0.0544  0.1625  0.4877
26806W        W42615  15.830  10.338   1.767 -0.0777  0.1645  0.5183
26807W        W42616   6.862  13.388  15.003  0.0478  0.0684 -0.0581
26808W        W42617  13.223   8.893  15.288 -0.0186 -0.1953  0.1455
26809W        W42618   7.876  12.092  13.338  0.2005 -0.1329  0.1612
26810W        W42619   4.479  15.004  15.722  0.0857 -0.3096 -0.0941
26811W        W42620   1.505   6.989   2.267 -0.1033 -0.0738  0.3081
26812W        W42621  13.821  14.228   2.946 -0.1019 -0.1287 -0.0319
26813W        W42622   3.994  16.944  11.256 -0.0465 -0.2862  0.1910
26814W        W42623   9.223  15.423   3.762  0.3319  0.0829 -0.0710
26815W        W42624   1.081   1.214  14.356  0.2263  0.0900 -0.1654
26816W        W42625   1.784  15.224  14.696  0.1765 -0.4809  0.3089
26817W        W42626  10.773   2.428   3.882 -0.1719 -0.3505  0.0400
26818W        W42627  15.948  14.511  15.231  0.2530  0.0685 -0.0578
26819W        W42628  14.256   8.148   1.791 -0.0487  0.0370 -0.1093
26820W        W42629  14.898  12.876   2.160 -0.3028 -0.0865  0.1078
26821W        W42630  13.417  10.047  15.401  0.2457  0.3836  0.3052
26822W        W42631   9.105   0.530   1.216 -0.0015  0.2053  0.0140
26823W        W42632   2.994  16.496   1.400  0.0783 -0.0102 -0.0848
26824W        W42633  10.163   4.111   4.164  0.1116 -0.0867 -0.1968
26825W        W42634   0.928  12.585  11.617  0.1198  0.1969  0.0780
26826W        W42635  17.284   8.082  13.199  0.2236 -0.1304  0.0790
26827W        W42636   6.678  16.778   0.478  0.1173 -0.1026  0.0198
26828W        W42637   0.937   7.528  11.503 -0.0960 -0.3328  0.1270
26829W        W42638  16.229  11.740   3.105 -0.0102 -0.0498  0.2337
26830W        W42639   2.448  15.651   2.394 -0.0161  0.1549 -0.3599
26831W        W42640  16.024  13.449  16.071 -0.1562 -0.1852  0.2315
26832W        W42641   1.547   5.526  14.624  0.0973  0.2849  0.1267
26833W        W42642   7.813  17.663  11.370 -0.1687 -0.2035  0.0608
26834W        W42643  10.640  17.131  14.948  0.3177 -0.2186 -0.1177
26835W        W42644  12.775   6.737  12.293  0.2310  0.0143  0.0621
26836W        W42645  13.225  15.343  15.184  0.0301  0.0287 -0.0004
26837W        W42646   1.899   7.268   2.400  0.1716 -0.1347 -0.0143
26838W        W42647   2.376   3.538   2.375 -0.0450 -0.1297  0.2173
26839W        W42648   0.561   8.325   4.037 -0.2189 -0.2198 -0.0104
26840W        W42649   6.189  10.439   1.681 -0.0379 -0.1172 -0.2448
26841W        W42650   9.434  10.333   3.132  0.0892 -0.3151 -0.1454
26842W        W42651  13.699  15.627   1.986  0.2750  0.0620 -0.1324
26843W        W42652   0.421   1.668  12.322  0.1893 -0.1269 -0.2531
26844W        W42653   8.866  11.412  15.762 -0.0905 -0.0509  0.3240
26845W        W42654   6.250  18.069   0.306 -0.0285  0.1064 -0.1506
26846W        W42655   1.187   4.101  13.951 -0.1304 -0.0700  0.2487
26847W        W42656  17.322   7.017   5.786  0.0214 -0.3754 -0.2708
26848W        W42657  13.185  14.792   1.214  0.2264 -0.1734  0.0702
26849W        W42658   2.495   6.508  13.735 -0.1881  0.0803  0.1850
26850W        W42659   0.220   8.716   2.798  0.0632  0.2289  0.3643
26851W        W42660  16.288  14.654  13.385  0.1839 -0.0837  0.2216
26852W        W42661  14.584   5.274   0.961  0.2420 -0.1820  0.4155
26853W        W42662  15.691   5.449  14.734  0.2408  0.0669  0.0758
26854W        W42663  16.797  13.716  14.329  0.2718 -0.3799  0.2756
26855W        W42664   8.778   4.131   1.672  0.1320  0.0948  0.0949
26856W        W42665   0.776   8.008   1.670  0.0445 -0.0308 -0.1534
26857W        W42666  14.844   3.072  11.225  0.1776  0.1495  0.1753
26858W        W42667   1.483  15.324  11.476  0.0172 -0.2622  0.0362
26859W        W42668   1.638   7.585   5.330  0.1298 -0.2250  0.2423
26860W        W42669   1.422  11.258   2.186 -0.0408  0.1244  0.2596
26861W        W42670  18.214  10.934  12.559  0.1326 -0.0285 -0.3410
26862W        W42671  18.106   5.942   3.796  0.1868  0.1785 -0.1308
26863W        W42672  17.745   5.989  12.041  0.1696  0.1664  0.1018
26864W        W42673   2.704  12.205  15.612  0.1445  0.1439  0.0718
26865W        W42674  16.027  13.841  11.316  0.0915 -0.0230 -0.1442
26866W        W42675   7.902   3.532  12.901 -0.1968  0.2106 -0.1313
26867W        W42676  18.083   7.800   5.081  0.2570 -0.0764  0.2576
26868W        W42677   6.947  17.995  11.403  0.0113  0.2920  0.2462
26869W        W42678   9.279  14.063   5.518  0.0972 -0.1209 -0.2108
26870W        W42679   0.667   4.177   3.806  0.2453 -0.0606  0.1183
26871W        W42680  12.824  10.688   0.755  0.0162 -0.3077  0.0143
26872W        W42681  11.944   3.170  14.775 -0.1436  0.1400  0.2817
26873W        W42682  12.086   8.438   0.265  0.0315  0.2670 -0.0760
26874W        W42683   6.530  15.128   4.846  0.0959  0.1078  0.0275
26875W        W42684   4.516  14.063  11.660  0.2803 -0.1661  0.4081
26876W        W42685  10.647   6.566  11.206 -0.4009 -0.1482  0.0895
26877W        W42686  17.487   3.283  10.623 -0.2974  0.3510 -0.0405
26878W        W42687   0.329   4.582  13.490  0.0819 -0.1122  0.0125
26879W        W42688   4.201  16.408  12.000  0.1106 -0.0620  0.1060
26880W        W42689   4.241   1.022   3.641 -0.0595 -0.1835  0.2048
26881W        W42690  11.992  15.721  10.938 -0.0474  0.3819 -0.3088
26882W        W42691   7.904   7.403  13.939  0.1919 -0.0873 -0.1279
26883W        W42692  12.502  11.074  11.240 -0.0962  0.4236  0.2993
26884W        W42693   5.065  18.165  13.309  0.0841  0.3316  0.1029
26885W        W42694  16.640  17.229   5.559  0.0080  0.1072 -0.1356
26886W        W42695   9.210   3.500  13.466 -0.1989  0.2794  0.0467
26887W        W42696   5.578   4.099   3.061  0.1188  0.2476 -0.0247
26888W        W42697   1.454   2.754   4.997  0.2604  0.1370  0.0962
26889W        W42698   3.211   5.488   1.022  0.1668 -0.1291  0.2738
26890W        W42699   8.347  17.840  12.455 -0.3362 -0.1163 -0.0512
26891W        W42700   7.817   8.903   3.161 -0.1402  0.1034  0.2664
26892W        W42701   0.527  11.441   4.950  0.0716  0.2880 -0.1987
26893W        W42702   8.471   2.884  12.755  0.0565 -0.4188 -0.2641
26894W        W42703  17.050  14.771  12.320  0.3663  0.0188  0.0020
26895W        W42704  16.046  13.521  15.364  0.0627 -0.2639 -0.0189
26896W        W42705  10.845  11.285   0.618  0.3017 -0.1128  0.1740
26897W        W42706  13.297  10.579  12.330  0.3399  0.0568  0.3479
26898W        W42707  16.493   8.861  11.813 -0.2062 -0.0736 -0.1137
26899W        W42708  14.964   5.929  12.148  0.1250  0.0830  0.0291
26900W        W42709  16.399   7.237  14.106 -0.1404  0.0695 -0.0391
26901W        W42710   1.940   8.883  15.454 -0.0061 -0.1933 -0.2027
26902W        W42711  16.831  16.108   2.854 -0.1194  0.1184  0.2052
26903W        W42712  14.311   1.102  11.940  0.3865 -0.1881 -0.2323
26904W        W42713   2.523   9.388   5.814 -0.1041 -0.0624 -0.2150
26905W        W42714  13.395  14.496   0.236  0.2184  0.0008  0.2308
26906W        W42715  16.032  11.627  12.025 -0.1460  0.0468  0.1332
26907W        W42716  10.337  13.201  11.917 -0.2342 -0.2008 -0.1155
26908W        W42717  17.860  14.562  14.367 -0.3442 -0.0422  0.3541
26909W        W42718   0.911   5.995  13.515  0.1790  0.2938 -0.1026
26910W        W42719  13.587   5.897  13.689  0.2155  0.2506  0.1188
26911W        W42720   9.773  11.646   4.425  0.0899  0.0429 -0.0823
26912W        W42721   4.256  15.849   1.467  0.0662  0.0781 -0.0546
26913W        W42722  18.263   4.227  10.638  0.1461 -0.2233 -0.0705
26914W        W42723   1.711   8.913   0.422  0.0341 -0.1468 -0.0364
26915W        W42724   2.671  14.573  15.302 -0.1042  0.1388  0.0902
26916W        W42725   4.213   6.773   0.608  0.2175 -0.3742 -0.1417
26917W        W42726   6.692  14.755  15.253  0.1574 -0.0541  0.0558
26918W        W42727  16.342   5.647   0.063  0.1279 -0.1482 -0.0053
26919W        W42728   7.573  12.742   4.381 -0.1051  0.0356 -0.3976
26920W        W42729   6.381  16.236  12.139 -0.0271 -0.1019 -0.2340
26921W        W42730  13.851   3.021  10.351 -0.2981 -0.0029 -0.2758
26922W        W42731   2.435   9.059  15.654  0.1346 -0.1714  0.1915
26923W        W42732   0.354   4.987   2.177 -0.4139  0.3916  0.1250
26924W        W42733  15.697  14.382   3.965  0.3144 -0.1661  0.0291
26925W        W42734   7.969  15.880  13.918 -0.3672 -0.0455  0.2168
26926W        W42735   9.453   7.328   2.311 -0.0023  0.3291  0.0348
26927W        W42736  17.123  10.843  10.653  0.1309 -0.0164 -0.3182
26928W        W42737  17.927  10.471  15.898 -0.0934  0.2015  0.3971
26929W        W42738   5.868  10.739   4.470 -0.0772 -0.1925 -0.1456
26930W        W42739  17.369  18.177  14.381 -0.1459 -0.2310 -0.3327
26931W        W42740   6.052  13.074  14.113  0.2757 -0.0467  0.0045
26932W        W42741   9.875   4.522   2.307  0.0829  0.0637 -0.1443
26933W        W42742   3.600   7.824   3.335  0.2487  0.1353  0.0376
26934W        W42743   7.998  10.861   0.275  0.1459  0.0054  0.2142
26935W        W42744  13.987   3.197   0.813 -0.2767  0.1888  0.3023
26936W        W42745  11.856  14.231  15.829 -0.1148  0.0961 -0.2287
26937W        W42746   5.683   7.614  12.249 -0.0812 -0.0812 -0.3220
26938W        W42747  11.906   4.238   1.316  0.1795 -0.0482  0.0031
26939W        W42748  10.872  14.049  12.825  0.0648  0.2021 -0.0309
26940W        W42749  15.829  14.642  11.426  0.2363  0.1734 -0.0112
26941W        W42750  10.736   7.200  11.270 -0.4518 -0.2319  0.2948
26942W        W42751  13.126  14.403   5.404 -0.0279  0.1941 -0.1096
26943W        W42752  13.640  11.978  11.146  0.1754  0.0242  0.1232
26944W        W42753  11.007  14.563   3.659  0.0151 -0.3127  0.1874
26945W        W42754   5.456   7.367   3.756  0.1153 -0.1397 -0.1108
26946W        W42755   4.930  12.814   5.810 -0.1104  0.1053  0.0002
26947W        W42756  12.842  17.488   4.641  0.2130 -0.1080  0.1083
26948W        W42757   5.502   6.874   1.201 -0.0304  0.4581  0.0752
26949W        W42758   1.597  10.937  15.343  0.1551 -0.1622  0.0538
26950W        W42759   0.898   3.153   6.166  0.0249  0.1537 -0.1077
26951W        W42760   4.399  10.651  10.911 -0.1266 -0.2888 -0.0588
26952W        W42761  17.464  17.609   5.112 -0.0897  0.1318 -0.0132
26953W        W42762   4.609   5.415  13.607  0.0747  0.1182  0.3100
26954W        W42763  14.793  12.339   5.229  0.0859 -0.1650 -0.1575
26955W        W42764  10.532   3.934   2.756 -0.3441 -0.0956 -0.1043
26956W        W42765  10.889   6.114   2.276  0.0168  0.1792 -0.1766
26957W        W42766  17.563  10.461   0.719 -0.0572 -0.3275  0.0354
26958W        W42767  12.750   6.114   2.933  0.1176  0.0754 -0.1201
26959W        W42768  16.696   4.228   3.786  0.0188 -0.0902  0.2275
26960W        W42769   9.824  15.356  11.754 -0.2594  0.0258 -0.2662
26961W        W42770  16.312  16.260   3.399 -0.0643  0.2869 -0.2401
26962W        W42771   2.427  14.661   4.361  0.2131  0.0024  0.0730
26963W        W42772  10.778   4.172   0.969  0.0667  0.1674  0.0831
26964W        W42773  17.146   7.054   4.566  0.1799 -0.1481 -0.1399
26965W        W42774   0.085  15.405   4.865  0.0181 -0.1911  0.0570
26966W        W42775   2.275   4.969  12.262 -0.0116 -0.0524  0.1154
26967W        W42776  16.068  11.915   2.274  0.1287 -0.3447  0.0164
26968W        W42777  10.888   5.132   0.593  0.1413  0.1580  0.1203
26969W        W42778  14.423  13.911  11.944  0.0923  0.1651 -0.0381
26970W        W42779  16.828   9.475   1.013 -0.0649  0.2131 -0.1712
26971W        W42780   3.874   5.571   0.475  0.1835  0.0056 -0.1136
26972W        W42781   7.763   1.929  14.252 -0.0965  0.2339  0.0878
26973W        W42782  18.251   7.013   5.647  0.0150  0.1481  0.0407
26974W        W42783   6.050   3.965  11.681  0.3263  0.0135 -0.4774
26975W        W42784  12.341   3.278  11.557  0.0079 -0.4534  0.1707
26976W        W42785   5.186  16.551   2.589  0.0368 -0.0930  0.1833
26977W        W42786   8.775   9.042  11.570 -0.0066 -0.0833 -0.0554
26978W        W42787  16.127  10.366  12.463 -0.4272  0.0375 -0.2033
26979W        W42788   3.115  10.081   3.980 -0.2732  0.1469 -0.1353
26980W        W42789   5.122   0.022   1.686 -0.0710  0.1009  0.0234
26981W        W42790  12.692   9.357   4.213  0.1966 -0.0100  0.1038
26982W        W42791  15.164  18.218  12.936  0.0587 -0.1828  0.0062
26983W        W42792   5.626  12.822   3.239  0.0072 -0.3054  0.3879
26984W        W42793   9.054   1.167   5.679  0.2692  0.0051 -0.0629
26985W        W42794  13.014   5.788  15.371 -0.2374  0.1013  0.0237
26986W        W42795   4.779  16.541  15.850  0.2195 -0.0140 -0.2328
26987W        W42796  17.570  16.938  11.745 -0.0490  0.0139 -0.2264
26988W        W42797  15.500   9.254   1.348 -0.0934  0.0743 -0.1496
26989W        W42798   5.887  17.039   3.091 -0.0938  0.3570 -0.3988
26990W        W42799  14.798  11.442  14.748 -0.0295 -0.1927  0.2225
26991W        W42800  11.220   8.691  10.701  0.1717 -0.1597  0.3117
26992W        W42801  16.805   4.183  15.031  0.2593 -0.1304  0.0057
26993W        W42802  12.331   4.156  11.389 -0.1800 -0.1676  0.1478
26994W        W42803   8.447  16.169   4.550 -0.0613 -0.1911 -0.4012
26995W        W42804  14.361   0.891   1.681  0.1513 -0.1874 -0.0904
26996W        W42805  11.651  11.880   1.975  0.2783  0.5203  0.2950
26997W        W42806   0.744   2.877   3.844  0.1345  0.1093 -0.1065
26998W        W42807  11.085  11.963   3.019  0.1421  0.2832  0.0783
26999W        W42808   3.388   7.790   1.387  0.0738  0.1356  0.0249
27000W        W42809   3.650  17.796  14.296  0.2715  0.2432 -0.3977
27001W        W42810   3.080   4.282   1.009  0.0523 -0.1005 -0.2114
27002W        W42811   8.738  10.387  11.532 -0.1727  0.1577 -0.0671
27003W        W42812   6.598   0.844   3.398 -0.1101  0.1016  0.0778
27004W        W42813   7.643  10.527  10.210 -0.0004  0.0285 -0.1487
27005W        W42814  16.923   2.845  13.152 -0.3350 -0.0259 -0.3065
27006W        W42815  12.728   7.371   1.048  0.0856 -0.1142 -0.1732
27007W        W42816  17.426  10.927  15.214 -0.0541 -0.3158 -0.0190
27008W        W42817  17.457  16.299  15.077 -0.0557 -0.1534 -0.2167
27009W        W42818  17.583  11.068   4.550 -0.3140  0.0138  0.1217
27010W        W42819   0.105  17.261  14.220  0.0076 -0.0754  0.1157
27011W        W42820  10.115   4.052  10.362  0.1346 -0.0865 -0.2388
27012W        W42821   1.240   9.163  15.122  0.1704  0.0623 -0.1142
27013W        W42822  12.746  18.231  15.854 -0.1430 -0.0628 -0.0913
27014W        W42823   4.292   6.674  15.134  0.3449  0.0735  0.1034
27015W        W42824   2.582  17.507   2.319  0.0800  0.0019 -0.1397
27016W        W42825  17.104  13.335   0.456 -0.0771 -0.0774 -0.1928
27017W        W42826   6.856   2.568  11.517 -0.2898 -0.2769 -0.0395
27018W        W42827  14.797  16.903  12.886 -0.2847 -0.1553  0.0157
27019W        W42828   3.623  13.395   4.533  0.0034 -0.2019 -0.3524
27020W        W42829   6.294  15.529   1.604 -0.5347 -0.2094  0.0457
27021W        W42830  16.427  11.248  12.496  0.1087  0.0794 -0.3297
27022W        W42831   8.462  12.075   2.322  0.0995 -0.0552  0.1119
27023W        W42832   2.189  17.083   2.359 -0.1339  0.2509 -0.1550
27024W        W42833   1.306  13.594  12.594  0.0091  0.0952  0.0966
27025W        W42834   9.605   8.078   5.971  0.2740  0.1859  0.0787
27026W        W42835   0.752   7.102  11.244  0.1445  0.0564  0.1421
27027W        W42836  10.894  10.614   0.758  0.2235  0.0340 -0.3174
27028W        W42837  14.355   1.852  13.808  0.0921  0.0134  0.0459
27029W        W42838   4.597  10.545   4.681 -0.0334  0.0504  0.1054
27030W        W42839   4.696   0.366   0.847  0.0073 -0.0765  0.2513
27031W        W42840   6.074   9.794   0.281  0.3215  0.1149  0.3137
27032W        W42841   9.735   3.824  15.303  0.1628  0.2353  0.0203
27033W        W42842  11.077   5.745  13.614 -0.1189  0.0630  0.1836
27034W        W42843   0.007   8.007   0.321  0.0472  0.0234  0.1886
27035W        W42844  15.571   7.283   0.338 -0.0198 -0.0869 -0.0008
27036W        W42845   1.188  13.748   3.103 -0.0747  0.3222 -0.0284
27037W        W42846   8.659   9.292   2.986 -0.0722 -0.2089  0.1192
27038W        W42847  12.447   8.609   0.821 -0.0395 -0.2463 -0.0899
27039W        W42848   7.081   3.765  10.564 -0.1360  0.1057  0.1534
27040W        W42849   8.376   5.191   2.450  0.1345 -0.0843  0.0758
27041W        W42850   3.442   5.271  15.176 -0.1026 -0.1633  0.3428
27042W        W42851  10.943   2.129   2.109 -0.0117  0.1963  0.1394
27043W        W42852  14.598  17.282   1.464 -0.1237  0.0634 -0.0437
27044W        W42853  15.131   2.124  10.518 -0.1196 -0.0102 -0.0576
27045W        W42854  10.898  17.457   5.701  0.3514  0.3260 -0.1025
27046W        W42855  12.701   8.106  12.563 -0.1952 -0.3021  0.1180
27047W        W42856   6.207  11.525  15.763  0.3415  0.1700 -0.0699
27048W        W42857   4.549   6.423  15.517 -0.4885 -0.0091  0.1205
27049W        W42858  17.448   0.157  15.755  0.0971 -0.0583  0.1293
27050W        W42859  15.488   1.511   1.910  0.0569 -0.3387 -0.1244
27051W        W42860  15.515   5.375   2.241 -0.1761  0.1674  0.1801
27052W        W42861   1.092   0.112  13.769 -0.1123 -0.0006  0.2333
27053W        W42862   4.036  13.032   2.794  0.1094 -0.0242  0.0421
27054W        W42863  13.519   2.651   1.892  0.1605 -0.2158 -0.0522
27055W        W42864   9.375   6.636   3.938  0.1124 -0.2238  0.1544
27056W        W42865   5.002  15.315  15.192 -0.1007 -0.1011  0.1587
27057W        W42866   5.823   9.574   2.570 -0.0370 -0.0562  0.0113
27058W        W42867   9.253  13.221  12.216  0.1212 -0.1693  0.2179
27059W        W42868  11.929  14.174  15.302  0.2567  0.0383 -0.1072
27060W        W42869   1.779   4.732  14.053 -0.0603 -0.1616  0.0630
27061W        W42870   3.656  10.165  12.458  0.3112 -0.1693  0.1188
27062W        W42871  16.488   3.665   2.950 -0.1557  0.0381  0.1083
27063W        W42872   7.026  14.452  13.440 -0.1447 -0.1197  0.1972
27064W        W42873   6.060   9.582   2.119  0.2477  0.0050 -0.0355
27065W        W42874  15.628  15.295   4.201  0.1733  0.3539 -0.0341
27066W        W42875   7.744   2.711   2.804  0.0670  0.0846  0.0039
27067W        W42876   8.003  12.215   0.530 -0.3037  0.0047 -0.1211
27068W        W42877  15.267  10.494   3.923 -0.2141  0.3799 -0.3785
27069W        W42878  11.917   7.633  12.525 -0.0710 -0.0638  0.0560
27070W        W42879   3.586   6.353   3.742 -0.0050  0.0876 -0.1433
27071W        W42880  14.935   5.191   3.876  0.1863 -0.0206  0.0222
27072W        W42881  10.233   6.368   5.359 -0.0752  0.2221 -0.2183
27073W        W42882  17.005  10.893   2.533 -0.2186 -0.1485  0.1731
27074W        W42883   1.140  16.463  12.210  0.3590  0.2557 -0.0234
27075W        W42884  11.955   5.185   2.992  0.1075 -0.0117 -0.0228
27076W        W42885  13.832   8.431   5.021  0.0571  0.0218 -0.2037
27077W        W42886  13.991   7.966  13.795  0.2505 -0.0796  0.0913
27078W        W42887   1.751   4.940  15.763  0.1493 -0.0329 -0.1909
27079W        W42888   7.022   4.758   3.449 -0.0256 -0.0871  0.2621
27080W        W42889   9.824  11.047  15.215 -0.1873 -0.2368 -0.2593
27081W        W42890   0.520   9.244   4.425 -0.0974  0.1504 -0.1738
27082W        W42891  11.615  14.515  12.191 -0.0530  0.3325  0.0346
27083W        W42892   4.479   6.260   2.988 -0.0421 -0.0467 -0.2665
27084W        W42893  10.224  12.470   2.187 -0.0085 -0.0202 -0.4247
27085W        W42894   6.434   6.723  13.106 -0.2578  0.0315 -0.2808
27086W        W42895   1.181  14.115   3.495  0.2104  0.0604 -0.1732
27087W        W42896   6.951   8.385  14.343 -0.2634 -0.0044  0.0343
27088W        W42897   3.864   0.433  14.002 -0.0354  0.2331  0.0728
27089W        W42898  10.830   9.085   3.911 -0.4362  0.2593 -0.2358
27090W        W42899   8.550   7.143   2.252 -0.1414  0.0298 -0.2530
27091W        W42900   6.544  11.151  14.021 -0.0654 -0.2003  0.0341
27092W        W42901  13.325   0.480   4.687  0.1749 -0.0833 -0.0656
27093W        W42902   2.986  14.072   4.802 -0.0321 -0.1134 -0.3459
27094W        W42903  15.893  16.518  14.608 -0.1311  0.0152  0.1072
27095W        W42904   6.471  12.740  12.290 -0.2101  0.0923  0.1138
27096W        W42905   5.060  10.127  12.493  0.1854 -0.3667 -0.1149
27097W        W42906  12.753   1.849   2.162  0.1225  0.1532 -0.1214
27098W        W42907  15.571   7.698  13.903 -0.2632 -0.3481 -0.1166
27099W        W42908  11.205   6.575  15.407  0.0322 -0.0308  0.0565
27100W        W42909  10.641   3.907  13.088  0.0952 -0.0753 -0.2372
27101W        W42910   2.786   7.378   4.267  0.1185 -0.0263  0.0510
27102W        W42911   2.524   5.585  14.781  0.0594  0.1210  0.0831
27103W        W42912   6.263  12.386  15.340  0.2117 -0.1250 -0.0935
27104W        W42913   2.562  15.025   4.036 -0.3333  0.1216  0.0977
27105W        W42914  12.583  16.929   1.847  0.0547  0.2301  0.1764
27106W        W42915   0.629  17.646  11.451 -0.2664  0.0475  0.2305
27107W        W42916   5.324  15.185  16.046 -0.1482 -0.2622  0.2111
27108W        W42917   8.013  14.917   1.744 -0.0107 -0.0337  0.0449
27109W        W42918   2.232  16.907   0.558 -0.0266 -0.0400 -0.1435
27110W        W42919   0.991   2.550  11.797 -0.2090 -0.2344 -0.0183
27111W        W42920  11.771   7.528   0.179 -0.1729 -0.0542  0.5990
27112W        W42921  12.245  13.086  10.241  0.2256  0.2241 -0.0529
27113W        W42922  13.547   1.421   5.741 -0.1453 -0.1016  0.2003
27114W        W42923  14.484   3.273   0.102  0.2466  0.0996 -0.0002
27115W        W42924  15.003   4.049  13.815  0.0388 -0.1538 -0.2448
27116W        W42925  15.022   5.422   0.867 -0.1111 -0.0125  0.0060
27117W        W42926   6.221   1.431   4.592 -0.1128 -0.1344 -0.2209
27118W        W42927   2.137   3.205  11.584  0.1602  0.0018  0.3826
27119W        W42928   0.025  13.335   1.157  0.1107 -0.0855 -0.0397
27120W        W42929   2.736   1.940   2.121  0.1116  0.3924  0.2692
27121W        W42930   0.593   3.377  10.661  0.0996 -0.0214  0.3077
27122W        W42931   3.415   4.222   4.098 -0.1273 -0.0873 -0.1188
27123W        W42932   6.963   3.325   1.630 -0.2526 -0.1479 -0.1733
27124W        W42933  11.314  14.806  13.509 -0.1624  0.0185 -0.0027
27125W        W42934   4.266  14.072   4.197  0.1771  0.0861 -0.2066
27126W        W42935   5.805  13.297   3.078 -0.0929  0.0177 -0.0091
27127W        W42936   3.297  12.695  15.211 -0.2526 -0.0865 -0.0895
27128W        W42937  12.322   4.867  11.409 -0.1136  0.2175  0.0354
27129W        W42938  14.255   1.679  14.372  0.2002  0.0106  0.1261
27130W        W42939  11.030   4.459  12.929 -0.1402 -0.0424 -0.0687
27131W        W42940   1.893  15.048  15.549 -0.1713 -0.0552 -0.0772
27132W        W42941  11.290   5.713   1.674 -0.3040  0.2007 -0.1825
27133W        W42942  13.028  15.303   3.311 -0.1810  0.1583 -0.3107
27134W        W42943  11.963  11.391   3.992 -0.0570  0.1226 -0.0118
27135W        W42944   7.845  12.951   5.916  0.1346  0.1092 -0.3111
27136W        W42945  12.986  12.438  14.977  0.4990 -0.0106  0.3109
27137W        W42946  14.392  12.219  12.888  0.2684 -0.1526  0.0069
27138W        W42947  11.388  14.269  12.662 -0.0922  0.0549 -0.0206
27139W        W42948   6.418  14.344  13.106 -0.0608  0.0516  0.1816
27140W        W42949   7.031   9.305   4.197  0.2325  0.0697  0.0628
27141W        W42950   0.800   1.554  14.064 -0.0617 -0.1307 -0.0566
27142W        W42951   5.420   4.785  11.722 -0.3993  0.2018  0.0105
27143W        W42952   5.275  11.952   0.260  0.1465  0.0934 -0.1666
27144W        W42953   5.939   1.713  14.716 -0.0869 -0.1169 -0.1508
27145W        W42954  13.780  17.940  11.414  0.0220  0.1117 -0.0600
27146W        W42955   7.786   0.514   0.230 -0.1469  0.0428  0.0987
27147W        W42956  16.110   0.092   0.909 -0.0428 -0.0304 -0.0454
27148W        W42957  17.941  13.225  13.755 -0.0831  0.3815  0.0387
27149W        W42958  14.169  15.925   1.972 -0.0013 -0.2492 -0.1250
27150W        W42959  16.813   7.464  14.280  0.0053 -0.0779 -0.0343
27151W        W42960   5.432   6.756  15.939 -0.1334  0.1938  0.2119
27152W        W42961   3.941   7.065  11.484  0.0934 -0.3086  0.2447
27153W        W42962   9.620   3.605  12.318  0.1312 -0.1125  0.1741
27154W        W42963  18.186  17.292   1.918 -0.0518  0.0850  0.1115
27155W        W42964  10.604  16.377  12.477  0.1308  0.2267  0.0684
27156W        W42965  14.067  14.724   9.992 -0.0541 -0.0583  0.0552
27157W        W42966  12.178   4.258   2.644 -0.2569 -0.0892  0.1150
27158W        W42967   4.849  17.623   3.831 -0.0051 -0.4492 -0.1251
27159W        W42968  15.341   5.771   0.778 -0.0124 -0.2829  0.1686
27160W        W42969  15.658   0.606   4.293  0.1549 -0.0334  0.0073
27161W        W42970  14.307   6.529  14.371 -0.1181 -0.0155 -0.1451
27162W        W42971   3.985  11.694   2.188  0.0758  0.3022  0.0079
27163W        W42972  12.816   8.393  15.517  0.0747  0.0698 -0.3444
27164W        W42973   3.227  16.135   2.457  0.0275 -0.0911 -0.3461
27165W        W42974  13.187   4.093  11.076 -0.0933  0.0095  0.1117
27166W        W42975   3.679   5.765   3.077 -0.1103 -0.2551 -0.0607
27167W        W42976   3.426   8.206  10.635 -0.2596 -0.4007 -0.3384
27168W        W42977   0.892   7.343  13.417 -0.0471  0.0381 -0.0682
27169W        W42978   6.439   5.213   2.618  0.1480  0.1067  0.0538
27170W        W42979  15.784  11.894   2.851  0.0923 -0.0244  0.2271
27171W        W42980  14.486   3.876   3.042 -0.1302 -0.4495  0.0704
27172W        W42981   3.851   1.483  13.825  0.2511  0.0982  0.0478
27173W        W42982  15.199  10.484   5.823 -0.2194  0.4371  0.1913
27174W        W42983   9.175  16.382  10.717 -0.2572  0.1305  0.2853
27175W        W42984  14.587   8.669  14.338 -0.0779 -0.0423  0.2406
27176W        W42985  12.743   7.435   3.641  0.1446 -0.1045  0.1112
27177W        W42986  11.177   4.131  15.118  0.1783 -0.0354  0.0872
27178W        W42987   7.509  14.785   4.861  0.3183 -0.2135  0.1525
27179W        W42988  12.648  16.864   3.921 -0.0923  0.0633 -0.1286
27180W        W42989  16.764  17.091   3.196  0.0507  0.4078  0.1377
27181W        W42990  10.692   4.879   1.190 -0.1679 -0.0811 -0.2365
27182W        W42991  13.578  16.304  13.565  0.2681 -0.1624 -0.1852
27183W        W42992  14.234   9.992  15.862 -0.4035 -0.1723 -0.0856
27184W        W42993   1.168  10.488  15.231 -0.2482  0.0437 -0.0757
27185W        W42994   9.898  15.367   2.732 -0.0309 -0.0057  0.0261
27186W        W42995   6.755   6.006  12.575  0.0873  0.0347  0.2895
27187W        W42996  14.233  17.779   5.381 -0.2246 -0.0904  0.0489
27188W        W42997  13.224  17.050   0.367  0.1036  0.1684  0.0786
27189W        W42998   7.874   7.040  13.087  0.1076 -0.0498 -0.0691
27190W        W42999   5.099   5.137   0.844  0.0961 -0.3853 -0.2560
27191W        W43000   1.594   5.598   0.917  0.1953  0.2191  0.4437
27192W        W43001  14.426   1.842   6.074  0.2297  0.0934 -0.1080
27193W        W43002  16.417   8.413  15.323 -0.1065 -0.2386  0.0251
27194W        W43003   6.341  10.244  12.767 -0.0455 -0.1859  0.1475
27195W        W43004  14.801  17.975  14.656  0.0139 -0.0382  0.1624
27196W        W43005   7.522   4.312   2.238  0.4516  0.1984  0.3721
27197W        W43006   6.737  13.764   0.370  0.1801  0.2583  0.1276
27198W        W43007   5.070  14.748  13.038  0.2312 -0.0755  0.1963
27199W        W43008   6.947   8.744   1.553  0.2150 -0.0159  0.0694
27200W        W43009  14.981   8.005  13.220 -0.1693  0.1512 -0.0626
27201W        W43010   8.918  15.286   1.871 -0.2015  0.3895  0.0461
27202W        W43011   4.375   6.577  13.164  0.0387 -0.0367 -0.1862
27203W        W43012  12.193  16.067   4.339  0.1780 -0.0414 -0.2973
27204W        W43013   1.098   6.000  15.687  0.2213 -0.4921  0.0504
27205W        W43014   7.237   7.424  14.558 -0.0711  0.2915 -0.1912
27206W        W43015   2.758   7.943   3.936  0.1116 -0.0901  0.0923
27207W        W43016   4.247   9.880   1.163  0.2055  0.1521  0.1015
27208W        W43017   9.515  13.838  14.725  0.1457 -0.1681  0.2584
27209W        W43018  13.936  15.522   4.731 -0.1341 -0.1434 -0.1288
27210W        W43019   0.663  12.410   2.153 -0.0283 -0.1307  0.0310
27211W        W43020  11.978   2.257   1.218 -0.0304  0.0462  0.2793
27212W        W43021  16.289   4.380   0.511  0.2401 -0.1141 -0.1383
27213W        W43022   2.417   5.071   2.145  0.0012  0.0974 -0.5028
27214W        W43023   9.325  14.897   3.856  0.0304  0.2462  0.0840
27215W        W43024   6.731   0.892  15.733 -0.1650 -0.0391  0.3063
27216W        W43025   1.025   9.996  14.860 -0.2923 -0.1966  0.0118
27217W        W43026  10.718   2.011   3.165 -0.0575 -0.0318 -0.1819
27218W        W43027  10.372  10.199  16.023 -0.2633 -0.0674  0.1946
27219W        W43028  14.057  17.573  15.722 -0.3638  0.0297 -0.1207
27220W        W43029   0.386   8.381  11.201 -0.0291 -0.0804 -0.0446
27221W        W43030  10.331   2.008  13.087  0.1313  0.1346  0.1671
27222W        W43031  16.823   8.977  14.857  0.4122 -0.1496  0.1369
27223W        W43032   2.831   7.285  14.235  0.2212 -0.0014  0.1284
27224W        W43033   5.636  13.232   3.550 -0.1068  0.3744 -0.0032
27225W        W43034  12.204  15.177   0.493 -0.0704  0.0812  0.2713
27226W        W43035   1.325   4.374   5.539 -0.3290  0.0345 -0.1205
27227W        W43036  13.770   7.249  14.320 -0.0453 -0.1717 -0.1222
27228W        W43037  10.855   7.892   0.947 -0.0775 -0.0496 -0.0822
27229W        W43038  16.504  11.941   4.736 -0.0793  0.2161 -0.1805
27230W        W43039   9.513  10.833  11.700 -0.0210 -0.3561  0.3544
27231W        W43040  10.969  15.141   1.048  0.0475  0.0938  0.0192
27232W        W43041  11.011   3.154  14.844 -0.0445  0.1220 -0.1288
27233W        W43042   5.371   2.593  13.653 -0.3494  0.1278 -0.1666
27234W        W43043  16.551  13.043   2.961 -0.0233 -0.0348  0.4287
27235W        W43044   6.649  12.105  13.792 -0.0125 -0.2039 -0.0096
27236W        W43045  15.781  14.311  12.866 -0.2555 -0.0557 -0.0376
27237W        W43046  10.690   5.062  13.961  0.0228  0.0348 -0.0423
27238W        W43047   8.474   3.211   1.900  0.3171 -0.0731 -0.1422
27239W        W43048  17.682   1.526   4.620 -0.0896  0.1111  0.0722
27240W        W43049  13.086  17.760   2.371  0.0802  0.4206  0.1006
27241W        W43050   5.355   4.743  10.864  0.0848  0.0328  0.0458
27242W        W43051   4.602  11.810   3.133  0.2035  0.0196 -0.2952
27243W        W43052   1.223  17.640  13.269 -0.1493  0.0864 -0.0789
27244W        W43053  13.209   1.966  11.799  0.0864 -0.0980  0.0570
27245W        W43054  17.256  15.885   0.875 -0.0364 -0.0856 -0.0155
27246W        W43055  11.117   9.562   0.391  0.2203 -0.0776 -0.5371
27247W        W43056  16.687   5.199  13.679  0.2718  0.1852 -0.1370
27248W        W43057  13.242   1.032  15.104 -0.2086 -0.2143  0.0906
27249W        W43058  10.390   0.518  14.567  0.1458 -0.1920 -0.0478
27250W        W43059   1.577  14.588  14.762 -0.1795 -0.2645 -0.1899
27251W        W43060  14.564   7.135   5.925 -0.0866  0.0521  0.0606
27252W        W43061  11.115   6.856   1.585  0.0464  0.0011 -0.0723
27253W        W43062  10.901  12.283   1.584  0.0239 -0.1016  0.2018
27254W        W43063  17.627   1.517  13.188 -0.3487  0.0825  0.0576
27255W        W43064  12.911   6.498   5.431  0.0104  0.2237  0.1218
27256W        W43065  17.109   2.492  15.175 -0.2518  0.0829  0.0136
27257W        W43066   3.902   7.435   9.622 -0.1295  0.0684  0.1774
27258W        W43067   3.720   4.153   3.659 -0.1539 -0.2282 -0.3728
27259W        W43068   5.248   3.027  10.690 -0.0334  0.0273  0.2063
27260W        W43069   8.148   8.789  12.746 -0.0285 -0.0092 -0.1694
27261W        W43070  14.767   9.327  12.120 -0.1129 -0.0041 -0.0207
27262W        W43071   2.661  13.205   3.936  0.3008 -0.2489 -0.1221
27263W        W43072   0.838   1.906  12.015  0.3514 -0.2356  0.2810
27264W        W43073   1.536  10.393   1.010 -0.1076  0.1790  0.1255
27265W        W43074   1.988   7.408  14.428 -0.0896 -0.3350  0.1982
27266W        W43075   7.220  17.968   1.240 -0.1180 -0.1141 -0.2019
27267W        W43076   1.834   6.087   3.399  0.1081  0.0941 -0.1583
27268W        W43077   3.362  14.331  11.923 -0.0223 -0.1701  0.0434
27269W        W43078   5.265  11.061   3.399  0.4910 -0.0259 -0.0730
27270W        W43079  11.674   1.241  12.522 -0.1954  0.1994  0.0709
27271W        W43080   6.541  14.657  12.650 -0.0984 -0.2587 -0.1054
27272W        W43081  10.108  13.853   1.557 -0.0207 -0.1632  0.2312
27273W        W43082   7.605  16.052  15.915 -0.1592 -0.0208  0.0583
27274W        W43083  14.263  18.031   5.810  0.2465 -0.0438  0.2761
27275W        W43084   5.728   7.713   2.062  0.0233 -0.2837 -0.3041
27276W        W43085   4.292   9.982  13.943 -0.0065 -0.0402 -0.1040
27277W        W43086  13.351   1.706   2.835 -0.1009  0.0968 -0.2111
27278W        W43087   1.773  16.516  13.460 -0.2371 -0.1307 -0.0970
27279W        W43088  14.582   6.830   2.530 -0.0462 -0.3150  0.2221
27280W        W43089  16.391   2.313  11.198 -0.1118  0.0117  0.0553
27281W        W43090  16.071   4.978  13.815 -0.3255 -0.0898  0.1333
27282W        W43091  10.373   1.511   5.619  0.1128  0.0594 -0.1458
27283W        W43092   3.499  11.851   2.405 -0.1510 -0.0050 -0.3006
27284W        W43093   8.715  16.672   5.414  0.0573  0.0549  0.3905
27285W        W43094  13.529  13.769   0.777  0.0253  0.1945 -0.0862
27286W        W43095   8.626   2.962  15.033  0.1375 -0.1181  0.0838
27287W        W43096  15.814   0.903   4.755  0.0937  0.2693  0.1731
27288W        W43097  17.826  14.609  10.700  0.0139  0.0180 -0.2989
27289W        W43098   6.855  14.547   2.379 -0.0381 -0.0013  0.0201
27290W        W43099  15.355   8.933   3.211  0.1297  0.2416 -0.1489
27291W        W43100  17.728  18.229  11.394 -0.0495 -0.1459 -0.0799
27292W        W43101   6.881  12.194   4.400 -0.0385 -0.3296 -0.1312
27293W        W43102   3.623   8.335  12.000 -0.3439 -0.0731  0.3851
27294W        W43103  14.323  16.351   1.741  0.2803  0.1157 -0.2468
27295W        W43104  14.610   8.360   0.687  0.5062 -0.2258  0.1650
27296W        W43105   2.099  12.320  12.117 -0.0024 -0.3427 -0.3076
27297W        W43106  17.164   8.843  12.663 -0.2075  0.3868 -0.0287
27298W        W43107   9.719  15.389  13.244 -0.0784 -0.3431  0.0035
27299W        W43108  15.093   8.757   1.437 -0.2990 -0.1472  0.0106
27300W        W43109  14.635   1.296  12.246 -0.0886 -0.2244 -0.2408
27301W        W43110  14.148   3.368   2.906 -0.1318 -0.1577  0.2806
27302W        W43111  11.852   3.919   2.840  0.2603 -0.0772  0.0261
27303W        W43112  10.093   2.359  13.791  0.1644  0.0132 -0.1264
27304W        W43113  17.121  13.975  11.480  0.0126  0.1647 -0.1464
27305W        W43114  13.525   8.872  11.736 -0.1170  0.0832  0.4541
27306W        W43115  13.448  12.857  13.483 -0.0118  0.1074 -0.1946
27307W        W43116  10.294   8.195  15.138 -0.0443 -0.2488  0.0362
27308W        W43117   9.730  10.832   1.488 -0.5233  0.1318  0.0448
27309W        W43118  10.190  14.286  13.434 -0.3866 -0.3228 -0.0183
27310W        W43119  13.496   4.955   0.381  0.0465 -0.3036 -0.2272
27311W        W43120   0.479  11.011   2.542 -0.2044  0.3619  0.1339
27312W        W43121  11.052  16.186  11.819 -0.0310 -0.2019 -0.0055
27313W        W43122   9.444  14.769  11.542  0.2963  0.1685  0.0047
27314W        W43123   0.611  13.517   0.139  0.0513  0.0815 -0.1602
27315W        W43124  15.767   0.865  13.734  0.0090 -0.1263 -0.0540
27316W        W43125   7.878   1.534   0.945 -0.1771  0.0131  0.0747
27317W        W43126   9.419  14.396   1.690 -0.1388  0.4925 -0.0656
27318W        W43127   9.164   7.258  10.591  0.2664  0.2151  0.0485
27319W        W43128  12.591  12.109  15.756 -0.2158 -0.1810 -0.0515
27320W        W43129  15.490   6.154   1.180  0.1560 -0.0691 -0.0856
27321W        W43130   1.747   8.056  13.518  0.1415 -0.5267 -0.1475
27322W        W43131   1.470   1.241   3.421  0.0457 -0.1330  0.0266
27323W        W43132  10.208   5.249   3.260  0.3969  0.0677 -0.0292
27324W        W43133  14.528  10.852  13.372  0.2279  0.1521  0.1122
27325W        W43134  17.123  16.742   3.966  0.1324  0.0997  0.1275
27326W        W43135   1.850  13.628   4.065  0.2436  0.1120  0.0340
27327W        W43136   3.455   6.988  15.044 -0.1263  0.1196  0.0101
27328W        W43137  11.238   7.302   0.281  0.3023  0.1434 -0.1955
27329W        W43138   0.493  17.907  13.230 -0.0036 -0.2268  0.1883
27330W        W43139   3.624  14.565   0.885 -0.0211  0.0461 -0.6230
27331W        W43140  15.121  15.190   0.127 -0.0319  0.1475 -0.0195
27332W        W43141  18.000   7.645   3.235 -0.1455 -0.3581 -0.1377
27333W        W43142   3.523  10.639  12.557 -0.0918 -0.0375 -0.2751
27334W        W43143  15.692  16.306  12.223 -0.0383  0.0454 -0.1006
27335W        W43144   1.107   7.116   3.468  0.0266 -0.1655 -0.0210
27336W        W43145   8.351  11.822   4.446 -0.2592  0.1845 -0.3006
27337W        W43146   3.824   0.759  15.374  0.0305 -0.0549 -0.0054
27338W        W43147  10.689   1.527   2.416  0.1110  0.2821  0.0129
27339W        W43148  12.142   8.239  11.899 -0.3171  0.2539  0.1344
27340W        W43149   6.146   5.256   0.679  0.0469  0.3123  0.0585
27341W        W43150   6.914  10.968  14.300 -0.1508  0.0081 -0.1496
27342W        W43151   3.719  11.088  11.150  0.0383  0.1230  0.0719
27343W        W43152   9.600   2.884   5.180 -0.1844 -0.0075 -0.1864
27344W        W43153   8.491   2.731   0.046  0.0966  0.0177  0.1139
27345W        W43154  17.584   1.861   0.083 -0.3309 -0.0137 -0.0195
27346W        W43155  10.019  11.810  15.261 -0.1007 -0.2779 -0.0409
27347W        W43156   5.192  17.912  11.490  0.2337  0.0808  0.0280
27348W        W43157   9.766  12.431  15.923 -0.1663 -0.0702 -0.1502
27349W        W43158  16.074   1.426   3.855  0.1328  0.1588  0.1240
27350W        W43159   3.087  12.091   2.590 -0.4434 -0.0910 -0.2072
27351W        W43160   8.245  15.958  15.172  0.0980  0.1894  0.1630
27352W        W43161   3.023   1.537  15.872 -0.1744 -0.0566  0.2694
27353W        W43162  16.610  14.763   2.182  0.0030 -0.3101 -0.2120
27354W        W43163   0.847   7.281  15.946  0.2317 -0.0640  0.0271
27355W        W43164   3.635  14.847  14.118  0.2332  0.1032  0.2174
27356W        W43165   2.375  12.701  12.172  0.2217 -0.1395 -0.0689
27357W        W43166   5.378   6.120  10.777 -0.0725 -0.1166 -0.1191
27358W        W43167   8.168  17.461   2.324  0.0483  0.0663  0.1843
27359W        W43168   6.567  13.982   2.410  0.1455  0.0965  0.0708
27360W        W43169   5.433  15.408   3.885 -0.0413 -0.1864  0.4967
27361W        W43170   8.018   2.337   1.916 -0.1613 -0.4168 -0.0412
27362W        W43171   0.418  12.430   4.194  0.0212  0.2753 -0.1920
27363W        W43172  16.570   5.935  14.378  0.1290  0.1119  0.2843
27364W        W43173   2.771  18.133  12.619  0.1101  0.0061 -0.2233
27365W        W43174   0.467  14.360  10.990  0.1795  0.2104 -0.2361
27366W        W43175  16.625   6.667   4.087 -0.1727  0.2308  0.1683
27367W        W43176  17.911  10.119  15.560 -0.1236  0.0324  0.3137
27368W        W43177   0.693  14.172  11.577 -0.0963 -0.1427  0.0409
27369W        W43178   5.120  10.477   4.163 -0.2691  0.0466  0.1669
27370W        W43179  12.700  14.257  14.764  0.0220  0.0659  0.0256
27371W        W43180  14.424  10.076   4.753  0.0097  0.2338  0.0959
27372W        W43181   1.038  10.883  14.386  0.1739 -0.1787  0.0777
27373W        W43182   6.847   7.688  12.775 -0.2568  0.2714 -0.0263
27374W        W43183  17.160  13.941   4.525 -0.0476  0.2276 -0.0888
27375W        W43184   5.894  15.726  15.718 -0.0956  0.6122 -0.1469
27376W        W43185  11.910  17.345   1.124  0.0267 -0.1478 -0.2835
27377W        W43186  10.553   8.197  13.779 -0.2780 -0.3421  0.2478
27378W        W43187  10.599   1.706  13.942 -0.0346  0.1891 -0.2341
27379W        W43188   2.051   8.392  10.499  0.1969  0.1454  0.1923
27380W        W43189  10.320   7.319  10.962  0.1491 -0.2704 -0.2931
27381W        W43190  14.570  12.832  11.888 -0.3547  0.0851 -0.0005
27382W        W43191   3.664   4.676   4.832  0.0789 -0.0045 -0.1394
27383W        W43192  11.947  11.298  11.453 -0.1930 -0.3916  0.2076
27384W        W43193   1.466   8.068  11.044 -0.0461  0.3168 -0.1422
27385W        W43194   9.862  16.206   3.606  0.2925 -0.0242 -0.1926
27386W        W43195   0.434   6.695  15.102 -0.3420 -0.2420  0.2733
27387W        W43196   8.114   2.699   3.242 -0.2989 -0.0200  0.0579
27388W        W43197   3.617  17.487  15.951 -0.0857  0.1074 -0.0422
27389W        W43198   7.761  11.878  11.068 -0.0732  0.1129 -0.0450
27390W        W43199   8.833  11.630   2.370  0.2724  0.2706  0.1994
27391W        W43200   0.317  14.526   0.967  0.2237  0.1858 -0.0010
27392W        W43201   7.582   2.840  11.052  0.0399  0.0149 -0.0416
27393W        W43202   6.720   9.117  11.775  0.2045  0.1830  0.1602
27394W        W43203  13.666  12.270   2.384 -0.4797 -0.0211 -0.1394
27395W        W43204  11.317  15.690   0.627 -0.1605 -0.1010 -0.2229
27396W        W43205  12.148  16.732   4.919  0.0933 -0.0535 -0.1479
27397W        W43206  11.574   3.978   0.672 -0.1727  0.4844  0.1564
27398W        W43207  17.022  17.385   2.690  0.2809 -0.0295  0.2374
27399W        W43208  14.297   7.079   3.477  0.0055 -0.1842  0.0720
27400W        W43209   8.088  14.030  12.352  0.1152 -0.0150  0.2159
27401W        W43210  16.836  15.978  14.545  0.1947 -0.2191 -0.0717
27402W        W43211   4.944   3.612   1.715 -0.0328  0.0152  0.0095
27403W        W43212   1.373   9.883   0.264  0.0637  0.0215 -0.0779
27404W        W43213  13.927   5.567  13.051 -0.0624  0.3181 -0.0382
27405W        W43214  14.816   7.200  13.915  0.0350 -0.2277  0.0130
27406W        W43215   8.061   4.159  14.765 -0.0000  0.1136  0.4548
27407W        W43216   5.607   5.557   4.900  0.1849  0.1490 -0.0109
27408W        W43217   5.763  10.552   1.041 -0.0857 -0.0078 -0.0127
27409W        W43218  12.080   3.713  12.980 -0.1278  0.0790 -0.1678
27410W        W43219  16.637  14.546   0.103 -0.0091 -0.0624  0.2289
27411W        W43220   1.400   1.227   1.236  0.1521 -0.0486  0.2135
27412W        W43221  16.096   7.525  13.338 -0.1143 -0.1467  0.0123
27413W        W43222   3.260   9.993   5.739  0.1722  0.3065 -0.1234
27414W        W43223   7.076   2.440   4.025 -0.0046  0.0057  0.2645
27415W        W43224   1.397  11.802   6.003 -0.1887  0.1642 -0.2819
27416W        W43225   1.238   7.395  12.419 -0.2688 -0.0568  0.2222
27417W        W43226  17.670   4.500  12.242 -0.0730  0.1602 -0.1682
27418W        W43227  12.210  17.380  12.969 -0.0663  0.1201  0.1043
27419W        W43228   2.627  10.219  12.891  0.1678  0.1814 -0.0842
27420W        W43229  11.526  12.080  13.957  0.0711  0.0464  0.1236
27421W        W43230   1.146  17.426  15.369  0.0934 -0.3819 -0.0158
27422W        W43231   1.968   2.193   1.849 -0.1211  0.3709 -0.1526
27423W        W43232  15.064   8.975  14.078 -0.0383  0.3144 -0.3118
27424W        W43233   4.912   0.512  11.995 -0.0681  0.0451  0.1650
27425W        W43234   9.275   4.744  12.374  0.2597  0.0645  0.2519
27426W        W43235   7.273  12.721  12.841  0.1285 -0.0513  0.1051
27427W        W43236  12.487   0.493  11.281 -0.1482 -0.0340  0.0218
27428W        W43237  12.411  17.474  11.843 -0.1250  0.1698  0.0612
27429W        W43238   1.992   5.672   1.211 -0.0243  0.0417  0.0093
27430W        W43239  10.217   4.445  14.578 -0.0561  0.0866 -0.0419
27431W        W43240   8.104   8.174  15.457  0.1243 -0.0089  0.2587
27432W        W43241  13.381   3.364  13.196 -0.3478 -0.2480  0.0816
27433W        W43242  15.066   6.888  14.234  0.0089  0.0621  0.0551
27434W        W43243   8.359  14.889  10.823  0.3128  0.0350  0.0469
27435W        W43244  17.307   5.349   2.205  0.0546  0.0799  0.0225
27436W        W43245  18.130   5.220  13.092  0.2479  0.1937 -0.2330
27437W        W43246   1.097   5.800   1.784  0.1946 -0.0777  0.1751
27438W        W43247   6.733  17.010  13.892 -0.1799  0.0397 -0.0611
27439W        W43248  10.124  11.700  14.103  0.2031 -0.2331  0.2463
27440W        W43249  15.469  12.636   0.069  0.2185  0.0511 -0.0141
27441W        W43250   4.346  12.209  16.049  0.2553  0.0411 -0.1587
27442W        W43251  11.253  11.164   3.553 -0.0343  0.0234 -0.0343
27443W        W43252  14.360   8.398   3.598  0.4235  0.2058 -0.0353
27444W        W43253   7.998  13.630  11.990 -0.1700  0.0220  0.1437
27445W        W43254   9.846   7.809   3.559 -0.0692  0.0238  0.0385
27446W        W43255   3.288  13.798  12.074 -0.0805 -0.0055 -0.1709
27447W        W43256  15.467   0.920   1.009 -0.1544 -0.2994 -0.1158
27448W        W43257  10.272  15.983   2.302 -0.0416 -0.0808  0.1509
27449W        W43258  17.929  16.193  11.002  0.2534  0.3723  0.0467
27450W        W43259  11.281   6.107   0.219  0.0663  0.0776 -0.1673
27451W        W43260  10.591   2.566   1.856  0.1420 -0.1959 -0.2314
27452W        W43261   0.604  16.260   1.311 -0.0131  0.2131 -0.0320
27453W        W43262  11.718   4.614  15.647  0.2770  0.3083 -0.0561
27454W        W43263   8.734  14.520   0.585 -0.0143  0.0713  0.3113
27455W        W43264   0.974  17.322  11.749  0.0272 -0.1095  0.0279
27456W        W43265   6.014  13.364   1.980 -0.0789 -0.5491 -0.0830
27457W        W43266  11.994   7.923   4.870 -0.1087 -0.0497  0.0428
27458W        W43267   9.706  15.014   5.062 -0.1712 -0.1134 -0.0454
27459W        W43268   7.217   6.896  12.187  0.3577 -0.2599 -0.0432
27460W        W43269   8.366  10.340  13.854  0.4166 -0.1196  0.3401
27461W        W43270   5.375  15.989   3.279  0.1615  0.1484  0.0067
27462W        W43271  13.079   8.629   0.497 -0.0317  0.0659  0.3494
27463W        W43272   7.077   6.616   4.286  0.1051  0.1396 -0.2986
27464W        W43273   5.329  16.063  15.744  0.1007 -0.1721  0.0679
27465W        W43274  14.035  14.835  15.121  0.1135  0.0315 -0.2974
27466W        W43275  11.180  13.637   0.899 -0.1576 -0.2548  0.2441
27467W        W43276   1.214   9.011  10.896  0.1367 -0.2362  0.0924
27468W        W43277   0.302   9.698   2.152 -0.1609  0.0081 -0.0099
27469W        W43278   8.402  11.986  13.198  0.0524 -0.0579 -0.1107
27470W        W43279  16.219   9.868   2.863  0.0590  0.1130 -0.3462
27471W        W43280   4.974  14.203   2.341  0.2593  0.0278  0.2028
27472W        W43281  14.788   9.938  14.387  0.0463  0.0482 -0.0377
27473W        W43282  16.338   7.716   0.964  0.0326 -0.1485 -0.0731
27474W        W43283  11.819   4.794   3.249  0.0617  0.0171  0.0582
27475W        W43284  18.129   0.115  12.847 -0.0592 -0.2772 -0.1975
27476W        W43285   7.573   9.070   0.975 -0.0859 -0.1366 -0.0000
27477W        W43286   9.446   0.788   6.437  0.0900  0.0533 -0.1389
27478W        W43287   7.917   1.426   4.817  0.1791 -0.1816 -0.0734
27479W        W43288  12.578   1.281   2.986  0.0451  0.2299 -0.0490
27480W        W43289   7.021  11.342   0.107  0.2810  0.2570  0.1933
27481W        W43290   4.066   7.650   2.811 -0.0126  0.0396  0.0783
27482W        W43291   6.712   4.855  12.891  0.1059 -0.2675  0.1938
27483W        W43292   8.489  12.454   1.347 -0.1046  0.0223  0.4637
27484W        W43293   5.080  12.472  12.736 -0.3276  0.2233 -0.3442
27485W        W43294   7.135  15.850   5.807 -0.1628  0.0123 -0.0111
27486W        W43295   5.071  10.219  15.282 -0.0306  0.1848 -0.1312
27487W        W43296  17.935  10.472   2.469 -0.0219 -0.0706  0.1804
27488W        W43297   7.148   2.569   3.383 -0.2227  0.2492 -0.0861
27489W        W43298   3.749  11.216   4.004 -0.1596  0.3204  0.0984
27490W        W43299   5.634  17.293   3.498  0.4473  0.2041  0.3310
27491W        W43300  13.837   4.363   3.201 -0.0821 -0.1629 -0.1283
27492W        W43301  10.727   5.475   3.083 -0.1639 -0.0491 -0.1419
27493W        W43302   1.051  11.984  11.257  0.0837 -0.2864  0.2672
27494W        W43303  17.841  12.767   0.536 -0.1237 -0.0701  0.0862
27495W        W43304  15.057  14.394   2.454 -0.0862  0.0034  0.3388
27496W        W43305  16.549   9.533   1.925  0.0325  0.0395  0.4697
27497W        W43306   6.532   7.305  15.118  0.2420  0.0326 -0.1771
27498W        W43307   4.026   9.476   0.766 -0.1864 -0.1119  0.0827
27499W        W43308   2.089  11.944   4.162 -0.1251 -0.0162 -0.0805
27500W        W43309   9.977   5.583   2.068  0.0020  0.1603 -0.1188
27501W        W43310   7.988  11.369   1.255 -0.1071 -0.2811  0.0797
27502W        W43311   5.039   1.054  11.196 -0.1113  0.0231  0.2204
27503W        W43312  17.703  11.564   3.275  0.0701 -0.1861 -0.1412
27504W        W43313   9.196   3.000   4.400  0.0406 -0.1368  0.1559
27505W        W43314  12.959  16.267   3.004  0.0475 -0.0507 -0.1009
27506W        W43315  12.058   0.734  11.276  0.0790  0.2041 -0.2639
27507W        W43316  15.467  17.872  13.143 -0.0286 -0.0599 -0.2097
27508W        W43317  16.150  12.452  12.525  0.2296  0.0909 -0.0216
27509W        W43318  15.819  17.479  11.555  0.0465 -0.0063 -0.0661
27510W        W43319  13.821  16.755   3.015  0.0881 -0.0534 -0.1361
27511W        W43320   2.966   5.066  15.199 -0.2509  0.2462  0.0258
27512W        W43321   4.889   4.223   5.650  0.1257  0.0658 -0.2679
27513W        W43322   3.154  17.663   1.978 -0.1203  0.0791  0.0119
27514W        W43323  16.970   4.485  16.000  0.1793  0.2210  0.1986
27515W        W43324  16.122  13.205  14.099  0.0713  0.0106 -0.1399
27516W        W43325  14.082   4.767   6.140  0.0264 -0.0701 -0.2186
27517W        W43326  14.654  10.511   2.625  0.2125  0.2976 -0.0194
27518W        W43327  14.414  12.337  11.228 -0.0656  0.0542  0.1378
27519W        W43328   6.992   2.240   2.371  0.1839  0.0250  0.0677
27520W        W43329  14.401  14.738  11.375  0.2286  0.1727 -0.3961
27521W        W43330  11.026  11.595  13.685  0.1444 -0.0277 -0.0748
27522W        W43331   7.186   3.252   3.391  0.0341  0.1243  0.0584
27523W        W43332   9.950  13.275  10.486 -0.0079  0.0087 -0.0724
27524W        W43333   3.400   6.400  11.162  0.1288 -0.0484 -0.1173
27525W        W43334  10.902   5.253  12.206 -0.0640  0.2181  0.2152
27526W        W43335  16.339   6.090   0.285  0.2666  0.0628  0.1857
27527W        W43336   8.776  16.683   2.087  0.0449 -0.0752 -0.3250
27528W        W43337   1.642   1.780  13.587  0.0717 -0.5898  0.1396
27529W        W43338   5.088  16.009  14.118 -0.3678  0.2378 -0.1481
27530W        W43339   6.110   4.567  13.342  0.1409  0.0230  0.0330
27531W        W43340   4.394  14.956   0.502  0.1549 -0.2879 -0.2693
27532W        W43341   0.629  16.339   5.428 -0.0661  0.1552  0.0004
27533W        W43342  10.717  16.990   0.770  0.1486 -0.3627 -0.2793
27534W        W43343   7.847  17.745  14.161 -0.0437 -0.1947 -0.1625
27535W        W43344  10.371  12.755   1.070 -0.1007  0.0639 -0.0613
27536W        W43345   8.930   5.029  12.597  0.2740 -0.1290 -0.1220
27537W        W43346   1.776  15.163   1.397  0.1715  0.2904 -0.1327
27538W        W43347  17.401   8.283  12.675 -0.1505 -0.1367  0.0278
27539W        W43348   1.547   2.371  12.543  0.0241 -0.0091 -0.1851
27540W        W43349  11.948  10.391   3.043 -0.1379 -0.0041  0.0756
27541W        W43350  11.518   0.282   4.223  0.0567 -0.1566  0.2090
27542W        W43351  12.539   0.642   0.192  0.1217  0.0791  0.0500
27543W        W43352   3.684  15.658  15.684 -0.0213  0.1537 -0.0242
27544W        W43353  12.015  10.825  15.530  0.0503 -0.0923  0.0845
27545W        W43354   4.057   1.361   3.298  0.1241  0.0210  0.2738
27546W        W43355   5.447   0.735  13.345  0.0417 -0.0787 -0.1095
27547W        W43356  12.955   7.141   1.490  0.0250  0.2122 -0.2886
27548W        W43357  15.333  10.424  15.578  0.0368 -0.1175  0.3233
27549W        W43358   6.794   4.637   0.909 -0.1389  0.1186 -0.1796
27550W        W43359  10.467  14.514   0.819  0.0750  0.1180 -0.1708
27551W        W43360  13.301  16.006  16.065 -0.0434  0.2670  0.1528
27552W        W43361  15.849  15.865   1.621  0.0238  0.3407  0.1530
27553W        W43362   8.090   4.004  11.399 -0.0431 -0.0183 -0.2817
27554W        W43363   8.985  15.009   1.373 -0.2149 -0.0721 -0.2268
27555W        W43364   4.345   7.345   2.409 -0.3064 -0.0383 -0.0710
27556W        W43365   9.774  18.019  13.947  0.0921 -0.0007 -0.2704
27557W        W43366   5.563   9.559   5.103  0.0888 -0.1455  0.0129
27558W        W43367  16.995   1.008   1.146 -0.2355  0.3335 -0.2097
27559W        W43368   4.588  12.713   0.029  0.1161 -0.2451  0.0421
27560W        W43369   2.561  10.342  16.038  0.1236  0.1052 -0.1147
27561W        W43370   3.817   7.334  14.870  0.1696 -0.0866  0.1304
27562W        W43371  13.783   5.753  15.773  0.0375  0.3173 -0.0017
27563W        W43372   1.734  14.226  11.490  0.1198 -0.1138  0.2947
27564W        W43373  11.226  10.031   4.202 -0.2312 -0.1241 -0.1496
27565W        W43374  16.047  17.624   4.211  0.1319  0.2000 -0.0088
27566W        W43375  14.270  14.480   1.915 -0.2000  0.0862 -0.0696
27567W        W43376   0.834  13.956   5.277 -0.5324 -0.0124  0.1257
27568W        W43377   6.306   4.373  10.078 -0.1140  0.2010  0.0541
27569W        W43378   4.866   8.756   3.733 -0.2194  0.0371  0.0740
27570W        W43379  15.667  14.999   1.405  0.0205 -0.1606 -0.1708
27571W        W43380   3.970   2.664  10.168  0.1458  0.0149 -0.1040
27572W        W43381   4.501  10.952  12.391  0.0097  0.0405  0.2144
27573W        W43382   1.310  13.897   6.484  0.0048 -0.1448  0.5326
27574W        W43383   0.927  16.180  15.116 -0.0095 -0.1133 -0.3041
27575W        W43384   5.090   6.694   0.282  0.3442 -0.2081  0.0826
27576W        W43385  10.089   9.182  12.076 -0.0908  0.3210 -0.1748
27577W        W43386  13.989   8.535  14.634  0.2812  0.2696  0.1146
27578W        W43387   2.311   7.469   0.657 -0.0114  0.0875  0.2092
27579W        W43388   2.926  15.715  15.032  0.0390 -0.1709 -0.1846
27580W        W43389   9.545  11.916   2.151 -0.3284 -0.0844  0.1163
27581W        W43390  12.409  15.591  11.663 -0.0710  0.0788 -0.1869
27582W        W43391   1.087  16.001   0.052 -0.0180 -0.4737  0.0826
27583W        W43392   3.952   4.459   1.136  0.4514 -0.2766 -0.3960
27584W        W43393  12.697   9.782   1.065  0.2626  0.0484 -0.0572
27585W        W43394  10.964   1.293  13.402  0.0323  0.0967  0.4081
27586W        W43395   6.210  11.490   4.192  0.1414  0.3242  0.1955
27587W        W43396   9.107   1.969   0.461  0.1117 -0.0054  0.1579
27588W        W43397   7.051   8.197  13.051  0.0593 -0.1162  0.1483
27589W        W43398   6.530   8.435   0.648 -0.0516 -0.1816  0.0877
27590W        W43399   5.020  13.265  11.570 -0.1933 -0.0259  0.0099
27591W        W43400   0.829  15.458  15.497 -0.1099 -0.1117  0.0440
27592W        W43401  16.136   3.289  13.650 -0.0005 -0.1175 -0.0147
27593W        W43402  11.957  14.241   3.403  0.0640 -0.2931 -0.0772
27594W        W43403   2.132   1.019  10.912  0.0248  0.0381 -0.3655
27595W        W43404  16.528   4.226   4.744  0.0162 -0.0255 -0.1373
27596W        W43405  11.316   6.115   5.925 -0.1966  0.0054  0.1754
27597W        W43406   3.951  10.722   4.742 -0.1586 -0.1718 -0.0632
27598W        W43407   5.601   2.085   5.559  0.1358  0.4574  0.0545
27599W        W43408   9.313   2.150  15.713  0.0471 -0.0455  0.0430
27600W        W43409   6.715  11.395  13.104  0.0457 -0.0789 -0.1825
27601W        W43410   1.909  16.495   3.014 -0.0492 -0.1550  0.4681
27602W        W43411   5.696   3.222  11.355 -0.3728  0.0858 -0.2614
27603W        W43412   0.576  13.776   3.216  0.1330  0.1697 -0.1216
27604W        W43413  11.493   2.734  11.322 -0.0007 -0.1248  0.2058
27605W        W43414  16.948   4.311   1.074 -0.0927  0.0037  0.1711
27606W        W43415  10.602   0.273  10.050 -0.2926  0.0342 -0.0596
27607W        W43416   6.987  12.202  15.647  0.0595  0.2009 -0.2568
27608W        W43417   7.032   9.938  10.734 -0.2071  0.0492  0.1185
27609W        W43418  12.502   8.186   0.216  0.0199  0.1635  0.1168
27610W        W43419  15.339   4.842  13.591 -0.0299  0.1549  0.3555
27611W        W43420  10.199   0.438   0.561  0.0262  0.1983  0.0719
27612W        W43421  10.193  17.273   2.354  0.3033  0.2367 -0.3023
27613W        W43422   3.030   4.600   3.890 -0.1755  0.1725  0.3220
27614W        W43423   4.396  12.272   3.780 -0.0359 -0.1772  0.1384
27615W        W43424  15.666   7.249  11.519  0.0033  0.1331 -0.2184
27616W        W43425  17.846  17.762  10.495 -0.0893  0.0412 -0.2566
27617W        W43426   4.205  17.170   4.472  0.0135 -0.1428 -0.0206
27618W        W43427  10.781  12.849  11.577  0.0818 -0.1179 -0.0571
27619W        W43428  12.160   0.528   2.343  0.2020  0.0268 -0.2751
27620W        W43429   2.499   9.690   5.406 -0.0244 -0.3070  0.0170
27621W        W43430   8.674   6.792  13.731 -0.2848  0.4027 -0.1306
27622W        W43431  16.712   7.710   3.898 -0.3019 -0.2056 -0.0948
27623W        W43432  13.589  12.454  13.169 -0.1514 -0.1550  0.0409
27624W        W43433   5.169   5.536   3.985  0.1075 -0.1649  0.0267
27625W        W43434  17.781  13.970   2.205 -0.0315 -0.0169  0.1270
27626W        W43435   6.184   9.096   3.202  0.1439  0.0793 -0.1718
27627W        W43436  14.627  15.409   0.606 -0.0898 -0.0339 -0.1104
27628W        W43437   7.750  10.480   5.381 -0.2755 -0.1092 -0.0372
27629W        W43438   0.613  13.706   1.374 -0.0867 -0.0965 -0.1211
27630W        W43439  16.052   1.087   5.463  0.1237  0.1143  0.0696
27631W        W43440   0.622  15.780   2.053 -0.0598 -0.0447  0.3499
27632W        W43441  12.161  11.318   1.437  0.0888  0.0189  0.0250
27633W        W43442   6.811  10.288  11.462  0.1147  0.1852  0.2095
27634W        W43443   4.526   8.221  11.996  0.3950  0.0463  0.2819
27635W        W43444   3.699   3.334   5.076  0.0702 -0.1693 -0.1296
27636W        W43445  17.688  15.759  14.891 -0.1536  0.2288 -0.0039
27637W        W43446  16.703  12.918  12.205 -0.1540  0.0213  0.0902
27638W        W43447   1.213  13.428   2.647 -0.2956  0.2165  0.3012
27639W        W43448   1.144  12.115   0.918  0.1052 -0.0281 -0.2154
27640W        W43449   1.041  12.322  13.278 -0.0338  0.2525  0.0411
27641W        W43450   0.638   5.843  15.579  0.1316  0.0998 -0.0726
27642W        W43451  12.649  11.224   1.028 -0.2447 -0.1224  0.1883
27643W        W43452   0.224   2.970   4.042  0.1845  0.0387 -0.2578
27644W        W43453  17.591  16.300   3.503  0.0293 -0.0726  0.1430
27645W        W43454   7.262   2.993  15.142  0.3018 -0.2041  0.2125
27646W        W43455  14.468  10.593   0.540 -0.3878 -0.1101  0.0845
27647W        W43456  15.788  11.964   3.454  0.0853 -0.2960 -0.1012
27648W        W43457  13.914   2.571   2.213 -0.1791 -0.0622  0.0793
27649W        W43458  16.643   7.922   1.271 -0.1638 -0.1469 -0.1754
27650W        W43459   7.054   0.587   4.276 -0.1024  0.0094 -0.2062
27651W        W43460   2.850   7.750  15.351 -0.0105  0.1762  0.0932
27652W        W43461  10.679  13.568  12.008 -0.2064  0.0998 -0.0309
27653W        W43462   7.362  16.754   1.597  0.3234  0.0192 -0.1584
27654W        W43463  17.273   1.759  11.381 -0.1746 -0.0073  0.2971
27655W        W43464   4.232   4.011   5.316  0.1366 -0.3119 -0.0310
27656W        W43465  12.280  11.962  14.425  0.4100  0.0525  0.1401
27657W        W43466  15.732  11.352   5.678 -0.1489  0.0463  0.0189
27658W        W43467  15.949   6.846   0.825 -0.0044 -0.1455  0.1910
27659W        W43468   3.785   4.229   1.578  0.2588  0.1851 -0.1859
27660W        W43469   5.699  17.242  10.932 -0.1227  0.2067  0.1414
27661W        W43470   0.014   7.045   2.505 -0.1380 -0.3376  0.1201
27662W        W43471  16.992  11.581   0.865 -0.1646 -0.1860  0.1668
27663W        W43472   3.638  15.911   3.250 -0.0922 -0.0096 -0.0182
27664W        W43473   3.830  15.657  12.006 -0.0509  0.2878  0.1235
27665W        W43474   0.185  13.339   0.669  0.0140  0.1056  0.0160
27666W        W43475   9.788   6.087  12.131  0.3181  0.1013 -0.1002
27667W        W43476   6.575   1.528  12.626 -0.2915 -0.2119  0.1824
27668W        W43477  13.306   3.652   3.586 -0.2139 -0.0653  0.0370
27669W        W43478   3.828   0.004  14.374  0.1902  0.0922  0.0857
27670W        W43479  13.673   1.655  14.997 -0.1920  0.2078 -0.0696
27671W        W43480   7.202   4.661   2.419  0.1411  0.0993 -0.1504
27672W        W43481  12.418   7.505   5.812 -0.1153  0.1928 -0.2287
27673W        W43482   2.496  10.860   2.726  0.2439  0.0966  0.1860
27674W        W43483   1.189   0.393   2.327  0.1030 -0.0083  0.3674
27675W        W43484   5.981  18.206   3.562  0.2254  0.0341  0.2448
27676W        W43485   8.232  13.058   2.164 -0.2224 -0.0563 -0.2782
27677W        W43486  12.691  16.449   3.587  0.4185 -0.1151 -0.0723
27678W        W43487   2.789   9.994   3.009  0.4125 -0.2754 -0.1609
27679W        W43488   2.228   6.514   4.071 -0.0248 -0.1776  0.2316
27680W        W43489  17.166  14.421  11.911  0.0376 -0.1489 -0.0314
27681W        W43490  15.366   5.987  12.364 -0.2424  0.1393  0.2074
27682W        W43491  13.801   0.881  15.788 -0.1279  0.0893 -0.0194
27683W        W43492   6.078   6.448  12.218 -0.0413  0.0527  0.0336
27684W        W43493  18.247   9.245  13.092  0.2255 -0.1763  0.1076
27685W        W43494   0.048   2.345  14.997 -0.0062 -0.1219  0.2969
27686W        W43495   5.537  10.159   0.949 -0.0871 -0.0544 -0.0002
27687W        W43496  16.191   3.056  15.449  0.1603  0.0765 -0.1191
27688W        W43497  16.550  17.070  12.593 -0.2896  0.0466 -0.1342
27689W        W43498  17.652  13.607   0.114 -0.2677 -0.3120  0.0338
27690W        W43499  10.437  15.834  10.522 -0.2448 -0.1894 -0.0179
27691W        W43500  18.132  13.791  15.001  0.2835  0.1409  0.1151
27692W        W43501   1.815   5.155   5.125  0.0140  0.2576 -0.0642
27693W        W43502  13.575   8.360   0.514 -0.0082 -0.1850 -0.0730
27694W        W43503  18.139  10.660   3.801 -0.3643 -0.2263  0.1440
27695W        W43504  15.316   0.343   2.406 -0.1967 -0.0147 -0.1948
27696W        W43505   9.912  17.649   4.522  0.0757  0.0463  0.0550
27697W        W43506  10.246  10.897  12.107  0.1076 -0.1637 -0.0455
27698W        W43507  10.197   5.699   4.966  0.0707  0.0082  0.0572
27699W        W43508  17.426  13.161  11.537 -0.0057  0.1300 -0.1043
27700W        W43509   2.910  13.492   1.458  0.1981  0.1849  0.0209
27701W        W43510  18.253  12.676   2.854 -0.2616  0.0846 -0.3315
27702W        W43511  10.852   1.067   0.975  0.0268  0.2293  0.1131
27703W        W43512   0.306  16.196   0.155  0.1252 -0.2454 -0.1956
27704W        W43513  11.404  17.446   1.789  0.0782 -0.0757 -0.2713
27705W        W43514  11.994   1.224  11.162 -0.1087 -0.0050 -0.0110
27706W        W43515   6.095   5.055  13.459  0.3133 -0.0010 -0.3726
27707W        W43516  13.608  17.873   4.307 -0.0517 -0.1540 -0.1133
27708W        W43517   0.907  16.271   4.867  0.1589  0.0427  0.2062
27709W        W43518   4.532   7.608  11.186  0.0326  0.1762 -0.0847
27710W        W43519  16.587  13.176   1.914 -0.0663 -0.1955  0.1221
27711W        W43520  14.202  10.526   3.899  0.1595  0.0816 -0.0820
27712W        W43521  11.713   0.294   0.287 -0.1285  0.4478  0.0300
27713W        W43522   9.620   0.990   5.271  0.0677  0.0139 -0.0206
27714W        W43523  10.337   4.304   1.121  0.0489  0.2651 -0.2443
27715W        W43524  12.366   3.204  12.708  0.2140  0.2484  0.2817
27716W        W43525  14.888   7.027   1.281  0.1841 -0.1643 -0.1329
27717W        W43526   2.047  14.668  13.787 -0.2015  0.0150 -0.0741
27718W        W43527   2.171  13.563   0.569 -0.2621  0.1581 -0.0203
27719W        W43528  14.231  17.944  15.996  0.4533  0.1765 -0.1647
27720W        W43529   2.459  14.969  13.530  0.0289 -0.0613  0.1578
27721W        W43530  11.331   8.807   4.054 -0.1813  0.2997  0.1355
27722W        W43531   2.487   7.126  12.666 -0.0449  0.0425  0.2336
27723W        W43532   7.264   7.710  10.701 -0.2655  0.0760 -0.1104
27724W        W43533   7.533   4.701  14.047  0.0448 -0.1260  0.0099
27725W        W43534  18.000  16.761  12.948  0.1114  0.1503  0.1331
27726W        W43535   2.065   2.209   5.393 -0.0680  0.1394  0.0193
27727W        W43536   9.498  10.325   4.299 -0.1428 -0.1358  0.3119
27728W        W43537   9.568  12.728   3.530 -0.0841 -0.1807  0.0178
27729W        W43538   2.138  13.816   4.449 -0.0324 -0.2417  0.2054
27730W        W43539   1.911  15.056   2.118 -0.3896 -0.0493 -0.0232
27731W        W43540   8.009  10.737  11.690 -0.2021 -0.0904  0.0922
27732W        W43541  11.164  10.752  10.546  0.1449 -0.0204 -0.0172
27733W        W43542  13.253   7.356  11.625 -0.1108  0.0296  0.0271
27734W        W43543   5.062   4.067  15.489  0.0102  0.1166  0.1126
27735W        W43544  12.348   4.007   1.347  0.0598  0.1959  0.2023
27736W        W43545   9.128   9.320  10.676  0.3405  0.1097 -0.1580
27737W        W43546  15.646  11.702  15.712  0.1481  0.0490 -0.1576
27738W        W43547   3.388   1.375   3.891  0.1499 -0.0503 -0.0407
27739W        W43548  15.082   7.000   0.340  0.1416 -0.0357  0.0200
27740W        W43549   4.778   5.571  11.133  0.3441 -0.1985 -0.0141
27741W        W43550  11.599   8.197   2.355 -0.0060  0.1291 -0.3723
27742W        W43551   7.137  13.903   4.398  0.2092 -0.2022  0.0405
27743W        W43552   3.001  11.767   0.232 -0.4083 -0.1208 -0.1050
27744W        W43553   6.892  15.767  12.142  0.0021 -0.3168  0.2489
27745W        W43554   7.549   9.927   1.086  0.0692  0.0553  0.0007
27746W        W43555   2.357   5.368   4.168 -0.0230  0.1841  0.1612
27747W        W43556   5.303   4.297   0.769 -0.0294  0.0523 -0.0371
27748W        W43557  16.349   5.674   0.599 -0.0287 -0.0748 -0.1685
27749W        W43558  17.078   8.290  14.540  0.0193 -0.2201  0.1774
27750W        W43559   3.002  18.120  13.902 -0.0308  0.0506 -0.2505
27751W        W43560  11.802   0.017  14.161 -0.2501  0.0288 -0.3629
27752W        W43561  12.424   3.143  14.938 -0.0150 -0.1540  0.3328
27753W        W43562  13.551   8.818   0.301 -0.2391 -0.1107 -0.0484
27754W        W43563   1.475   5.851   5.306 -0.1077 -0.4541 -0.0425
27755W        W43564   0.714  14.303   0.280 -0.0054 -0.0318 -0.1970
27756W        W43565  17.540   2.216  12.548  0.0091 -0.1395  0.0723
27757W        W43566   2.039  14.601   5.652 -0.2628 -0.0577  0.1067
27758W        W43567  17.085   3.545   2.726  0.4504  0.4662  0.0246
27759W        W43568  11.873   1.205   5.010  0.0974  0.0119  0.0160
27760W        W43569  12.385  10.280  11.729 -0.0915  0.0714  0.2242
27761W        W43570   1.168  11.097   4.439  0.4569 -0.2572  0.1339
27762W        W43571  11.904   8.572  12.265 -0.2080  0.2154  0.0127
27763W        W43572   9.631   0.208  15.439  0.2656  0.2241  0.3622
27764W        W43573   0.878   3.474  11.526 -0.0932 -0.0789  0.4105
27765W        W43574  12.769   2.862  15.657  0.0282 -0.0366  0.0410
27766W        W43575  14.976   3.880   2.722 -0.2459  0.3362 -0.0726
27767W        W43576  11.274   0.583   2.138 -0.3156 -0.0390  0.0987
27768W        W43577  14.320   2.321   5.925 -0.1752 -0.2560 -0.0228
27769W        W43578   7.305  14.514   2.748 -0.3409 -0.1690 -0.0905
27770W        W43579   1.851   3.420   4.046 -0.0716  0.1215 -0.0180
27771W        W43580   7.644   2.470  12.402  0.2857 -0.1281  0.2124
27772W        W43581  13.544  13.311  14.540  0.0026 -0.0845  0.0324
27773W        W43582   6.862  12.610   3.242  0.0522  0.0295 -0.0983
27774W        W43583   0.995  13.530   1.665 -0.0189  0.5359  0.2729
27775W        W43584  17.739   1.234  14.962  0.1289 -0.1058  0.2132
27776W        W43585  10.646  14.750  15.546 -0.1039 -0.1863  0.1820
27777W        W43586   5.163   0.845  12.229  0.0983 -0.0099 -0.0040
27778W        W43587   6.814   3.952  13.829 -0.1443  0.1232  0.2942
27779W        W43588   7.798   8.843   2.541  0.0210 -0.1354  0.3334
27780W        W43589  10.414   3.514  15.349 -0.0147 -0.0255 -0.0487
27781W        W43590   8.758  14.052   1.482 -0.0593  0.1409  0.1854
27782W        W43591   3.168   4.005   4.549 -0.1255 -0.1584  0.0485
27783W        W43592  14.289   0.890  13.567 -0.0263  0.1860  0.0324
27784W        W43593  15.773   7.250  14.004 -0.5415  0.1480  0.0828
27785W        W43594   6.730  11.013  15.227 -0.1129  0.1258  0.0212
27786W        W43595   9.872   3.844  11.965 -0.0076 -0.4645  0.1672
27787W        W43596  11.194  10.905  15.302  0.2607 -0.0556 -0.1571
27788W        W43597   1.968   6.407  14.795  0.3105 -0.4229  0.1402
27789W        W43598   8.459   1.668   2.473 -0.0172  0.0551 -0.0380
27790W        W43599  18.201   7.863  15.310 -0.1221  0.1149  0.4096
27791W        W43600   7.085   5.885  12.974  0.1077  0.3413  0.4046
27792W        W43601   0.568   2.183  12.315  0.0786  0.2430  0.0242
27793W        W43602   4.638  12.979  15.434  0.0615  0.2290  0.2107
27794W        W43603   0.496  14.126   2.240 -0.2388  0.2267 -0.2454
27795W        W43604  17.560  18.155   3.715 -0.1130 -0.0033  0.3407
27796W        W43605  14.505   3.226   4.950  0.1802  0.0483  0.1564
27797W        W43606  13.480   9.014   5.538 -0.1953  0.0248  0.0904
27798W        W43607   3.059  15.821  14.563 -0.0801 -0.3405 -0.1218
27799W        W43608   9.565   9.577  14.426 -0.0480  0.0417 -0.0410
27800W        W43609   9.523  10.837  11.149  0.0498  0.1124  0.0982
27801W        W43610   4.757   8.932   1.007 -0.0966 -0.0847 -0.0476
27802W        W43611   1.286  10.950  14.895  0.0666  0.1095  0.1697
27803W        W43612  11.796  13.717  14.452 -0.0354 -0.1893 -0.0053
27804W        W43613   4.009   6.678  11.167  0.0946  0.1012 -0.3092
27805W        W43614  13.366  11.259   0.426  0.1312 -0.1062  0.2090
27806W        W43615   5.633   9.137   2.704  0.1209 -0.0275  0.2485
27807W        W43616   6.620  11.477   4.605 -0.0712 -0.2338 -0.3063
27808W        W43617   6.956   3.509   2.453 -0.1404  0.0197 -0.0396
27809W        W43618  14.313  17.453   3.084 -0.0253  0.0940 -0.0806
27810W        W43619   4.779  11.907   3.635 -0.2475 -0.2788 -0.0080
27811W        W43620   3.201   1.066  15.852  0.0491 -0.0509 -0.0408
27812W        W43621   6.642  16.802  14.368 -0.3010  0.0671 -0.3246
27813W        W43622   6.612   5.724   2.478  0.1465 -0.0892  0.0477
27814W        W43623   4.022  12.778  14.605 -0.3578 -0.0131  0.1281
27815W        W43624   6.698  15.196  11.061 -0.0588  0.0762  0.1110
27816W        W43625   8.514   2.497   2.491 -0.1575  0.0050  0.4805
27817W        W43626   3.316  10.419   5.423  0.3187 -0.1477 -0.2005
27818W        W43627  15.518   5.077   0.236  0.0632 -0.1989  0.1875
27819W        W43628   5.232  13.321   1.540  0.2026  0.4112 -0.1989
27820W        W43629  15.610  13.143   2.869 -0.0625  0.0705 -0.3903
27821W        W43630   6.201  17.794   1.898 -0.0497  0.0787  0.0577
27822W        W43631  12.815   3.749   0.698 -0.1510 -0.0559 -0.0007
27823W        W43632  13.591   6.976  13.485 -0.0151  0.1107  0.3700
27824W        W43633   7.597   2.114   0.326 -0.2492  0.2741  0.1131
27825W        W43634  11.416   4.817  12.954  0.0015  0.0800  0.2610
27826W        W43635   2.732  11.499  13.507  0.1644 -0.0118 -0.1277
27827W        W43636   7.196  13.854  14.273  0.3584 -0.0439 -0.0224
27828W        W43637  12.249   8.000  12.861 -0.0658  0.2823  0.0199
27829W        W43638   4.241   5.577  14.197 -0.0945 -0.3106  0.2884
27830W        W43639  17.444  10.635   0.140 -0.1375 -0.4012 -0.0807
27831W        W43640  11.338   2.200  11.577 -0.1214 -0.1043  0.0402
27832W        W43641  15.710   1.157  11.322 -0.2834 -0.2280 -0.1278
27833W        W43642  17.438   4.528   3.638  0.1489  0.0001 -0.2525
27834W        W43643   2.960   0.937   0.583  0.0042 -0.0225  0.0764
27835W        W43644   0.099  11.166  15.398 -0.1614 -0.0290  0.3820
27836W        W43645   2.765  15.646   5.275  0.6245  0.3690  0.1860
27837W        W43646   4.551   4.591  14.335 -0.0160  0.1222 -0.0498
27838W        W43647  15.956   8.510  11.769  0.0378  0.1643  0.1299
27839W        W43648   5.450  15.645   0.748 -0.0019 -0.1174 -0.1852
27840W        W43649  12.556   4.098   2.982 -0.0353 -0.5581 -0.4668
27841W        W43650   1.377  12.972  10.919  0.2461  0.2015  0.1167
27842W        W43651   8.933   6.320   1.613  0.3176 -0.1041 -0.2185
27843W        W43652   7.500   7.359  13.508  0.0574  0.1514 -0.1845
27844W        W43653   6.718  13.118   2.397 -0.2684 -0.0584 -0.2184
27845W        W43654  15.783   0.454   4.967 -0.0821  0.2201  0.1085
27846W        W43655   9.052  11.915   3.483  0.3713  0.0282  0.0661
27847W        W43656  16.557   1.542   5.982  0.1115 -0.0795  0.3276
27848W        W43657  17.512  12.063  14.397  0.2135  0.4658 -0.1010
27849W        W43658   1.650   2.897   4.354  0.0951 -0.0639  0.0497
27850W        W43659   1.334  16.684   1.269 -0.0880  0.2827 -0.0929
27851W        W43660  16.842   0.971   4.458  0.0235 -0.2006  0.3267
27852W        W43661  10.794   9.699  14.501 -0.1870 -0.0494 -0.0070
27853W        W43662  17.286   6.106   0.126  0.2851  0.1118  0.0293
27854W        W43663   5.299   1.956   2.551  0.4237 -0.0865 -0.0852
27855W        W43664   4.377   9.534  14.123 -0.0213  0.0690  0.2808
27856W        W43665   3.611   8.177   1.716  0.1995 -0.3479  0.2176
27857W        W43666   4.096   0.398  12.704 -0.0354 -0.0944 -0.1455
27858W        W43667   8.055   2.775  12.438  0.0752  0.1644  0.1007
27859W        W43668   9.982   7.768   4.190  0.1237  0.0305  0.1590
27860W        W43669  13.383   3.062   2.983  0.4835  0.0909 -0.1427
27861W        W43670   2.212  17.700  13.252 -0.1760 -0.0232  0.1523
27862W        W43671   8.573  15.160   4.907 -0.3004 -0.0442  0.2002
27863W        W43672  10.567   9.654   5.173  0.2228 -0.1262  0.2511
27864W        W43673   0.899  10.285   3.349 -0.0020 -0.0522  0.1969
27865W        W43674   8.873   2.798   0.345  0.0929  0.1280 -0.2442
27866W        W43675   4.164  14.572   3.919  0.1063 -0.1936  0.1329
27867W        W43676   8.430   8.375   0.304  0.1607 -0.0549  0.0444
27868W        W43677   0.048  12.139   4.516  0.2124 -0.0723 -0.0019
27869W        W43678   0.728   4.050   4.422 -0.1336 -0.1433  0.2436
27870W        W43679  10.435   5.799  11.517 -0.0128  0.1809  0.1525
27871W        W43680  15.172   7.504   2.236 -0.0264  0.0447 -0.0403
27872W        W43681  12.395   8.349   1.667 -0.0037 -0.1227  0.1333
27873W        W43682   6.584  15.837   4.864  0.0813  0.1761 -0.3222
27874W        W43683  13.556   1.845  11.001 -0.2429 -0.0210 -0.1241
27875W        W43684  12.167   6.735   3.657 -0.1589 -0.4206  0.0481
27876W        W43685  11.324   0.496   3.730 -0.2760 -0.0267 -0.1634
27877W        W43686   5.702   6.961  11.142 -0.0225 -0.0744 -0.0705
27878W        W43687   5.500   9.026   5.014 -0.1105  0.2081  0.0019
27879W        W43688  14.498  17.580   4.893 -0.0812  0.1413 -0.0865
27880W        W43689   3.492  16.373   2.957 -0.0955  0.1075  0.0275
27881W        W43690   9.946   6.234  14.335 -0.5723  0.0742  0.0696
27882W        W43691  16.679  14.911   3.873  0.3949 -0.0414  0.0656
27883W        W43692   7.323  18.231   5.529  0.0837  0.3259  0.1472
27884W        W43693  11.571  16.884   2.957  0.1620  0.2824  0.1325
27885W        W43694   5.419   9.833  14.281 -0.0845  0.0504  0.0163
27886W        W43695   0.812  10.755  14.959  0.2224  0.0174 -0.1453
27887W        W43696  17.350  16.466   1.620 -0.0524  0.1754 -0.0419
27888W        W43697   3.486   4.533   2.755  0.0880 -0.0602  0.0352
27889W        W43698  10.821  16.688  11.984  0.1453 -0.2833  0.2324
27890W        W43699   6.603  12.639   2.159 -0.3349 -0.0107  0.0246
27891W        W43700   5.470  18.019   1.443 -0.2264 -0.0480  0.1958
27892W        W43701  10.152   5.918   4.430 -0.0780  0.0289 -0.0203
27893W        W43702  17.504   9.190   4.631  0.0118  0.0234 -0.2894
27894W        W43703   0.482  12.860   2.266 -0.2764  0.1754 -0.1518
27895W        W43704   5.283   8.330   1.113  0.1639 -0.0640 -0.1206
27896W        W43705  10.755  15.661   1.892  0.0582  0.0280  0.0230
27897W        W43706   1.128   2.812  14.381 -0.2575  0.0520  0.1872
27898W        W43707  13.220  16.447  11.330 -0.2444 -0.0740  0.1229
27899W        W43708  16.350  12.282  15.749 -0.1622 -0.1908 -0.0348
27900W        W43709  16.326  15.834   3.717  0.0098  0.3022 -0.0268
27901W        W43710   1.859   7.451   1.897 -0.0041 -0.0552  0.0552
27902W        W43711   2.566  13.595   5.228  0.0700 -0.1983 -0.0329
27903W        W43712   7.169   7.600   4.616  0.0759 -0.1336  0.2874
27904W        W43713   8.344  11.245  12.587 -0.0188 -0.1643  0.0986
27905W        W43714  10.940  12.052   2.514  0.1272  0.1572 -0.1373
27906W        W43715   2.914  17.408  13.194 -0.1160 -0.1582 -0.1398
27907W        W43716   5.385   1.897   3.568  0.0912  0.4376 -0.0284
27908W        W43717  12.463  13.729   2.222  0.1236  0.0761 -0.0735
27909W        W43718   1.571  14.295  12.101  0.1279  0.0905 -0.1195
27910W        W43719   0.481   9.069  13.921 -0.1618 -0.0356 -0.2056
27911W        W43720   9.984  16.688   1.392 -0.0240  0.0511 -0.2564
27912W        W43721   6.822  13.572  14.147 -0.1186 -0.1752 -0.3494
27913W        W43722   9.945   8.051  14.169  0.0738  0.1612 -0.1881
27914W        W43723   9.219   4.148   5.061 -0.2921 -0.4298  0.0046
27915W        W43724  12.227  15.747   5.182 -0.0587  0.4313 -0.0170
27916W        W43725  10.863   1.509   0.758  0.1631 -0.1362 -0.1769
27917W        W43726  12.731  18.066  12.027 -0.0149 -0.0004 -0.1106
27918W        W43727  10.036  15.478  10.478  0.1682 -0.0053  0.2579
27919W        W43728   9.967  13.887   4.158 -0.0192  0.1857  0.0268
27920W        W43729   5.339   1.296  13.245 -0.0646  0.0967 -0.0278
27921W        W43730   3.789  11.726   0.759  0.1588  0.3305  0.0058
27922W        W43731   6.906  13.694   3.363 -0.1617  0.0249 -0.0563
27923W        W43732  18.081  14.866   2.288 -0.3845  0.2022  0.2635
27924W        W43733   3.139   9.661   4.229  0.3202  0.0432 -0.0739
27925W        W43734  10.466   6.007  15.934  0.1139 -0.0082 -0.2048
27926W        W43735   9.865   6.325   3.977 -0.0852 -0.0401 -0.0019
27927W        W43736  15.720  15.202   2.231  0.0525 -0.2015  0.0577
27928W        W43737  16.548  13.112  13.686  0.4437 -0.1227 -0.1250
27929W        W43738  16.446  17.758  12.665 -0.0009 -0.1440  0.0825
27930W        W43739   0.990   2.583   4.977 -0.0872  0.0802  0.1597
27931W        W43740   4.484   9.443  11.564 -0.0714 -0.0185 -0.0299
27932W        W43741   3.758  11.377  12.822 -0.0276  0.1327  0.0508
27933W        W43742   3.033  13.989  11.628  0.3256  0.0702 -0.2292
27934W        W43743   3.928   8.615   5.508  0.2371  0.2573 -0.2774
27935W        W43744  12.668   9.609  13.879 -0.0749 -0.1137  0.1589
27936W        W43745   0.424   8.461  14.227  0.0585 -0.1215 -0.2570
27937W        W43746  14.204   2.981  13.125  0.3898  0.0275  0.0331
27938W        W43747  12.619   6.092   1.787 -0.0756 -0.1641 -0.2681
27939W        W43748  15.186   2.756  13.671  0.0824 -0.1279  0.1811
27940W        W43749   4.586   4.830  15.596 -0.3004  0.0398  0.0031
27941W        W43750  11.287  12.857   3.401 -0.1259 -0.1602 -0.0613
27942W        W43751   0.072   7.218   3.033  0.0018  0.0378  0.1872
27943W        W43752   7.019   7.829  14.314 -0.0531  0.1009  0.1087
27944W        W43753  15.498  12.511   0.534 -0.0755  0.1388  0.2160
27945W        W43754   0.515   2.618  16.019 -0.0066  0.0741  0.2765
27946W        W43755  15.246  17.852  15.622 -0.2956  0.4027 -0.1193
27947W        W43756   4.102  12.618   4.959 -0.0151  0.1123  0.0985
27948W        W43757   3.364   6.231   1.807  0.2695  0.2471  0.0714
27949W        W43758   7.430  15.855  14.541  0.0101 -0.0158  0.0331
27950W        W43759   1.578   6.369  13.569  0.1395 -0.3355 -0.1070
27951W        W43760   6.560   3.138   4.604  0.0351 -0.2568  0.1001
27952W        W43761  12.454   0.101  15.278  0.0539 -0.1867  0.3125
27953W        W43762   3.615   7.033  13.032  0.0002 -0.2296 -0.0082
27954W        W43763  14.673   8.143   5.237  0.3143  0.1558 -0.3445
27955W        W43764  11.873  12.048   5.067  0.1459 -0.2677  0.2589
27956W        W43765  14.901  12.589  12.322 -0.2341  0.1537 -0.0747
27957W        W43766   0.832  14.973   0.542  0.0535 -0.5645  0.2294
27958W        W43767   6.555   1.513   3.440 -0.0561  0.2166  0.0634
27959W        W43768  11.481  18.070  15.724 -0.0535  0.2230  0.1596
27960W        W43769  13.096  12.578   5.075 -0.1379  0.1220  0.0767
27961W        W43770  13.167   7.685  13.913  0.1238  0.1220  0.1365
27962W        W43771   6.790   7.935   3.142  0.1827  0.0774 -0.1061
27963W        W43772  14.907  10.973   2.231  0.0911 -0.0387 -0.0756
27964W        W43773  15.142  15.279   0.657  0.0592 -0.0965  0.1772
27965W        W43774   6.472   3.201   5.534 -0.1667 -0.0926  0.3525
27966W        W43775  16.577  12.308  11.589  0.2044  0.0417 -0.0402
27967W        W43776  12.981  10.295  14.955 -0.0346  0.1010 -0.3315
27968W        W43777   1.501   2.129  11.354  0.0757  0.0541 -0.0574
27969W        W43778  13.739  18.160   0.263 -0.2567  0.0398 -0.5418
27970W        W43779  10.090  13.704   2.564 -0.2886  0.0096 -0.3283
27971W        W43780   1.201   6.614  13.248 -0.0298  0.1415  0.2199
27972W        W43781  15.986   3.852   4.029 -0.2041 -0.2150 -0.0281
27973W        W43782  16.211   0.025  13.972  0.2222  0.1671  0.0735
27974W        W43783   6.569   4.149  12.413  0.0171 -0.0900  0.1984
27975W        W43784   3.326   1.142   4.721  0.0388  0.0473 -0.0913
27976W        W43785   6.727  15.122  12.857 -0.0234  0.0014 -0.2827
27977W        W43786   4.777   4.934   0.546 -0.3094  0.1629 -0.0109
27978W        W43787  15.556  12.860  15.719 -0.0770  0.1487 -0.2197
27979W        W43788  17.936   0.062   5.897 -0.0080 -0.2934 -0.0500
27980W        W43789   7.826   5.377  12.216 -0.0504 -0.2310  0.0097
27981W        W43790  17.700  14.119  11.357  0.0274  0.1777 -0.0566
27982W        W43791  15.693  12.522  13.779  0.1260 -0.0549  0.0011
27983W        W43792  12.096   0.150  13.343 -0.4322  0.2024 -0.1315
27984W        W43793   7.214  13.447   4.592  0.0553 -0.1054  0.0372
27985W        W43794   0.888   3.802   0.527 -0.2462 -0.0986 -0.0897
27986W        W43795   6.296   6.264   3.722  0.0496 -0.0108  0.0758
27987W        W43796   1.433   8.611   5.326  0.0554  0.2598 -0.2139
27988W        W43797   2.153  15.677   4.597 -0.0431  0.3682  0.0453
27989W        W43798  17.182   3.758  11.786  0.0806  0.0658  0.0351
27990W        W43799  10.802   4.190   4.190  0.0341  0.1087 -0.0050
27991W        W43800   2.012   9.467   2.927  0.1584  0.1560 -0.2125
27992W        W43801  14.315  16.948  13.202  0.0591  0.1280 -0.0201
27993W        W43802   8.486  17.409  12.298  0.0986 -0.2336 -0.2353
27994W        W43803  10.647  11.805   3.956 -0.0531 -0.0244 -0.1958
27995W        W43804   9.222   1.582   1.856 -0.1649  0.0334  0.1987
27996W        W43805   2.878   9.917  13.176  0.1275  0.1918 -0.0521
27997W        W43806  12.893   0.537   5.106 -0.0028  0.2225 -0.1609
27998W        W43807   6.479   4.653   3.327  0.1969 -0.1065 -0.0949
27999W        W43808   6.870  16.685  13.467  0.0269  0.0393 -0.0492
28000W        W43809  10.006   1.882  12.589 -0.0088 -0.0142  0.1421
28001W        W43810   3.837  12.345  14.762 -0.1461 -0.1731 -0.0414
28002W        W43811  15.598   4.418   2.264 -0.3044 -0.1036  0.1265
28003W        W43812  14.473   2.932  14.891 -0.1532  0.1825  0.0994
28004W        W43813  12.056   1.319   2.040 -0.0775  0.2941  0.0702
28005W        W43814   2.141  16.065   0.202  0.0231  0.0484 -0.0825
28006W        W43815   3.587   1.245  14.299  0.0522  0.3509 -0.3252
28007W        W43816   5.533  15.249   0.481 -0.1821  0.0018 -0.0606
28008W        W43817  11.445  14.819   3.707 -0.0571 -0.1521 -0.0394
28009W        W43818  14.541  11.350  12.435 -0.2819  0.3990 -0.0297
28010W        W43819  13.900  11.468   0.533 -0.3570 -0.2051  0.1213
28011W        W43820   0.101   1.967   4.069 -0.0422  0.1040 -0.2469
28012W        W43821  13.710  13.563   1.361  0.0810  0.6503  0.0579
28013W        W43822   0.585  14.298  14.686 -0.1967  0.1708  0.1003
28014W        W43823   8.023  17.493   1.839  0.0110 -0.0482  0.2207
28015W        W43824   7.803  11.642   2.979 -0.0660  0.2651  0.0790
28016W        W43825   4.781  11.889  11.404  0.0447 -0.2806 -0.1475
28017W        W43826  16.539  13.532   2.560  0.0497 -0.1101 -0.0026
28018W        W43827   6.329  12.633   1.145  0.0438 -0.0335  0.2587
28019W        W43828   5.056   1.239   5.335  0.0270 -0.0465 -0.1477
28020W        W43829  15.121   2.965  15.011 -0.4386 -0.0436  0.1467
28021W        W43830  12.719  16.137  15.252  0.2668 -0.1927 -0.1068
28022W        W43831   0.962  12.818   2.142 -0.3144 -0.1346 -0.3397
28023W        W43832  15.000  16.530  15.416 -0.2264  0.1597  0.1225
28024W        W43833   3.522  12.947   3.698  0.0346 -0.4872  0.0432
28025W        W43834  10.943   7.590  11.008  0.2382  0.3128  0.0720
28026W        W43835   1.128   0.275   0.964  0.1825  0.0230  0.0564
28027W        W43836   7.547  12.555   1.724  0.1304  0.1842 -0.0037
28028W        W43837  16.624  15.421  12.349 -0.0452  0.2294  0.2034
28029W        W43838  13.606   9.112   4.708 -0.0500  0.0225  0.1268
28030W        W43839   1.147   7.996  14.459 -0.0048  0.3113  0.0619
28031W        W43840   7.466  16.644   0.670 -0.2385 -0.0012  0.0488
28032W        W43841  17.177   0.616   0.485  0.0043  0.2676 -0.1155
28033W        W43842  10.764   0.732   1.797  0.1322  0.1704 -0.1668
28034W        W43843   2.091   1.359  14.190  0.1188  0.1382 -0.2443
28035W        W43844   0.780   5.450  13.448  0.0895  0.2810  0.1719
28036W        W43845  11.610  17.121   3.889 -0.2200 -0.1807  0.2530
28037W        W43846   7.685  18.090  14.607 -0.0876 -0.2447  0.0099
28038W        W43847  14.570   9.180   5.239  0.2360  0.0790 -0.0835
28039W        W43848  15.662  14.990  16.068 -0.2269  0.3870 -0.1018
28040W        W43849   6.315   4.471  14.434 -0.0053 -0.1767  0.0849
28041W        W43850   5.856   0.588  14.538  0.0496  0.2477 -0.2170
28042W        W43851  11.916  14.315   5.127  0.0727  0.0380  0.1037
28043W        W43852   3.315   2.557  13.538 -0.1271 -0.4709 -0.2240
28044W        W43853  11.693   5.908   2.121 -0.1613  0.0047 -0.1274
28045W        W43854  17.523   0.354   4.647 -0.2061 -0.3550  0.0717
28046W        W43855  11.075   9.094  10.507  0.1691 -0.1853 -0.0399
28047W        W43856  17.981   4.140  15.795 -0.2133 -0.0280 -0.0585
28048W        W43857   4.816   8.297   0.441  0.0538 -0.2116  0.1558
28049W        W43858  15.959   4.157  12.112 -0.0393  0.2833 -0.2371
28050W        W43859  12.958   9.856   0.145 -0.0750  0.1698  0.2691
28051W        W43860   1.717   7.979   2.341  0.0048  0.4117 -0.0924
28052W        W43861  16.419   9.802  11.820  0.0535 -0.3166 -0.1090
28053W        W43862  10.486   4.421   2.463  0.3048  0.0113  0.2201
28054W        W43863   3.595  16.024   5.066 -0.1610 -0.3432 -0.1830
28055W        W43864   1.172  10.173  11.961 -0.0803 -0.2417 -0.2925
28056W        W43865  15.233  10.764  11.498 -0.3209  0.0710  0.0948
28057W        W43866   8.156   7.867  13.210  0.1751 -0.3983  0.2219
28058W        W43867   2.972  16.269  14.792 -0.1190  0.3788  0.3469
28059W        W43868  13.138   0.658   2.665  0.0683  0.1775 -0.1039
28060W        W43869   6.812   2.910  12.403  0.2189  0.1935  0.1309
28061W        W43870   3.895   0.234   4.692  0.1758  0.0867 -0.2141
28062W        W43871   8.122  12.019   1.314 -0.3606 -0.1698  0.2559
28063W        W43872  11.664  12.371   1.231 -0.0661 -0.0992 -0.0500
28064W        W43873   0.184   0.269  15.678 -0.0691  0.4794  0.1755
28065W        W43874   2.022  16.747  13.825  0.2287 -0.0579 -0.1531
28066W        W43875  12.621  16.252   5.190 -0.0521 -0.0572 -0.0388
28067W        W43876  17.864   3.471   0.075  0.2242 -0.1996  0.0178
28068W        W43877   7.844   8.178   5.604 -0.0063 -0.0789  0.2058
28069W        W43878   7.788  13.556   3.013  0.0948  0.0736 -0.1997
28070W        W43879   9.387  13.310  11.766 -0.0188 -0.2011  0.0262
28071W        W43880   0.325  11.361   4.282 -0.0582 -0.2540 -0.2441
28072W        W43881   7.232   8.175  14.935 -0.2284 -0.1426  0.1536
28073W        W43882   5.477  10.199  11.675  0.2226 -0.0377  0.0253
28074W        W43883   3.693   0.323   3.793  0.1136  0.2264  0.0109
28075W        W43884  14.202   3.329   2.404  0.2994 -0.0630  0.0489
28076W        W43885   6.804   6.307  13.043 -0.1101 -0.1613 -0.0719
28077W        W43886   5.437  12.081  13.590  0.1739  0.0274 -0.0484
28078W        W43887   9.387  14.314   3.559  0.1312 -0.2030  0.0557
28079W        W43888   4.684   6.736   4.521  0.1900  0.2546 -0.1964
28080W        W43889   9.124   2.805   1.025  0.0373  0.4058 -0.1191
28081W        W43890   9.746  13.605  15.104 -0.0845 -0.1468 -0.0271
28082W        W43891  11.443  14.876  11.745 -0.0328  0.0080  0.1384
28083W        W43892   3.381   3.074   1.359 -0.3507 -0.1502  0.0480
28084W        W43893   6.104  17.995   3.118 -0.0330 -0.4429  0.2089
28085W        W43894  12.139   3.575  10.586  0.2758  0.1435 -0.0599
28086W        W43895   9.990  16.597  11.366 -0.0436 -0.1148 -0.0826
28087W        W43896  17.955  13.108  16.066  0.1153  0.0654 -0.0605
28088W        W43897   6.935  11.643  11.556 -0.1685  0.3092  0.0795
28089W        W43898   0.650   8.982  14.977  0.1317  0.1260 -0.0001
28090W        W43899   1.932  17.348  13.080 -0.1947  0.4209 -0.1289
28091W        W43900  11.753   5.124  15.750 -0.0116 -0.1452 -0.4168
28092W        W43901   8.777  15.298  10.092  0.0910 -0.0121 -0.0674
28093W        W43902  17.318  16.614  11.372  0.0153  0.2146 -0.2347
28094W        W43903   7.881   0.735  14.932 -0.1808  0.1756 -0.1634
28095W        W43904   7.301  12.446   4.739 -0.3280 -0.1118  0.3059
28096W        W43905   1.647  16.741   0.746  0.1039  0.1180 -0.2689
28097W        W43906   2.911   4.763   0.954  0.1366  0.2374 -0.3964
28098W        W43907   9.809  13.984  15.468  0.0971  0.0354 -0.1166
28099W        W43908  13.841   9.105   1.886  0.2036  0.1045  0.1656
28100W        W43909   8.477   6.998  14.904  0.1229 -0.1783 -0.0527
28101W        W43910   0.285  14.041   5.927  0.0589  0.0069 -0.1562
28102W        W43911  15.750  12.439   3.677 -0.1706 -0.1972  0.1678
28103W        W43912  13.222   5.768   2.576  0.1362 -0.1269  0.1120
28104W        W43913  11.471   3.886  16.057  0.0131 -0.1988  0.0315
28105W        W43914  10.597   9.572   4.642 -0.1188  0.0601  0.1262
28106W        W43915  17.107  11.575   1.385  0.0781  0.1226  0.0256
28107W        W43916  13.482  16.391  12.364 -0.0158 -0.0108 -0.0941
28108W        W43917   1.568   7.618  13.415 -0.3211  0.2147 -0.1827
28109W        W43918  16.407  10.744  12.698 -0.0299  0.0272  0.2153
28110W        W43919   4.589  12.008  10.959  0.0238 -0.0439 -0.1031
28111W        W43920  17.261  13.536  13.372 -0.1258  0.0516 -0.0774
28112W        W43921   5.110   6.297   2.299 -0.0325  0.2749  0.1853
28113W        W43922   6.985   1.279  15.549 -0.0866  0.1699  0.3112
28114W        W43923   6.846   1.247  13.023  0.1160  0.0573  0.0054
28115W        W43924   0.408   6.143   3.865  0.2259 -0.1356  0.1683
28116W        W43925   2.541  18.114   4.341  0.1983  0.2401  0.2350
28117W        W43926   9.272   5.499   5.461  0.4289 -0.1980  0.0091
28118W        W43927  10.631   3.764  11.871  0.3670 -0.3096 -0.0104
28119W        W43928  11.325   1.234  15.404 -0.0221  0.2069 -0.0794
28120W        W43929  13.704  13.922  11.452  0.1033 -0.1081  0.0538
28121W        W43930  11.492  14.485   0.042 -0.1252  0.0557 -0.0285
28122W        W43931   2.527   9.191   0.399 -0.0568  0.0833 -0.0927
28123W        W43932  15.090  11.132   0.106  0.0126  0.0473 -0.1164
28124W        W43933  15.141   8.444   0.785 -0.0859 -0.0689  0.0801
28125W        W43934   6.500  12.066  15.004  0.0277 -0.2442 -0.0015
28126W        W43935   0.954  16.953   0.348 -0.0513  0.0847 -0.0206
28127W        W43936  17.331   5.345   5.130 -0.1650 -0.1881  0.0651
28128W        W43937  13.248   7.196  12.558 -0.3533 -0.1301 -0.1682
28129W        W43938   9.173  12.698   3.012  0.0981 -0.0690 -0.1637
28130W        W43939  16.648   2.546  10.116 -0.1682 -0.5326 -0.2590
28131W        W43940   5.397   7.321   0.758 -0.1375 -0.0676 -0.2335
28132W        W43941  10.311   9.098  15.892 -0.0557  0.1239 -0.0256
28133W        W43942  17.254   1.235  15.041  0.0285 -0.2266  0.3228
28134W        W43943   8.144   9.934   4.965  0.2891 -0.0122  0.2261
28135W        W43944  14.209  10.618   1.354 -0.2336  0.1144 -0.0106
28136W        W43945   7.814   6.378  14.204  0.0973 -0.1852  0.2914
28137W        W43946   6.118   4.103   3.324  0.0288 -0.2255 -0.0804
28138W        W43947   7.972  18.001   1.668  0.0856 -0.2582 -0.0703
28139W        W43948   2.989  16.424   3.832 -0.1357  0.0400  0.1896
28140W        W43949  15.864   5.717  11.112 -0.3051 -0.1377  0.0557
28141W        W43950   1.909   0.993  15.970  0.1454  0.0834  0.2774
28142W        W43951  17.616  13.621  11.578  0.1434 -0.0085 -0.0536
28143W        W43952   3.695   2.294  16.018 -0.0206 -0.1060 -0.0456
28144W        W43953  10.611   2.785   1.294  0.3128 -0.1473  0.2396
28145W        W43954  10.078   5.728  11.874  0.0175  0.1351  0.0320
28146W        W43955  12.962  17.351   1.039 -0.1537  0.4546 -0.3022
28147W        W43956   5.336   9.194  13.630 -0.1388  0.3057  0.0168
28148W        W43957  18.151   1.839  14.959  0.0453  0.0665 -0.0636
28149W        W43958  12.196  17.725   5.231  0.0552 -0.0336 -0.0786
28150W        W43959  11.211  11.816   4.202 -0.1925  0.1067  0.3883
28151W        W43960   6.489   4.052   4.525 -0.0764 -0.1724  0.1369
28152W        W43961   5.187  11.297   1.925 -0.1995 -0.1012  0.1037
28153W        W43962   3.009   2.177   2.480 -0.0390  0.3301 -0.1019
28154W        W43963   4.307   2.778   2.555  0.2796 -0.0510 -0.1128
28155W        W43964   7.493   0.082   0.491  0.0815  0.4295  0.1710
28156W        W43965   6.730  17.118  12.003 -0.0780 -0.0553  0.0296
28157W        W43966   8.030  13.405  13.336  0.1614  0.1129 -0.0524
28158W        W43967   0.810  14.235  14.230 -0.0642  0.0096 -0.1991
28159W        W43968   1.883   1.582   4.801  0.0031  0.2349  0.0369
28160W        W43969  14.397   0.229  11.529 -0.2829  0.0889 -0.2020
28161W        W43970   2.119  13.631   1.791  0.0700 -0.1804 -0.1118
28162W        W43971   7.484   0.836  13.688 -0.0195  0.0601  0.4027
28163W        W43972  12.945   6.274   0.504  0.1887  0.2846  0.1204
28164W        W43973  13.882  14.508  15.482 -0.0767 -0.0596 -0.3450
28165W        W43974   8.648   9.490  11.084  0.0336 -0.2048 -0.2238
28166W        W43975   8.723   6.457   5.632  0.1733  0.0235  0.0769
28167W        W43976   5.156  17.621   6.029 -0.1175  0.1314 -0.2970
28168W        W43977   3.453   7.367  13.414 -0.2146  0.3104  0.3852
28169W        W43978  13.968   5.286  11.275 -0.2047  0.1399 -0.1381
28170W        W43979   5.850  14.555   0.895  0.1420 -0.2545 -0.0320
28171W        W43980   7.972  16.188  11.195  0.1053  0.1746 -0.4028
28172W        W43981   2.654  17.794  14.050 -0.2624 -0.0668 -0.0259
28173W        W43982  17.363   1.097  10.879  0.2532 -0.2522  0.1917
28174W        W43983  15.908   4.851   4.101 -0.0461 -0.2563  0.0065
28175W        W43984  17.791   4.144  10.419  0.1308 -0.1789  0.1801
28176W        W43985  13.598  11.126  12.516 -0.1092  0.1220  0.0028
28177W        W43986   4.904  17.925  11.973 -0.0991  0.1496 -0.0017
28178W        W43987   2.237   7.955   4.735  0.2631  0.3275 -0.0300
28179W        W43988  11.779  16.727  15.786 -0.2188 -0.0634 -0.3386
28180W        W43989  17.804  11.780  11.982 -0.1059  0.0753 -0.0623
28181W        W43990   2.072  17.324  11.729 -0.2337 -0.1356 -0.3718
28182W        W43991   0.829   4.115   2.492 -0.0560 -0.0514  0.2349
28183W        W43992   6.524   2.108  10.921  0.1284 -0.0045  0.0675
28184W        W43993  17.091  17.229   0.493  0.1802  0.0348 -0.0847
28185W        W43994  14.209  16.635  14.040  0.2480  0.0720  0.1180
28186W        W43995   8.038   0.761  12.875 -0.1642 -0.2674 -0.2454
28187W        W43996   2.438  12.877  10.595  0.1084 -0.3252 -0.1523
28188W        W43997   8.901   1.584   3.952  0.2948 -0.0514  0.0708
28189W        W43998  17.783  15.990   4.354 -0.0326  0.1151 -0.1636
28190W        W43999   6.870   9.648   1.315  0.0713  0.0560  0.0492
28191W        W44000  10.557  12.948  14.539 -0.2478 -0.0391 -0.0184
28192W        W44001  17.770   1.144   4.313 -0.2978 -0.1734 -0.0211
28193W        W44002  13.463   0.253   2.650  0.0323  0.1526  0.1150
28194W        W44003   5.354   7.872   3.976 -0.3008  0.0451 -0.1544
28195W        W44004  15.262  14.200  14.698  0.2245 -0.2756 -0.0201
28196W        W44005  18.100   2.588   5.534 -0.1411  0.0404  0.0771
28197W        W44006  13.709  10.228  12.397  0.1679  0.2140 -0.1364
28198W        W44007  10.472  16.202  15.796 -0.0289 -0.2209 -0.1577
28199W        W44008   4.494   8.449  15.159 -0.0656  0.1360  0.0081
28200W        W44009  16.233   2.724  15.847 -0.0111  0.0863 -0.0968
28201W        W44010   7.933  11.784   4.717 -0.0509 -0.0067 -0.0851
28202W        W44011  14.479  16.771   2.492 -0.1854  0.2485 -0.0652
28203W        W44012   6.586  13.221   5.416 -0.1022 -0.2458  0.1725
28204W        W44013  15.347  12.093   3.633  0.3372 -0.3237  0.1155
28205W        W44014   4.717   5.881   2.750  0.1389  0.1973  0.0397
28206W        W44015   5.061  11.660   3.280 -0.1523 -0.0228  0.1246
28207W        W44016   7.662  11.533  12.067  0.1761 -0.2952  0.0428
28208W        W44017   8.846  12.048  12.185  0.0082  0.2368  0.2838
28209W        W44018   1.670  11.430   1.117 -0.2312  0.0325  0.2964
28210W        W44019  12.187   5.866  13.358  0.0248  0.1433  0.0434
28211W        W44020  18.105  15.502  12.790 -0.1260 -0.0146  0.0341
28212W        W44021  13.253   0.512   5.453 -0.3627  0.1796  0.1774
28213W        W44022   8.362  10.135  10.916  0.1860  0.0946 -0.0489
28214W        W44023   4.142   6.548   3.346 -0.1068 -0.3605 -0.2069
28215W        W44024  17.830  17.972   1.615  0.0771  0.0196  0.1836
28216W        W44025  14.610  15.813   3.501  0.2258 -0.1842 -0.1602
28217W        W44026   6.238   2.130   2.972 -0.0921 -0.0668 -0.0481
28218W        W44027  15.823   7.523   4.179 -0.1237  0.1985  0.0453
28219W        W44028  17.770  16.010  14.018 -0.1168  0.0046 -0.1611
28220W        W44029   5.532   1.981  15.343 -0.0562 -0.1322  0.2885
28221W        W44030   4.668  17.826  12.851 -0.0184  0.0268  0.0261
28222W        W44031   4.440  11.305   2.369  0.0416 -0.3224 -0.0688
28223W        W44032  13.085   7.043  10.350 -0.1610  0.1535  0.2677
28224W        W44033   8.422  10.846  12.940  0.0813 -0.0596  0.0326
28225W        W44034   4.130  10.130  14.430  0.0954  0.2811  0.1343
28226W        W44035   8.257  10.428   4.205  0.0148  0.2302 -0.2503
28227W        W44036   7.831   0.081   2.930 -0.0091  0.1108 -0.1780
28228W        W44037   3.188   4.503   5.760  0.0495  0.0647 -0.0356
28229W        W44038   5.276  13.226  11.985  0.3335  0.2021 -0.0710
28230W        W44039   6.783  14.284   2.761 -0.2088 -0.2377 -0.2434
28231W        W44040   9.343  11.857   5.729  0.3677 -0.1866  0.0821
28232W        W44041   2.233   0.904  13.181 -0.3941  0.1572  0.0535
28233W        W44042  14.865   6.389  13.598 -0.0990 -0.0344 -0.1110
28234W        W44043  11.230   8.342  15.769 -0.1552  0.1841 -0.1253
28235W        W44044  12.853  12.089  12.074 -0.0734  0.1652  0.1153
28236W        W44045   3.076  11.315   1.915  0.0591  0.1137  0.1023
28237W        W44046   6.666  18.191  14.664  0.2204  0.1527  0.1706
28238W        W44047   8.793  10.477  10.172 -0.0827  0.2217 -0.2941
28239W        W44048   3.947   5.761  10.857  0.3942  0.1164  0.0044
28240W        W44049   3.417  11.649   4.097  0.3649  0.1804 -0.2086
28241W        W44050  17.499  12.680   3.082  0.2369 -0.0196  0.2326
28242W        W44051  14.582  10.543   3.614 -0.1571  0.0614  0.0420
28243W        W44052   7.353   0.833   4.621  0.1278 -0.2023 -0.0111
28244W        W44053  15.510   8.446  15.312 -0.1375  0.1162 -0.0539
28245W        W44054   5.829   2.749  12.305  0.0750  0.2284  0.0865
28246W        W44055  14.279   4.355   4.390 -0.2948 -0.1708 -0.1929
28247W        W44056  13.969  15.950   4.003 -0.0838 -0.0367  0.0344
28248W        W44057   6.300  16.726  13.977 -0.2774 -0.2172  0.2008
28249W        W44058  10.421  13.137   1.395  0.0510  0.0916  0.0457
28250W        W44059  13.175  16.373  15.126  0.1196 -0.0752  0.2751
28251W        W44060  11.756   6.269  11.964 -0.0705 -0.1847 -0.2344
28252W        W44061   0.870  18.140   1.614 -0.3015  0.2550  0.2215
28253W        W44062   4.221  17.651   4.784 -0.2780 -0.1103  0.1999
28254W        W44063  10.444  16.990  14.491  0.3886  0.0664  0.2004
28255W        W44064  10.732   4.018  15.398  0.1237 -0.1133  0.0585
28256W        W44065  12.755  17.248  13.232 -0.0242 -0.1235  0.3216
28257W        W44066  10.269   7.722   5.047  0.2267  0.0545  0.0240
28258W        W44067   6.716   9.316  14.048  0.0591 -0.0630 -0.1877
28259W        W44068   6.131  16.987   2.260 -0.0183 -0.0892 -0.1014
28260W        W44069  10.541  15.479   2.298 -0.2636  0.0678  0.2194
28261W        W44070   5.385   8.491   0.213  0.3202 -0.1934 -0.0167
28262W        W44071  10.642  14.306  11.090  0.0169 -0.1607  0.3057
28263W        W44072   6.043  18.009  15.230 -0.3445 -0.1223 -0.0206
28264W        W44073   0.146   0.832   3.733  0.2079  0.1949  0.1417
28265W        W44074  10.329   4.656   1.495 -0.0422  0.0804  0.0625
28266W        W44075  11.108   6.594  10.905 -0.2478 -0.0158  0.0312
28267W        W44076  17.150  12.360  15.854  0.1995  0.0055  0.0362
28268W        W44077   4.076   2.083   5.410 -0.1440 -0.0762  0.1627
28269W        W44078  12.423   5.606  14.044 -0.2583  0.0864 -0.2525
28270W        W44079   6.467   5.608   3.046  0.2046  0.0453 -0.0888
28271W        W44080  15.662  10.150  15.375  0.1168  0.0171  0.1371
28272W        W44081   4.610  13.177  11.165 -0.0663  0.2075 -0.1159
28273W        W44082   4.713   0.867   4.601  0.2055 -0.0609  0.0835
28274W        W44083   3.290  15.441   1.093  0.0486  0.0315 -0.0325
28275W        W44084   4.227  15.627  13.093 -0.0960  0.0980  0.0785
28276W        W44085   1.759  15.049  11.765  0.1309 -0.0215  0.2676
28277W        W44086  11.492   5.200   0.169  0.3339  0.2507 -0.1357
28278W        W44087  17.401  18.147   5.113  0.2735  0.1509 -0.1218
28279W        W44088  11.426   8.170  14.790  0.0006  0.1147 -0.0300
28280W        W44089  16.096   8.529  14.035  0.3003 -0.0244 -0.1737
28281W        W44090  11.397   3.705   6.364  0.1070 -0.2699 -0.1197
28282W        W44091   4.903   2.096  10.749  0.0849  0.0466 -0.1715
28283W        W44092  10.399   3.283  12.856 -0.0499  0.0196  0.1368
28284W        W44093   0.944  12.939  13.963 -0.4158  0.0335  0.0408
28285W        W44094  12.963   8.311   5.803  0.2072 -0.1181  0.2258
28286W        W44095   4.107   5.599   4.381 -0.1125 -0.0087 -0.2333
28287W        W44096  17.751   5.020   3.672  0.1530 -0.2253 -0.1205
28288W        W44097  15.718   6.024  11.997  0.4696 -0.0396  0.2053
28289W        W44098   7.687   8.579  14.137 -0.1362  0.0982  0.1384
28290W        W44099   5.073   8.391   2.971 -0.0144 -0.0775 -0.2956
28291W        W44100   9.568   1.634  12.536  0.0681  0.1215  0.0575
28292W        W44101   3.288   6.750   4.877  0.0729 -0.0841 -0.2175
28293W        W44102  15.108   0.189  14.582  0.2667 -0.2534  0.1441
28294W        W44103   0.255  17.875  11.707  0.2599 -0.0394 -0.2812
28295W        W44104   5.410   4.885  14.550  0.1144 -0.1229  0.0241
28296W        W44105  11.224  17.573   2.227 -0.1051  0.1878  0.1471
28297W        W44106  10.098  17.054   9.968 -0.0177  0.0944  0.0488
28298W        W44107   9.753  14.639  11.118  0.1231  0.0256  0.1627
28299W        W44108   9.618  16.601   3.933  0.0216 -0.0767  0.0016
28300W        W44109   5.871   2.633  12.834 -0.3867  0.2461  0.1804
28301W        W44110   6.159   6.108   4.374  0.0314 -0.0005  0.1499
28302W        W44111   8.382   5.558   5.619  0.0843  0.1434  0.3029
28303W        W44112   2.073   4.946   4.137 -0.0918  0.1050 -0.1147
28304W        W44113  16.017   1.656  14.057  0.1081  0.2652  0.1664
28305W        W44114   3.962  16.435  11.492  0.1500 -0.2853  0.3506
28306W        W44115  11.338  11.203   1.051 -0.2033  0.0024 -0.1240
28307W        W44116   1.001  10.156   0.938  0.0489 -0.2790 -0.3825
28308W        W44117   6.767   8.198  10.712 -0.1440  0.2809  0.0350
28309W        W44118   2.862  15.104   5.806 -0.0155  0.3267 -0.1704
28310W        W44119  11.728  18.207   1.612  0.1738 -0.2166 -0.1200
28311W        W44120  13.604   4.338   5.236  0.1640 -0.0434  0.1600
28312W        W44121   8.024   8.174   4.304  0.0565 -0.3845 -0.1216
28313W        W44122   9.603   4.651  11.499  0.0363 -0.1802 -0.0528
28314W        W44123   7.067   2.935   2.962  0.0612  0.0129 -0.0532
28315W        W44124   8.805   5.682   1.787 -0.4939 -0.0336 -0.2025
28316W        W44125  15.066   4.687   3.887 -0.3110  0.0953 -0.0132
28317W        W44126   7.410   9.696   4.066 -0.0067 -0.0609 -0.0103
28318W        W44127  12.033   2.408   5.551  0.2988 -0.2367 -0.1043
28319W        W44128  14.468  15.334  15.677  0.0510  0.0143  0.2447
28320W        W44129  15.227   7.414  16.071  0.1953 -0.1469 -0.1189
28321W        W44130   8.241   1.342  15.101 -0.1406 -0.2794  0.1061
28322W        W44131   9.745  12.434   0.986 -0.1792  0.0327 -0.1346
28323W        W44132  14.284  13.036   0.964 -0.0563  0.0776 -0.3704
28324W        W44133  10.442  11.722  15.656 -0.1825  0.3056  0.0159
28325W        W44134  12.638   5.048  15.960  0.1131 -0.1339 -0.0735
28326W        W44135   3.305  14.492   1.294 -0.0711  0.0480 -0.1889
28327W        W44136   4.024   1.586  12.689 -0.0302 -0.2942 -0.0909
28328W        W44137  17.951   4.941  12.278 -0.0298  0.0506  0.0635
28329W        W44138   0.143  15.911  12.503 -0.0828  0.0549 -0.0198
28330W        W44139   9.944   6.557  10.476 -0.2049 -0.3603  0.2486
28331W        W44140   8.539  15.730   3.685  0.1202  0.0534  0.1475
28332W        W44141   6.751  13.305   1.562 -0.1735 -0.2139  0.2917
28333W        W44142   6.249  12.239   1.548 -0.0422  0.1801 -0.0820
28334W        W44143   5.597   7.015  12.509  0.0619 -0.2143 -0.0800
28335W        W44144  17.355   8.784  15.585  0.0328 -0.0909  0.1802
28336W        W44145   8.679   7.493  15.669  0.0999  0.1708 -0.2723
28337W        W44146  15.837   9.957   4.089  0.0855  0.0762  0.1471
28338W        W44147  10.066  11.426  13.284  0.2293 -0.0599 -0.1864
28339W        W44148  11.756  17.198   5.985  0.0290  0.1072  0.1203
28340W        W44149   5.339  12.796  14.529 -0.0413  0.2173  0.1832
28341W        W44150   0.491   9.451  13.084 -0.4883 -0.1946  0.1794
28342W        W44151   8.946   2.832  12.982  0.0692 -0.0053  0.0751
28343W        W44152   2.848  10.997  13.310 -0.0321  0.1888 -0.1284
28344W        W44153   2.699  17.617  12.521  0.1563  0.1430  0.1779
28345W        W44154  16.720  10.451   1.820  0.1880  0.0882  0.0607
28346W        W44155  18.058   1.255   4.686 -0.0542 -0.4156 -0.0536
28347W        W44156   3.281   4.934  15.554  0.1002 -0.0798  0.0475
28348W        W44157   4.697  12.209  12.899  0.1177  0.0866  0.2368
28349W        W44158  14.122  12.717  15.991  0.1064 -0.1258  0.0919
28350W        W44159  10.702   8.545  13.397  0.1319 -0.0701 -0.3173
28351W        W44160   2.769  15.147   2.394 -0.0807  0.0666  0.2567
28352W        W44161  17.194   2.795   3.670 -0.0713 -0.0728  0.1496
28353W        W44162  12.062  17.925  12.734 -0.4610  0.0873 -0.1010
28354W        W44163  11.417   3.112  15.509 -0.0156 -0.2553 -0.0390
28355W        W44164   3.877   6.827   3.673  0.0523  0.0966 -0.5120
28356W        W44165   6.260  11.257  15.189 -0.1879  0.1450  0.1156
28357W        W44166   5.571  13.774  12.685  0.0064 -0.2487  0.2102
28358W        W44167   0.057   5.571   4.095 -0.0336 -0.0596  0.1359
28359W        W44168  12.021   5.317   1.334  0.3544  0.1494  0.1228
28360W        W44169   2.411  15.673   1.037  0.0391  0.0152  0.1804
28361W        W44170  13.637   9.743  11.012 -0.0844 -0.2017  0.2325
28362W        W44171   1.248   5.090  14.618  0.0553 -0.2092 -0.0586
28363W        W44172  15.704   7.214   3.152  0.0899 -0.2929  0.0647
28364W        W44173   6.711   8.067   3.992 -0.0947 -0.0567  0.0005
28365W        W44174   7.363   4.351   2.877 -0.0858 -0.2039  0.1003
28366W        W44175   1.989  17.544   4.686  0.1595 -0.0037 -0.2797
28367W        W44176   1.880  13.277  15.943 -0.0648  0.0401  0.2490
28368W        W44177  14.587  16.771   5.312 -0.0743 -0.1241 -0.1115
28369W        W44178  13.886  13.211  12.615  0.2196 -0.1805 -0.0341
28370W        W44179  17.371  11.529   1.887 -0.0387  0.0233 -0.3605
28371W        W44180   0.260  14.833  13.821 -0.2525  0.0131  0.1537
28372W        W44181  13.144  16.855   0.800  0.3204  0.2133 -0.0419
28373W        W44182  16.353  10.470   1.525 -0.2358 -0.1045  0.2993
28374W        W44183  17.948   3.408   3.395 -0.1779 -0.4506 -0.0388
28375W        W44184  16.562  10.121  11.031  0.2382  0.0626 -0.4112
28376W        W44185  10.364  10.718   1.586  0.5734 -0.0883 -0.2111
28377W        W44186   8.108   7.827  10.586  0.1859  0.1364  0.0118
28378W        W44187   9.920  16.779  15.638  0.2332 -0.4906 -0.1126
28379W        W44188   9.537   1.481   4.974 -0.0040 -0.1452 -0.0041
28380W        W44189   0.249  16.819  12.848  0.1421 -0.3300 -0.2181
28381W        W44190  10.857  15.968   4.750  0.1349 -0.0209  0.0525
28382W        W44191   7.743  14.704   2.984  0.4191 -0.0425  0.3435
28383W        W44192  11.973  15.156   0.953 -0.0499  0.0517  0.2230
28384W        W44193  11.544   5.168   4.867 -0.2222 -0.1338  0.1297
28385W        W44194   7.433   9.938   4.499 -0.1126  0.2000 -0.2907
28386W        W44195  13.037   0.219  11.882 -0.0299  0.2239  0.0705
28387W        W44196   7.395  15.325   3.443 -0.2544  0.3167 -0.0195
28388W        W44197   5.736   6.008  11.231 -0.1864 -0.4592  0.1084
28389W        W44198  17.438  13.652   4.061 -0.0295  0.0844  0.1575
28390W        W44199  16.531  12.789   0.765  0.0313 -0.0026  0.1349
28391W        W44200   4.452  12.721   2.739 -0.0125  0.1411 -0.3323
28392W        W44201   0.129   2.062  11.977  0.0142  0.1073  0.2787
28393W        W44202   8.831   9.169  12.437  0.0548 -0.0208  0.1982
28394W        W44203   8.513  10.643  11.169 -0.3556  0.2412  0.1134
28395W        W44204  15.456   7.469   3.777  0.0241  0.0452 -0.4027
28396W        W44205  11.039   0.441  12.582 -0.3219 -0.1119 -0.1019
28397W        W44206  14.081   1.626   2.132  0.1536  0.0727  0.0589
28398W        W44207   3.340  10.595  14.067  0.1025  0.0050 -0.1334
28399W        W44208   3.703   9.891  10.604  0.0171  0.2426  0.1731
28400W        W44209  12.586   9.055   4.677  0.1059  0.2733 -0.0309
28401W        W44210   4.684   4.354  13.472 -0.0800  0.2906  0.3577
28402W        W44211  10.454   6.938   0.834  0.0470 -0.0073 -0.0425
28403W        W44212  11.013   1.077   4.611 -0.0622  0.0944  0.1713
28404W        W44213  18.192   5.454  15.361  0.0851 -0.1218 -0.2885
28405W        W44214  15.322  13.785  15.774  0.0513  0.4372 -0.5583
28406W        W44215  18.169   3.357  12.682  0.0854  0.0609 -0.0114
28407W        W44216  10.368   7.150  16.031 -0.2266 -0.2363  0.1403
28408W        W44217  11.773  14.421  11.669 -0.2117 -0.0201  0.0039
28409W        W44218   1.925  10.309   2.035  0.1221 -0.1553  0.1910
28410W        W44219  13.905   2.551  16.069  0.2692 -0.0449 -0.1909
28411W        W44220   1.074  13.194  13.299 -0.0835  0.2257  0.1318
28412W        W44221  12.330  15.627  10.105 -0.0991 -0.5269  0.1632
28413W        W44222   3.943  17.686  15.643 -0.1425 -0.4238  0.0183
28414W        W44223  11.209   3.675  15.440  0.0728  0.2952  0.5672
28415W        W44224  11.453   5.506   3.760  0.1012 -0.0114 -0.0917
28416W        W44225  10.018  17.069   2.749 -0.1434  0.0490 -0.1581
28417W        W44226  13.918  10.586  14.284  0.0129 -0.3280  0.0332
28418W        W44227   8.018   2.274   4.745 -0.0631  0.4382 -0.1421
28419W        W44228   9.965  17.924   2.478 -0.3669 -0.0848  0.2731
28420W        W44229   2.843   4.230   4.207  0.1167 -0.1097  0.1942
28421W        W44230  15.613  14.989  15.025  0.0334  0.0670 -0.1018
28422W        W44231   2.306   5.766  15.236  0.0714 -0.0586  0.0908
28423W        W44232  16.204   1.380  13.212  0.1709  0.0981 -0.2670
28424W        W44233   9.003  15.672   2.537  0.2456  0.0879  0.0536
28425W        W44234  15.672  12.723  15.054 -0.1426  0.1061 -0.1605
28426W        W44235   2.468  12.283  11.779 -0.1621  0.0915  0.1093
28427W        W44236  17.885   3.170  13.102  0.0648  0.3693 -0.3132
28428W        W44237   5.498   3.778  13.691 -0.3418  0.0963 -0.1936
28429W        W44238   0.444   4.584  14.318  0.0831 -0.1263 -0.3553
28430W        W44239  17.630   2.303   1.792  0.1860 -0.3898 -0.0407
28431W        W44240   0.275   4.102  14.401  0.0801  0.1621 -0.0159
28432W        W44241   6.001  16.269  14.006 -0.0864 -0.1435 -0.1772
28433W        W44242   5.044   7.377   4.061  0.0639  0.1515  0.0667
28434W        W44243   0.399  16.056  14.973 -0.0610 -0.4061  0.0064
28435W        W44244  17.640   8.157   0.964 -0.1286 -0.0388  0.2777
28436W        W44245  14.806   3.009  15.840  0.0626 -0.0648  0.0328
28437W        W44246   0.853   0.932  15.915 -0.0643 -0.2015  0.4951
28438W        W44247  14.190   2.045   2.374  0.2828 -0.2523  0.0935
28439W        W44248   6.264   1.432   5.135 -0.1238 -0.0917  0.0458
28440W        W44249   7.915   6.901  14.193  0.0229  0.4019 -0.2516
28441W        W44250   5.759  18.136  13.367  0.0707  0.0398 -0.0325
28442W        W44251   2.861  13.612   9.934  0.5539  0.5356 -0.2198
28443W        W44252  13.772   3.393   2.641 -0.0830 -0.0190 -0.2557
28444W        W44253   1.365  11.492   2.599  0.1292 -0.4950  0.1676
28445W        W44254   5.981   3.449  10.008  0.1294  0.2254 -0.3546
28446W        W44255  11.950   3.389  15.253  0.0665 -0.1239 -0.0042
28447W        W44256   6.210   2.692   1.597 -0.2071  0.1419 -0.1435
28448W        W44257  11.116  11.470  13.197  0.0612  0.2571 -0.0221
28449W        W44258  15.774   2.612   4.491 -0.0388 -0.0882 -0.1985
28450W        W44259   9.209  13.322  11.145 -0.1668 -0.0444  0.0661
28451W        W44260   9.488   7.216  14.136  0.2174 -0.3374  0.0710
28452W        W44261  17.882   1.347   5.556  0.2969 -0.1760  0.2085
28453W        W44262   4.329   0.628  13.158  0.5333 -0.2063 -0.1749
28454W        W44263  11.354   2.128  12.358 -0.3552  0.0050  0.1820
28455W        W44264  14.473  11.670  10.542 -0.0461 -0.1239 -0.1474
28456W        W44265  13.998   4.201  15.859 -0.2772  0.0602  0.1552
28457W        W44266   0.315   7.539   5.137 -0.0271  0.2606 -0.0361
28458W        W44267  15.642  10.560   9.768 -0.0133  0.0333  0.0484
28459W        W44268  15.859  16.432   4.392  0.0555  0.4834 -0.1343
28460W        W44269   2.130   7.459  12.841  0.1268 -0.0340 -0.1443
28461W        W44270  16.001  11.335   4.492 -0.0735 -0.1576  0.0035
28462W        W44271  13.444   0.544  15.728  0.1544  0.2214  0.3274
28463W        W44272  10.371   9.817  11.455 -0.3938  0.0797  0.1218
28464W        W44273  11.804   7.778  12.053 -0.0985  0.0524 -0.0008
28465W        W44274  12.820   0.830   3.030 -0.0306  0.2407 -0.2333
28466W        W44275   4.295   6.223  11.842 -0.1599  0.1020  0.1405
28467W        W44276  18.179   3.711   1.418  0.3054  0.0943 -0.2235
28468W        W44277   1.431  12.378  13.571 -0.0553  0.1876  0.1251
28469W        W44278  17.533  10.911  13.063 -0.0630 -0.1737  0.1317
28470W        W44279   7.391  11.170   2.020 -0.1923  0.0586  0.1868
28471W        W44280   9.537  10.956   2.472 -0.4283  0.3190  0.1656
28472W        W44281  12.625  14.435  12.101 -0.0787 -0.2989 -0.0969
28473W        W44282   5.794   8.400  15.807  0.1267 -0.1013 -0.4642
28474W        W44283   2.295  16.497  12.009  0.0421 -0.3249  0.0845
28475W        W44284  10.755  11.666  10.724  0.1665  0.2558  0.0673
28476W        W44285   4.499  16.268   1.802  0.0358 -0.0113  0.2285
28477W        W44286  15.301  15.502   5.223  0.2052  0.0269  0.3823
28478W        W44287  11.256  15.013   2.486  0.1875 -0.1510 -0.2240
28479W        W44288  13.200  16.598  14.681  0.0614 -0.1239 -0.0124
28480W        W44289  17.103  13.807   3.548 -0.1830 -0.1043 -0.0030
28481W        W44290   4.951   8.332  15.993  0.2100 -0.0913 -0.0791
28482W        W44291   4.990   3.159  15.676  0.0081  0.1650 -0.4774
28483W        W44292   8.444   2.529   0.699 -0.1442 -0.1616  0.2994
28484W        W44293   1.109   0.274   5.958  0.2641 -0.0834  0.0607
28485W        W44294   1.653   5.080  14.994 -0.2202 -0.1076 -0.0029
28486W        W44295  14.770   7.415   0.323  0.3506  0.1175 -0.1078
28487W        W44296  13.209  18.031  12.153 -0.0373 -0.1534  0.1045
28488W        W44297   0.076   0.837  13.219  0.1504 -0.0371  0.1299
28489W        W44298   8.127  13.783   5.277 -0.1618 -0.0564  0.1026
28490W        W44299   8.758   0.550   0.298 -0.0258  0.2154 -0.1105
28491W        W44300  15.713  14.228   5.210 -0.3139 -0.1207 -0.2072
28492W        W44301  16.809   9.900  11.431  0.3504  0.1889  0.0715
28493W        W44302  18.077   6.603   1.118 -0.1054  0.3058 -0.0880
28494W        W44303   3.518   5.707  13.854 -0.3160  0.1623 -0.1136
28495W        W44304  12.929   2.594  13.047 -0.3317 -0.0524 -0.0369
28496W        W44305   4.214   5.309  14.618  0.2891  0.1664 -0.0814
28497W        W44306  14.391   4.735  13.469 -0.0674 -0.2955 -0.0623
28498W        W44307   5.642   5.099   0.128  0.1639 -0.0246  0.1936
28499W        W44308   3.797  17.091   0.760 -0.0933  0.0886  0.1279
28500W        W44309  14.940   4.487  13.534 -0.2482 -0.1464  0.3798
28501W        W44310   7.895  11.164  15.987  0.0130  0.1962  0.0617
28502W        W44311  18.251  13.498  13.110  0.1575 -0.0412  0.2058
28503W        W44312  14.405   6.326  13.451 -0.1937  0.1651  0.0062
28504W        W44313   2.852   2.250   0.512  0.0088 -0.0831 -0.0088
28505W        W44314   8.738   6.568   2.521 -0.1036 -0.1336  0.0393
28506W        W44315  16.296   7.296   2.263 -0.0269 -0.1438 -0.1080
28507W        W44316  13.640   0.628   5.133  0.0592  0.0200 -0.2022
28508W        W44317  16.201  16.616  12.661 -0.0893 -0.1466  0.1406
28509W        W44318   7.169  14.623   5.636 -0.2329 -0.4043  0.1834
28510W        W44319  16.135   4.130   0.945  0.1278  0.0455 -0.2719
28511W        W44320   4.439  16.581  14.300  0.0182  0.1408  0.0089
28512W        W44321  10.134  14.230  13.945 -0.0949  0.0741  0.1471
28513W        W44322  16.392  10.990  10.972  0.1198  0.1199 -0.0830
28514W        W44323   3.091  13.584   4.692 -0.0893  0.0178  0.0802
28515W        W44324  14.412   6.968   1.160 -0.5123 -0.0286 -0.3180
28516W        W44325  15.168   1.306   4.095 -0.2218 -0.0530  0.0618
28517W        W44326   1.770   6.557   2.297  0.1093 -0.2152  0.0980
28518W        W44327  18.236  13.997   3.571  0.1853  0.2222  0.1441
28519W        W44328  15.724   4.424   1.112 -0.1216  0.0477  0.1496
28520W        W44329   6.406  11.127  14.644 -0.1907 -0.0418  0.1422
28521W        W44330  11.504   8.572   4.592 -0.4830 -0.0054  0.0544
28522W        W44331  14.393   0.296  15.065 -0.2634  0.0857  0.1104
28523W        W44332   1.170   8.231  15.857 -0.2225 -0.0465 -0.0827
28524W        W44333   8.584  10.533   2.375 -0.0070 -0.5420 -0.1101
28525W        W44334  17.923   5.990  13.473  0.2775  0.0941 -0.0657
28526W        W44335   1.208   6.649   3.324  0.0328 -0.3533 -0.0067
28527W        W44336  16.649   4.745   4.090  0.3450 -0.1684  0.0694
28528W        W44337   3.171   8.891  14.106  0.1798 -0.0401  0.3211
28529W        W44338   8.732  10.617  11.993 -0.0524 -0.0136 -0.2383
28530W        W44339   3.313   1.335   0.191 -0.2070 -0.0978 -0.1637
28531W        W44340   7.881   3.979   0.398 -0.0482 -0.2595 -0.2086
28532W        W44341   1.809  13.316   0.355  0.1379 -0.0035  0.0772
28533W        W44342   7.937  14.925   0.446 -0.0079 -0.0095  0.2694
28534W        W44343  17.117   7.474  13.863  0.0559  0.0951 -0.1695
28535W        W44344  12.748  11.828   2.751  0.0679 -0.0720 -0.2770
28536W        W44345   9.681  11.509   4.962  0.1550 -0.1902 -0.0577
28537W        W44346  16.463  18.098  13.561  0.2268  0.0133  0.1101
28538W        W44347   6.791  10.286  15.980  0.0692  0.2276  0.0347
28539W        W44348  14.658   2.046  12.699  0.4591  0.1787  0.3160
28540W        W44349  13.183  11.548   4.817  0.0916 -0.0328 -0.1317
28541W        W44350  17.801   1.524   2.603 -0.2867  0.3895 -0.1193
28542W        W44351  12.351  12.297   0.115 -0.1708  0.1924 -0.0548
28543W        W44352   3.557  16.145  14.049 -0.1115 -0.0611  0.0113
28544W        W44353  14.892  14.023   2.747 -0.3054  0.0311 -0.0516
28545W        W44354  10.812  17.794  14.736  0.0713 -0.3879  0.0052
28546W        W44355   5.182   3.461  14.088 -0.2854  0.0863 -0.1802
28547W        W44356  13.449   8.833   2.099 -0.0290 -0.3935  0.1622
28548W        W44357  17.065   5.664   0.642 -0.0498  0.1050  0.2456
28549W        W44358   7.644   0.007   0.004  0.0105  0.2807 -0.0742
28550W        W44359   0.334  16.210  13.933 -0.1921 -0.0213  0.2764
28551W        W44360  17.881  18.229   0.115  0.2622  0.0276  0.0631
28552W        W44361   7.101  12.771   0.450 -0.1773  0.0944 -0.0523
28553W        W44362   7.889   9.985   5.408 -0.0405 -0.0611 -0.0926
28554W        W44363   8.333   9.071  12.344 -0.0934 -0.2321  0.3254
28555W        W44364   5.023   2.202   5.180  0.0889  0.0220  0.0474
28556W        W44365   0.227  15.762   1.175 -0.0653  0.0923  0.1069
28557W        W44366  15.101  14.716   0.829 -0.2792  0.1797 -0.0784
28558W        W44367   6.435   5.472   1.564 -0.0281  0.1685 -0.1635
28559W        W44368  13.015   3.785   4.100 -0.2298 -0.1036 -0.1209
28560W        W44369   0.937   0.509   1.366 -0.2256  0.2484 -0.0384
28561W        W44370   6.078   4.227   1.925 -0.0861  0.1802 -0.0046
28562W        W44371  16.053   8.666   3.671  0.0609  0.1149 -0.0542
28563W        W44372   9.168   7.486   2.789 -0.1623 -0.0005  0.1953
28564W        W44373   6.558  14.462  13.734  0.1251 -0.2236 -0.0511
28565W        W44374   0.854   9.286   4.904 -0.1551  0.0988 -0.0277
28566W        W44375  11.978   5.712   3.047  0.1734  0.3066 -0.1129
28567W        W44376  17.587   6.373  13.631  0.1907 -0.0367  0.5573
28568W        W44377   1.823   9.148   4.315 -0.1034 -0.2609 -0.0235
28569W        W44378   3.362  17.229  15.257 -0.2152  0.2746  0.1112
28570W        W44379   0.762   9.107   0.956 -0.0141  0.1070 -0.2833
28571W        W44380   9.887   2.932   4.130  0.2104 -0.1336 -0.1577
28572W        W44381   8.209  16.173  13.634 -0.0465  0.2533 -0.1687
28573W        W44382   0.931   4.072   2.989 -0.1837 -0.3147  0.0805
28574W        W44383   3.195   7.380  10.964 -0.0002 -0.0586 -0.0293
28575W        W44384   1.272   2.893   2.844 -0.1682 -0.2041 -0.1234
28576W        W44385   2.127  11.044  13.880  0.1867  0.1541 -0.1875
28577W        W44386  15.526   1.685  13.925  0.1394  0.0264 -0.1299
28578W        W44387  13.240  15.895   0.559 -0.1112  0.0803 -0.0066
28579W        W44388  11.354   0.080   1.904 -0.0131  0.0148  0.0107
28580W        W44389   3.333  14.075  14.684  0.1280 -0.1263  0.1268
28581W        W44390   8.625   4.355  11.795  0.1596  0.2371 -0.0565
28582W        W44391  12.799   4.311   1.588 -0.2152  0.0251  0.1100
28583W        W44392  12.467  15.565   0.365  0.2219 -0.0415 -0.0099
28584W        W44393  10.951  10.717  14.141  0.0413 -0.0548 -0.0709
28585W        W44394   1.374   6.538  14.863  0.0983 -0.1763  0.2994
28586W        W44395   7.530  18.257  12.805  0.0618 -0.0850  0.0417
28587W        W44396  16.081  11.305  15.085 -0.0288 -0.0797 -0.0626
28588W        W44397  16.122   1.064  12.028 -0.0406 -0.0070  0.2394
28589W        W44398  13.235  12.908   3.222  0.2349  0.0324 -0.0656
28590W        W44399  15.556   8.924  13.825 -0.1024 -0.0712  0.0957
28591W        W44400   9.343  10.212  11.043 -0.0874 -0.1386 -0.4102
28592W        W44401   0.847  10.875   4.774 -0.1443  0.1373  0.0832
28593W        W44402   7.522   3.812  11.513  0.2249  0.1127 -0.1352
28594W        W44403  17.709   1.580  14.119  0.1516  0.3044 -0.3016
28595W        W44404   6.699   8.266  13.425  0.0371  0.3544 -0.0324
28596W        W44405  17.011   6.468  14.173 -0.0945 -0.0091 -0.4057
28597W        W44406   7.205  17.286  14.669 -0.1699 -0.1227 -0.1106
28598W        W44407  15.044  15.045   4.091 -0.0163  0.1638 -0.1225
28599W        W44408   9.539   4.932  13.926  0.1424 -0.1937 -0.3051
28600W        W44409  16.256   7.212  14.576 -0.0437 -0.0770 -0.1438
28601W        W44410  12.485   4.090   4.455 -0.0699 -0.0496 -0.1454
28602W        W44411  15.285   7.437   3.300  0.2454 -0.0456 -0.2645
28603W        W44412   9.059   9.261  11.947 -0.0729 -0.0762  0.1394
28604W        W44413   2.243  10.340  13.769 -0.0513  0.0947 -0.3853
28605W        W44414   5.376  15.637   5.243  0.4179 -0.0006  0.0795
28606W        W44415  15.556   2.881  14.457 -0.0079  0.2133 -0.0191
28607W        W44416   2.001  11.585  11.221 -0.0133  0.0542 -0.2284
28608W        W44417  17.891   0.699   1.637  0.2897  0.1618  0.2417
28609W        W44418   0.476  13.120   1.046 -0.2629  0.1298  0.0552
28610W        W44419   7.688  17.300  12.275 -0.0506 -0.0047 -0.3978
28611W        W44420  15.095   1.277   2.140  0.0968  0.4775  0.3202
28612W        W44421   8.013   4.864   3.157 -0.1050 -0.0890 -0.2753
28613W        W44422  15.201   5.819   3.094  0.2702 -0.2990 -0.1377
28614W        W44423   5.656   0.767   4.733  0.0966  0.0139 -0.0358
28615W        W44424  15.366   4.700  15.911 -0.1533  0.1531 -0.0433
28616W        W44425  13.013  10.355   2.812 -0.2389 -0.1479  0.4402
28617W        W44426  17.877  12.799   4.346 -0.0746 -0.2709  0.3595
28618W        W44427  14.759  10.101   0.665 -0.1643  0.0263 -0.1418
28619W        W44428   7.489  12.129  15.056 -0.0157 -0.0020  0.2602
28620W        W44429  15.553   2.879   0.911 -0.3022 -0.0061 -0.1033
28621W        W44430   2.845  10.929  15.557  0.0311  0.1768 -0.2094
28622W        W44431   5.125  11.529  11.278 -0.0169  0.3115  0.0597
28623W        W44432   9.746  12.664  13.107  0.0351 -0.0054  0.2099
28624W        W44433   2.310  15.254   4.383  0.1430  0.0388  0.1644
28625W        W44434   6.933  12.989   1.917  0.2708  0.3210  0.0369
28626W        W44435   8.810   5.179  14.547  0.0023  0.0934  0.4444
28627W        W44436   7.248   2.779  13.135  0.2498 -0.1552 -0.0895
28628W        W44437   8.635  15.152   4.422  0.0267  0.3425  0.0238
28629W        W44438   4.785   3.759  14.165  0.2103 -0.1546 -0.2658
28630W        W44439   8.720   4.450   0.016 -0.2354 -0.2354 -0.0272
28631W        W44440  14.806  13.636   0.400 -0.0660 -0.2821  0.1212
28632W        W44441   1.251   3.649  13.322 -0.0653  0.0417 -0.0108
28633W        W44442  16.585  10.443  13.044 -0.1364  0.0593  0.0041
28634W        W44443   1.826   2.842  15.578  0.1135  0.0856 -0.0947
28635W        W44444   5.844  17.245   4.926  0.0815  0.1594  0.0897
28636W        W44445   4.445  13.875  13.057 -0.1529  0.1218 -0.0827
28637W        W44446   1.809  18.236  14.450  0.3595  0.1024  0.0346
28638W        W44447   8.439   7.446  13.170 -0.2171  0.0269 -0.1003
28639W        W44448   4.587  15.947   4.386 -0.0905  0.0352  0.2733
28640W        W44449   3.181  17.831  14.230 -0.2312 -0.1657 -0.0615
28641W        W44450   9.123   9.260   4.999 -0.0307 -0.2403 -0.0223
28642W        W44451  13.405  13.532   1.905  0.0437  0.0040 -0.2904
28643W        W44452   4.452  16.649  12.442  0.1050  0.0495  0.0973
28644W        W44453  16.165   4.199   3.554 -0.0739 -0.3102  0.0943
28645W        W44454  14.133   9.093  13.260 -0.2213  0.3128  0.1200
28646W        W44455  12.338  18.104   4.875 -0.2720 -0.3334  0.0651
28647W        W44456   8.277   2.635   5.265  0.2814  0.0419 -0.0102
28648W        W44457   4.793   7.052  14.851  0.0811 -0.4189  0.0418
28649W        W44458   6.378   6.598  11.406 -0.0041 -0.1878 -0.5205
28650W        W44459   5.652  12.904   5.010  0.3028 -0.1023  0.0772
28651W        W44460   1.849  10.142   3.766  0.1843 -0.3323 -0.1624
28652W        W44461  13.358  12.948   2.694  0.1542 -0.1108  0.0061
28653W        W44462   1.718   4.771  12.398  0.2649 -0.0031  0.0524
28654W        W44463  12.060   9.246   1.279  0.1171 -0.2524 -0.0516
28655W        W44464   7.715   8.458  11.913 -0.0354 -0.1501  0.0734
28656W        W44465  15.947   5.932   0.012 -0.1424 -0.0083  0.1599
28657W        W44466   8.292  13.815   1.515  0.0271  0.0811 -0.2184
28658W        W44467   6.395  14.852  15.720 -0.2592  0.0313  0.0605
28659W        W44468  11.927   0.381  14.537 -0.1596  0.1607  0.5155
28660W        W44469  12.438   2.403   5.169 -0.1998 -0.2252  0.2388
28661W        W44470  11.902   5.446  14.856  0.5214 -0.3310  0.0567
28662W        W44471   7.406  15.639   0.767  0.0178 -0.2417 -0.0726
28663W        W44472  15.581   8.089  11.865 -0.1539 -0.0394  0.0045
28664W        W44473  11.565   6.763  11.229 -0.1152  0.2586  0.0939
28665W        W44474  11.594   8.818   1.176  0.0568  0.0842  0.2994
28666W        W44475   0.753   5.229   2.011 -0.1093 -0.1068 -0.0489
28667W        W44476  14.451   8.240  14.621 -0.0165 -0.1582 -0.1633
28668W        W44477   7.662  16.447  15.591  0.3363 -0.2279  0.3500
28669W        W44478  12.543  14.599   2.146  0.0965 -0.1981  0.3424
28670W        W44479   4.557  18.135  15.009 -0.2659  0.2436  0.1936
28671W        W44480   7.839  14.153   3.068 -0.0201  0.1775 -0.1211
28672W        W44481  13.104   2.863   4.175  0.3415 -0.0031  0.2034
28673W        W44482   2.024   5.463  13.182 -0.3634 -0.1043 -0.0808
28674W        W44483  13.571   9.276  12.163 -0.0971 -0.0573 -0.1889
28675W        W44484   3.769   8.776   2.297 -0.1655  0.0556  0.0253
28676W        W44485  17.497  15.841   0.290  0.0016 -0.2254 -0.2461
28677W        W44486  10.744  14.796  12.904  0.2985  0.3418  0.1582
28678W        W44487   8.852  12.091   1.380  0.2667  0.0816 -0.2628
28679W        W44488  12.532   1.707   4.563  0.1280 -0.1319  0.1713
28680W        W44489   9.839  11.289   0.860  0.1351 -0.0085  0.1616
28681W        W44490  16.790  17.615   0.536 -0.1513  0.0935  0.0844
28682W        W44491  14.582  17.304   5.875  0.0658 -0.0207 -0.1139
28683W        W44492  14.186   0.027   2.053 -0.0019  0.3398 -0.0895
28684W        W44493   4.732  13.072   1.558 -0.3558 -0.1306 -0.2402
28685W        W44494  12.985   7.528  15.111  0.3101 -0.0277  0.1916
28686W        W44495   1.343  10.175  13.327  0.3428 -0.1051  0.1445
28687W        W44496   1.841   8.331  13.054 -0.2192  0.1755 -0.2807
28688W        W44497   7.535   2.649   0.252 -0.1975 -0.2883  0.0036
28689W        W44498  15.138   5.217   2.556  0.0294  0.0416  0.0061
28690W        W44499   3.293  17.809   4.733  0.1260  0.1837 -0.0605
28691W        W44500   9.581   3.168   4.777  0.0252 -0.0829  0.0765
28692W        W44501   1.491  16.438  14.564 -0.1342 -0.2644 -0.2644
28693W        W44502   3.810  14.202  12.169 -0.2680  0.0141  0.1859
28694W        W44503  16.441   6.136   3.204  0.2382 -0.0515  0.1734
28695W        W44504  12.062   7.131   4.606  0.2315  0.1305 -0.1541
28696W        W44505   6.142  18.047  11.408 -0.0163 -0.1442 -0.0044
28697W        W44506   0.513  16.508  14.835 -0.1099  0.0806  0.1129
28698W        W44507   4.430   7.876  12.419 -0.2650  0.0547 -0.0588
28699W        W44508   3.267   5.336  15.842 -0.0402 -0.0484 -0.2470
28700W        W44509  11.868  15.706  12.339 -0.1727 -0.0061 -0.1585
28701W        W44510   2.895  12.572  15.978 -0.3302  0.2724 -0.1225
28702W        W44511   8.386  13.269  11.427 -0.4121  0.0928 -0.0449
28703W        W44512  12.765  12.742  11.255 -0.1121 -0.2361  0.2264
28704W        W44513   6.780  10.052   5.056  0.0226  0.1499  0.1009
28705W        W44514  12.617  10.262   1.186 -0.1144 -0.1113  0.2190
28706W        W44515   0.334  15.176   3.570  0.2565  0.0961 -0.1478
28707W        W44516  14.542   0.786   0.253 -0.0910  0.1674  0.0223
28708W        W44517  14.243   0.654  14.624 -0.3182 -0.0260 -0.3877
28709W        W44518   9.995   4.957  12.398  0.2556  0.1213  0.2144
28710W        W44519   6.637  15.997   1.528 -0.2835  0.0390 -0.1054
28711W        W44520   1.676   0.520  11.740  0.3476 -0.1919  0.1274
28712W        W44521  12.262  12.075  13.395  0.2574 -0.1203 -0.0782
28713W        W44522  17.723   7.614   1.846 -0.4064 -0.0716  0.0808
28714W        W44523  15.760  17.840  15.923 -0.2498 -0.3602 -0.2122
28715W        W44524   6.205   4.423   0.314  0.0429  0.4083 -0.1705
28716W        W44525   5.582   5.719   1.353  0.1351 -0.0273 -0.1897
28717W        W44526  16.282   1.535  14.456 -0.1961 -0.0463  0.0237
28718W        W44527   8.652  15.321   2.337 -0.0140  0.1216  0.0668
28719W        W44528  15.747   0.406   1.640  0.0666 -0.0134  0.1769
28720W        W44529  16.325  14.927   1.830  0.0658 -0.2311  0.1481
28721W        W44530   2.069   1.181  10.436 -0.1256 -0.0927  0.1720
28722W        W44531   1.095  10.683  10.928  0.2266 -0.2226  0.3689
28723W        W44532   7.298   3.673  14.773  0.0294 -0.2713 -0.1386
28724W        W44533  11.972  11.496  14.775 -0.3902  0.0031  0.3692
28725W        W44534  14.739  13.205   1.294  0.0466 -0.0925  0.0763
28726W        W44535  13.761   9.087   0.681  0.0776  0.1009 -0.0376
28727W        W44536   3.055  13.764   5.225 -0.2297 -0.0604  0.1162
28728W        W44537  13.273   8.581  11.404 -0.1929  0.0883  0.0156
28729W        W44538   8.427   7.944   4.157  0.1778 -0.1476 -0.2651
28730W        W44539   5.248  16.396   0.534 -0.1227 -0.1850  0.5047
28731W        W44540   8.603   1.881   5.563  0.1135  0.1280  0.4129
28732W        W44541  16.345   6.232  14.013  0.1156  0.0523  0.1287
28733W        W44542   2.811   5.775   0.499  0.0071  0.1089  0.2026
28734W        W44543   2.927  14.633   4.084  0.0886  0.0809 -0.2078
28735W        W44544  15.752  12.591   5.014 -0.0769 -0.1812 -0.1431
28736W        W44545  11.179   3.970  12.815 -0.1304  0.0827 -0.0534
28737W        W44546  14.950   8.382   4.434  0.1402 -0.2732 -0.0489
28738W        W44547  16.918   7.959  12.864 -0.0735 -0.1545  0.0420
28739W        W44548  17.571  14.556   0.502  0.0328  0.0981  0.1783
28740W        W44549  12.758  11.826  15.150  0.0698  0.0943  0.0742
28741W        W44550   5.030  13.531   3.769  0.1124  0.0187  0.1214
28742W        W44551   1.710  15.964   2.456  0.0013 -0.1983  0.1401
28743W        W44552  13.837  14.148   4.341  0.1697 -0.0849 -0.0271
28744W        W44553  13.997   4.541  13.157 -0.0728  0.1764 -0.0174
28745W        W44554  15.215  15.764  14.656 -0.0656 -0.2484 -0.2126
28746W        W44555   9.239   3.942  14.324  0.2586 -0.1816  0.0593
28747W        W44556  13.827   7.539   1.661  0.1429  0.0960  0.2146
28748W        W44557   6.104  16.758   0.483  0.0563 -0.3242 -0.1597
28749W        W44558  10.358  14.439  15.175  0.1181  0.0888 -0.1856
28750W        W44559   9.821   4.437   4.365  0.0372  0.1320  0.1154
28751W        W44560  13.120  11.764   0.578 -0.1315  0.4429  0.0215
28752W        W44561  10.601   4.796   3.868 -0.2396  0.0013  0.0561
28753W        W44562  12.248   7.315   3.761  0.1815 -0.2151 -0.0454
28754W        W44563   7.989   0.123   1.361  0.2979 -0.1273  0.0830
28755W        W44564  10.898   8.615   0.634 -0.1290  0.5200  0.0569
28756W        W44565  17.314  10.563   3.228 -0.1284  0.0428  0.0932
28757W        W44566   3.057   2.026  14.824 -0.0893 -0.1301 -0.2554
28758W        W44567  15.344   4.315  13.346 -0.2521 -0.0856 -0.4249
28759W        W44568  15.341   5.765   5.170  0.4910 -0.0553  0.0447
28760W        W44569   5.203  17.997   5.685 -0.2313 -0.0747  0.2325
28761W        W44570   0.381   7.518  15.104  0.3446  0.2349 -0.1183
28762W        W44571  12.861  10.338   1.657  0.2254 -0.1591  0.1794
28763W        W44572   8.818  15.666  11.919 -0.3536 -0.0876  0.1352
28764W        W44573   4.432   3.570  12.934  0.2152  0.0330 -0.0306
28765W        W44574  11.806  14.309   3.901  0.1539 -0.1834 -0.0444
28766W        W44575   2.867   9.484   4.591  0.1938 -0.1380  0.2377
28767W        W44576   3.458  12.277  13.723 -0.0697  0.2874 -0.4309
28768W        W44577  13.147  17.516   5.028 -0.2271 -0.1382 -0.1414
28769W        W44578   4.067  11.368   4.837 -0.0608 -0.0447  0.2280
28770W        W44579   0.577  10.076   2.575 -0.0867  0.0158 -0.0377
28771W        W44580   9.105  14.650   0.938 -0.0885  0.1546  0.0905
28772W        W44581  17.455  15.364  11.282  0.0492 -0.1183 -0.2128
28773W        W44582  14.489  14.167   4.357 -0.0408 -0.0971  0.1168
28774W        W44583  15.608  13.290   0.228  0.1100 -0.2130  0.2127
28775W        W44584  17.629   8.680   2.139 -0.2311 -0.1495 -0.0611
28776W        W44585   6.668  17.325   3.387  0.3354  0.1880 -0.1270
28777W        W44586   7.614  10.338  13.716 -0.0387  0.0990  0.1262
28778W        W44587   4.783   0.898   1.573 -0.2320 -0.0698  0.1936
28779W        W44588  13.914   4.773  13.700 -0.2219  0.1356  0.2086
28780W        W44589   4.891  12.502   3.655  0.0548  0.0398  0.0879
28781W        W44590   5.273   0.097  14.784  0.2549  0.2061 -0.2495
28782W        W44591   8.402   5.755   4.257 -0.0989 -0.4055 -0.0575
28783W        W44592   7.975   5.233  13.024 -0.0704  0.0759 -0.0198
28784W        W44593  13.390  18.126  14.070 -0.1886 -0.1012 -0.2011
28785W        W44594  17.634   5.141   4.786  0.3599  0.1052 -0.1695
28786W        W44595   8.890  13.191   5.066 -0.0163  0.1736 -0.0595
28787W        W44596   1.356  16.166   5.234  0.2457  0.0070  0.0790
28788W        W44597   4.896  12.033  12.509  0.3613 -0.0736  0.1132
28789W        W44598   7.583  14.508   6.424 -0.0528 -0.1108  0.0538
28790W        W44599   7.791   4.147   3.777 -0.2100 -0.1411  0.3130
28791W        W44600  15.645   1.403   4.212 -0.1864  0.2081 -0.0063
28792W        W44601  11.573  17.447   4.334  0.2695  0.1398 -0.0410
28793W        W44602   8.428  14.491  13.996  0.0735  0.1588  0.0747
28794W        W44603  17.957  11.318  13.427 -0.2321  0.0411  0.0190
28795W        W44604  11.349   3.834   2.140 -0.0841  0.1571  0.2154
28796W        W44605   4.126  10.310   5.014 -0.0527 -0.0228 -0.0723
28797W        W44606   2.455  18.069   3.415  0.3778 -0.1638  0.0855
28798W        W44607   9.212   3.712  11.382  0.0387  0.0123  0.2235
28799W        W44608   8.122  14.574  15.012 -0.0552  0.4262  0.0062
28800W        W44609   1.638  11.151  11.063 -0.0121  0.0427  0.1253
28801W        W44610   9.541   4.696  15.154  0.1422  0.1690  0.0626
28802W        W44611  13.897   9.639  11.425 -0.0697 -0.1800 -0.3189
28803W        W44612   2.498   3.016  11.982 -0.0822 -0.0399  0.2306
28804W        W44613   4.352  10.958   4.917 -0.0056  0.3969  0.1621
28805W        W44614   9.714   6.756  13.184  0.1891  0.0517 -0.2556
28806W        W44615  14.733   6.512   0.408  0.2141  0.1122 -0.1245
28807W        W44616  15.504  13.346  10.247 -0.2360 -0.1062 -0.1372
28808W        W44617  17.290   8.167   4.967  0.2006 -0.1260 -0.3188
28809W        W44618   6.134  17.370  10.725  0.2673 -0.0806  0.1537
28810W        W44619  16.780  14.827   3.407 -0.1970  0.1769  0.1805
28811W        W44620   8.758   7.818  14.041  0.2208 -0.1398  0.0557
28812W        W44621   1.258  10.078   4.363 -0.0624  0.2278  0.0466
28813W        W44622  15.924  12.420   0.248  0.1425  0.0917  0.2818
28814W        W44623  15.460  17.644   4.508  0.0039  0.3236 -0.0828
28815W        W44624   8.007  14.768   4.889  0.0760  0.1626 -0.0861
28816W        W44625   0.954   9.538  12.298  0.0517  0.1842 -0.0620
28817W        W44626   5.191   5.892  14.131 -0.2896  0.0498  0.0742
28818W        W44627  11.703   7.547   0.744 -0.1919  0.0992  0.0928
28819W        W44628  12.009  10.616   4.617 -0.1988 -0.1434 -0.1347
28820W        W44629  12.468  14.471  13.199 -0.1148 -0.1026 -0.0888
28821W        W44630  12.805  16.324  16.017 -0.0595 -0.2664  0.0651
28822W        W44631   0.821  18.268   5.444  0.0112  0.1314  0.0610
28823W        W44632  15.388  14.608  13.454  0.0192  0.2128  0.2946
28824W        W44633   3.962  11.965  13.911  0.0048 -0.0695  0.1098
28825W        W44634   8.968  11.045  14.589 -0.0439  0.1036  0.1449
28826W        W44635  10.217  11.897  14.786 -0.2199 -0.0753  0.3025
28827W        W44636   4.731   2.232  13.102 -0.2174 -0.1987 -0.1397
28828W        W44637   4.655   5.120   9.903  0.0745 -0.0999 -0.0269
28829W        W44638   3.671  14.191  14.135 -0.0748  0.2476  0.1619
28830W        W44639   9.825  10.599  12.017  0.0637 -0.0949  0.0779
28831W        W44640   1.701   2.155   3.143  0.1107 -0.1613  0.1805
28832W        W44641  17.864  13.804   3.863  0.2459  0.2534  0.0638
28833W        W44642   1.725  14.100  15.809 -0.4304 -0.0133 -0.1910
28834W        W44643  14.051  17.118  13.994  0.0372 -0.0838 -0.1917
28835W        W44644   8.556  11.136   1.530 -0.0539 -0.1919  0.0147
28836W        W44645  12.966   2.844  14.431  0.0889 -0.0635  0.1801
28837W        W44646  13.551   0.630  12.546  0.2871  0.1939  0.0907
28838W        W44647   6.257   8.976   2.526  0.2266  0.1756  0.0254
28839W        W44648   3.643  14.471   6.176 -0.0632 -0.0420  0.1144
28840W        W44649  16.929   4.135   5.845  0.2557 -0.2451 -0.0502
28841W        W44650  11.511   3.333   2.050 -0.3611 -0.2739  0.2294
28842W        W44651  14.544  10.863  12.407 -0.1789  0.0282  0.0943
28843W        W44652   4.261   8.395  11.356  0.0701 -0.0352  0.1617
28844W        W44653   8.774  17.896   0.669 -0.0817 -0.3607  0.0673
28845W        W44654   5.434   2.881  13.031 -0.0980  0.1066  0.0771
28846W        W44655   6.403  15.970  14.607 -0.3256 -0.0385 -0.0568
28847W        W44656   8.020  17.785   5.711  0.2480  0.1498  0.0489
28848W        W44657  11.174  13.322   4.439 -0.2321 -0.0516  0.2123
28849W        W44658   8.977  10.605   0.762 -0.0330  0.1532 -0.1216
28850W        W44659   7.852   4.965  14.334 -0.0082 -0.1914  0.2256
28851W        W44660   5.949   1.660   2.385 -0.1132 -0.1818 -0.1261
28852W        W44661  15.882   4.096  14.234 -0.4603  0.1711 -0.2902
28853W        W44662  16.798   6.244   0.054  0.0559 -0.0053  0.0331
28854W        W44663   9.581  10.648  15.281  0.0901  0.1410  0.3470
28855W        W44664  13.821   1.038  15.003 -0.0305 -0.0700 -0.2561
28856W        W44665  10.672  13.977   1.954  0.1174  0.1130  0.1062
28857W        W44666  16.391  16.171   4.558  0.2325 -0.2227  0.4566
28858W        W44667   4.849   5.240   3.664  0.1349  0.1205 -0.0820
28859W        W44668   5.234  16.428  13.625 -0.0061 -0.0464 -0.1718
28860W        W44669  10.839   6.117  13.921 -0.1463  0.0976  0.0212
28861W        W44670  11.023   2.260  11.973 -0.0861 -0.3323 -0.0902
28862W        W44671   0.697   8.202  14.565  0.1465  0.5043  0.0747
28863W        W44672   9.019   1.684  12.256  0.0822 -0.0676  0.1654
28864W        W44673  13.209   5.456  14.481 -0.3486  0.0641 -0.1512
28865W        W44674  18.131  12.192   2.036  0.1242  0.1319  0.3304
28866W        W44675   6.193   9.891   2.472  0.2729 -0.2826 -0.4515
28867W        W44676  10.253  14.373  11.956 -0.1302 -0.3343  0.0305
28868W        W44677   4.861  13.439   0.573 -0.1305 -0.1948  0.4026
28869W        W44678   1.220  10.568   0.104 -0.0957 -0.1058  0.0470
28870W        W44679   9.264  10.519   3.879  0.1263 -0.2993  0.2552
28871W        W44680  16.313  12.815  14.368 -0.1735  0.0958  0.4313
28872W        W44681   8.896   1.876   0.011  0.1246  0.1026  0.1073
28873W        W44682  16.851  18.186  14.954  0.3324  0.1125  0.1329
28874W        W44683  17.809   6.766   0.732  0.0072 -0.2458  0.3869
28875W        W44684  13.915   4.029   4.168 -0.5490  0.2773 -0.2777
28876W        W44685   3.811   8.682  13.886  0.3130  0.1159 -0.0844
28877W        W44686  13.110  14.876  15.230  0.3623  0.1553  0.1445
28878W        W44687   4.199  18.075   4.997 -0.0402 -0.0809 -0.1199
28879W        W44688  10.573   1.635   3.385  0.0147 -0.1037  0.0232
28880W        W44689   3.352   0.280   1.685  0.0601  0.2286 -0.2345
28881W        W44690   2.583  17.844  15.917  0.2168 -0.1483 -0.2546
28882W        W44691   7.107   0.221  13.994  0.0034  0.2608  0.2217
28883W        W44692   0.506   0.420   4.736 -0.1534 -0.0824  0.0169
28884W        W44693  17.972  11.323   0.275 -0.0225  0.0157  0.1087
28885W        W44694   9.772   7.290  12.435 -0.1175 -0.1074  0.1478
28886W        W44695   4.457  12.645  11.291  0.2395 -0.2722  0.0756
28887W        W44696  13.649   9.456   5.170 -0.0334  0.2504 -0.1091
28888W        W44697   0.997  10.791  12.603  0.0007  0.0041 -0.2294
28889W        W44698   0.787   0.267  15.339  0.0482 -0.1965 -0.2974
28890W        W44699   9.613   1.032   2.516  0.1576 -0.0999 -0.1995
28891W        W44700  12.226  10.830  12.648 -0.1222  0.0170  0.1447
28892W        W44701   3.241  15.309  15.135  0.0672  0.2005 -0.1733
28893W        W44702  10.782  12.465   2.135 -0.2179  0.1445  0.2679
28894W        W44703   4.362   6.480   2.002  0.0204 -0.0391  0.0852
28895W        W44704   5.640  17.914  14.500 -0.0934  0.0982  0.0173
28896W        W44705   2.497   9.110  14.768 -0.1463  0.1818 -0.1043
28897W        W44706  17.200   3.683   4.617  0.2166 -0.1532  0.1033
28898W        W44707   4.866   0.386   2.982 -0.2005  0.1323  0.0621
28899W        W44708  15.039  12.391   3.859  0.0190 -0.0919 -0.0935
28900W        W44709  16.726   2.374   4.941 -0.1043 -0.0415  0.0086
28901W        W44710   7.649   8.108   0.766 -0.2523  0.4181  0.0268
28902W        W44711  14.223  10.839  14.691  0.1857  0.0787 -0.0719
28903W        W44712   2.116  11.987   3.612 -0.1739  0.3052 -0.0589
28904W        W44713   9.547  14.739   1.272 -0.1624 -0.0739 -0.0061
28905W        W44714  11.456  12.179  11.632  0.0008  0.4615  0.2696
28906W        W44715  14.168  13.970  12.754  0.0463  0.3896  0.2396
28907W        W44716   9.622  14.505   0.258  0.3034  0.1637 -0.2326
28908W        W44717   7.548   7.586   4.206 -0.2232 -0.2833 -0.1467
28909W        W44718   1.782   2.949   1.443 -0.2747  0.1758  0.2128
28910W        W44719  13.183   2.197  10.191  0.0344  0.0156 -0.1094
28911W        W44720  15.584   0.015  11.153 -0.2605 -0.2695 -0.1191
28912W        W44721   6.016  10.512  15.577 -0.1838  0.0114 -0.2379
28913W        W44722  10.316  15.101  12.815 -0.2186  0.0143 -0.2559
28914W        W44723   2.836   6.341   5.366 -0.1230  0.0577  0.1235
28915W        W44724   1.574   5.925   1.542  0.0479 -0.1944 -0.0760
28916W        W44725  11.728  10.258  11.213  0.1022 -0.1128 -0.1308
28917W        W44726   1.383   1.026  12.981  0.0392 -0.1037 -0.1807
28918W        W44727   9.200  12.323  11.188  0.1179  0.0388  0.0683
28919W        W44728  16.896   4.833  14.465  0.1300 -0.0772  0.0933
28920W        W44729   2.922  11.882  14.321 -0.1815 -0.1389 -0.0857
28921W        W44730  16.163   2.415  14.750  0.4207  0.1517  0.0192
28922W        W44731  12.299   6.630  14.851 -0.0374 -0.1496 -0.3162
28923W        W44732  14.612  17.942  15.630  0.1550  0.2558 -0.1216
28924W        W44733  17.401   9.714   4.006 -0.0383  0.0513 -0.1596
28925W        W44734   0.192   7.528  12.430 -0.1605  0.1287 -0.2833
28926W        W44735  17.177   1.255   2.813 -0.0872 -0.2855  0.1281
28927W        W44736   2.868   0.321  13.687  0.1730  0.1200  0.0717
28928W        W44737  13.306   0.851  13.810  0.0233  0.0780 -0.3167
28929W        W44738   9.127  16.237  16.004 -0.2444  0.1496 -0.0278
28930W        W44739   7.655   3.837  12.555 -0.3440 -0.2785  0.0779
28931W        W44740   8.287   3.331  12.508 -0.1697  0.1326  0.1207
28932W        W44741   7.723   9.635  14.192  0.3954 -0.0250  0.2106
28933W        W44742   9.570   3.340   1.830 -0.1518 -0.0939  0.1094
28934W        W44743   7.367  10.366  13.000  0.2801  0.2409  0.0830
28935W        W44744   5.358  17.754   3.927  0.1219 -0.0937  0.0664
28936W        W44745   9.985   1.080  14.980 -0.1913 -0.0694 -0.0298
28937W        W44746   6.863  16.093   3.318  0.0337 -0.1919  0.0127
28938W        W44747   6.701  10.319   3.935 -0.1820 -0.2541  0.3675
28939W        W44748  10.645  15.261  14.675  0.1173 -0.0978 -0.0656
28940W        W44749   1.967   0.164   4.386 -0.0267 -0.2644 -0.2595
28941W        W44750  11.005   6.833  10.474  0.0992 -0.0876 -0.0028
28942W        W44751   4.045  18.249  15.556  0.0873  0.1102 -0.0368
28943W        W44752  14.246   8.783   5.062 -0.2000  0.0421  0.0545
28944W        W44753  11.407   4.876   3.933  0.3037  0.0621 -0.0061
28945W        W44754   0.770  12.036   4.364 -0.1943 -0.0365  0.0891
28946W        W44755   1.419  11.328   3.085 -0.2059  0.0512  0.2015
28947W        W44756   7.166   5.646  11.108  0.1253 -0.1140  0.2492
28948W        W44757  15.228   2.197  15.537  0.2454  0.2140 -0.0044
28949W        W44758   7.604  15.538   0.325 -0.1131  0.1545  0.0635
28950W        W44759  16.673   0.154  11.412 -0.3894 -0.0813  0.1317
28951W        W44760  14.372   4.253   3.328  0.1943 -0.3878 -0.0655
28952W        W44761   8.480   9.518   0.957 -0.3127  0.1127  0.1717
28953W        W44762   9.876   9.175  14.199  0.0719 -0.2415  0.0653
28954W        W44763   6.987   7.864  11.623 -0.0914 -0.1857  0.4840
28955W        W44764  12.122   4.674   5.783  0.0096  0.1484 -0.2230
28956W        W44765   9.758  12.117   4.509  0.2766  0.0008  0.1191
28957W        W44766   0.002  10.181   4.491 -0.1519  0.3407 -0.2032
28958W        W44767  14.222  14.645  10.900 -0.0319  0.3478  0.0351
28959W        W44768  13.445   8.749   1.586  0.0146  0.2922 -0.0142
28960W        W44769   8.049   1.979  13.067 -0.0000  0.1202 -0.1235
28961W        W44770  11.087  10.552  11.854 -0.1445 -0.3901 -0.1555
28962W        W44771   3.818   0.828   3.940 -0.2123 -0.0085  0.0076
28963W        W44772  10.531   1.653  10.817  0.1997  0.1223 -0.0806
28964W        W44773  14.707   3.305   1.246 -0.3020  0.0641  0.0291
28965W        W44774  17.422  11.742  12.556 -0.0344 -0.1192 -0.3526
28966W        W44775  14.125   9.826   3.077 -0.1213  0.0310  0.2182
28967W        W44776  10.001   5.316  14.634 -0.0973 -0.3591 -0.2747
28968W        W44777   1.861  17.203   0.794  0.1550  0.0713  0.0091
28969W        W44778   0.002   9.116  13.997 -0.1488 -0.2156  0.1311
28970W        W44779  14.330  18.043  15.101 -0.1455  0.4046 -0.0490
28971W        W44780  10.098  16.980   0.061 -0.0813 -0.1227  0.0167
28972W        W44781   5.802  11.253  10.812  0.0454 -0.2687 -0.4818
28973W        W44782  13.493   0.078  15.478 -0.2074 -0.2175  0.2775
28974W        W44783   2.411   4.340  13.763  0.1126 -0.0721  0.1038
28975W        W44784   5.082   2.260   4.242 -0.3592 -0.0111 -0.1205
28976W        W44785   6.605  14.060  12.623  0.1784  0.0143  0.3224
28977W        W44786  15.638   2.697  15.421 -0.0862  0.1104  0.0732
28978W        W44787   2.297   0.760  12.669  0.2603  0.1100  0.0741
28979W        W44788  12.829  17.633   4.150 -0.0390 -0.3999 -0.4477
28980W        W44789   9.722   1.525   1.791  0.1352  0.0021  0.0719
28981W        W44790   5.865  10.538  14.979  0.2664  0.0741  0.0163
28982W        W44791   4.323  11.687  13.604 -0.0387  0.1394 -0.0432
28983W        W44792   6.052  11.825   5.927 -0.1780  0.0335  0.3049
28984W        W44793  13.373  13.794  14.199  0.1848 -0.0545  0.3599
28985W        W44794   5.471   4.958   1.833 -0.0259  0.0018  0.2811
28986W        W44795  15.896   9.870  14.393 -0.2993 -0.1262 -0.2741
28987W        W44796  15.903   2.128  12.576 -0.0178 -0.0026 -0.2248
28988W        W44797   4.757   3.187  12.439 -0.2137  0.0491  0.0016
28989W        W44798  12.288  11.217   3.543 -0.3290 -0.1613  0.0631
28990W        W44799   5.464   5.328  10.854  0.0564 -0.1390 -0.0422
28991W        W44800   9.717   3.940   4.315  0.3235  0.1907  0.0658
28992W        W44801  10.187  12.669  14.358 -0.1108  0.2357  0.4201
28993W        W44802  11.172   2.810  15.199 -0.3967 -0.0774 -0.1955
28994W        W44803   3.080  10.603   3.923  0.1149  0.1358  0.2603
28995W        W44804  17.030   5.751   4.834 -0.0707  0.1614  0.0909
28996W        W44805   2.959  12.528  10.439 -0.0453 -0.2604  0.2266
28997W        W44806  10.038   5.362   0.451 -0.0946  0.0585  0.0226
28998W        W44807   1.824  15.523  15.505 -0.2961 -0.1187 -0.0486
28999W        W44808   0.105   3.365   0.115 -0.0631  0.0148  0.0489
29000W        W44809   9.163  11.262   2.624 -0.1231  0.1909  0.3464
29001W        W44810  17.165   7.461   3.868  0.2151 -0.0425 -0.3360
29002W        W44811   1.683   9.182   1.437  0.3826 -0.1184 -0.0963
29003W        W44812  13.416  13.273  12.721 -0.0775  0.2934  0.0828
29004W        W44813   1.930   7.762   3.554 -0.0739 -0.1582 -0.4718
29005W        W44814   2.849  15.414  14.225  0.0064  0.1596 -0.1351
29006W        W44815   4.420  17.237   3.644  0.1605 -0.2148  0.3749
29007W        W44816  12.887   0.310   1.401 -0.0978  0.1576 -0.2529
29008W        W44817   7.615   3.956  15.118 -0.1867  0.1338 -0.2122
29009W        W44818  17.689  14.131  12.789 -0.0765  0.1712 -0.0627
29010W        W44819   9.594   5.186  12.580 -0.0005 -0.1954  0.3567
29011W        W44820   4.608  13.208   0.959 -0.0647 -0.0187 -0.2306
29012W        W44821   4.902  12.257  16.018 -0.1530 -0.1313 -0.2099
29013W        W44822  11.251  15.237   4.540 -0.0012  0.0568 -0.1591
29014W        W44823   7.598   9.318   4.791  0.0860  0.0843 -0.1977
29015W        W44824  16.412   2.495   4.397 -0.2299  0.1321 -0.2032
29016W        W44825  15.404   0.809  14.206  0.1481  0.0542 -0.1231
29017W        W44826   3.977  12.406   5.431  0.1848 -0.3708  0.0108
29018W        W44827   8.111  13.038   4.956  0.1230  0.3037 -0.0083
29019W        W44828   5.490   1.112   0.344  0.1859 -0.3397 -0.0620
29020W        W44829  11.647  12.479   3.451  0.1341  0.0362 -0.1214
29021W        W44830  17.835   0.784  14.512  0.4923 -0.1502 -0.0778
29022W        W44831   6.360  15.332   3.500 -0.1193 -0.3362 -0.0763
29023W        W44832   2.401   8.775   0.092 -0.0254  0.1734 -0.1404
29024W        W44833   1.344  14.738  10.651 -0.0712 -0.2393 -0.0809
29025W        W44834  14.063   2.060  10.794  0.0111 -0.2129  0.0280
29026W        W44835   6.405  15.549   3.898  0.0652 -0.2289  0.0567
29027W        W44836  13.814   5.735  14.114 -0.1281 -0.2466  0.6726
29028W        W44837  13.844   9.211  12.545 -0.3090  0.3268  0.1944
29029W        W44838  15.248   6.021   4.144 -0.1590 -0.0703  0.1064
29030W        W44839  12.800   1.761  12.717 -0.3310  0.0348  0.0274
29031W        W44840  14.125  10.113   2.155 -0.4320  0.0433  0.0376
29032W        W44841  11.861  14.392   9.864 -0.0860  0.0767 -0.1864
29033W        W44842   5.638   8.007  12.653 -0.1232  0.1637 -0.0795
29034W        W44843   3.862   6.265  10.922 -0.0724 -0.1699  0.1256
29035W        W44844   9.671  14.248   3.055  0.0425 -0.2380 -0.3324
29036W        W44845   9.189  16.667   0.272 -0.2001 -0.0929 -0.2743
29037W        W44846   9.222   9.483  13.202  0.0531  0.1604  0.1430
29038W        W44847  16.533  14.799   5.006 -0.2356 -0.1461 -0.1258
29039W        W44848  13.032  14.661   4.147 -0.1253  0.3122  0.2655
29040W        W44849  11.654  12.120  16.069 -0.0054 -0.1131 -0.2077
29041W        W44850   7.465  14.224  14.106 -0.0339  0.0695  0.3476
29042W        W44851   2.551  13.147   0.450 -0.3050 -0.1278 -0.1153
29043W        W44852  12.149  13.481  12.069  0.2451  0.4506 -0.1023
29044W        W44853   5.659  14.827   0.085  0.0530 -0.0204  0.2753
29045W        W44854   3.479   6.296  13.889 -0.0451  0.1413  0.3365
29046W        W44855  17.731  16.326  12.263  0.0627  0.0230  0.0916
29047W        W44856  17.123  14.234   2.205  0.3448 -0.1578  0.2325
29048W        W44857  15.493  11.098  11.201 -0.1338  0.0215  0.1127
29049W        W44858   4.958   0.854  14.107 -0.1157 -0.2531  0.0174
29050W        W44859  17.975   1.688   3.786 -0.1191  0.0211  0.0031
29051W        W44860  17.428   5.568  13.662  0.0566  0.2867  0.0744
29052W        W44861  12.845   6.450   1.031 -0.0676 -0.0062  0.0891
29053W        W44862  10.985  14.456   2.653 -0.0014 -0.0979 -0.5117
29054W        W44863   6.086  10.828   1.350 -0.2070  0.3380  0.2662
29055W        W44864  11.709   0.810   0.918 -0.0722  0.1855  0.1126
29056W        W44865  10.666  12.625   2.609 -0.1523 -0.0077 -0.2268
29057W        W44866  14.407   0.606   1.313  0.3210 -0.1539  0.2523
29058W        W44867  11.663  10.778  13.381 -0.5567  0.0483  0.1693
29059W        W44868   8.261  14.625   0.799 -0.0201  0.3818 -0.2431
29060W        W44869  16.875  15.535   1.532 -0.0216 -0.0038 -0.1572
29061W        W44870   1.404   4.182   2.445 -0.1032  0.1800 -0.1169
29062W        W44871   5.174  15.084   3.002 -0.5577 -0.2367  0.0753
29063W        W44872  14.602   9.093  15.629 -0.0605  0.0507  0.0479
29064W        W44873  15.159   6.360  13.213 -0.2061 -0.2397  0.0989
29065W        W44874   7.344  10.929  14.693  0.0111 -0.0532 -0.1688
29066W        W44875  17.163  11.389  14.189 -0.2718  0.1101  0.0016
29067W        W44876  15.612  17.740   1.356  0.1838 -0.0472  0.0887
29068W        W44877   0.398   9.609   1.174 -0.0360 -0.0139 -0.1213
29069W        W44878  14.769   2.883   0.397 -0.0090 -0.0648  0.0411
29070W        W44879  13.573  10.179   5.438  0.0293  0.0614 -0.0228
29071W        W44880   6.881  14.210   1.552  0.1508 -0.4363  0.1240
29072W        W44881  13.775   5.762   2.630  0.3230  0.2692 -0.0687
29073W        W44882  14.837  14.488  14.726  0.1258 -0.0872 -0.2162
29074W        W44883  11.725   3.006  12.058 -0.2904 -0.2558 -0.2625
29075W        W44884   0.093   3.420   1.819 -0.1028  0.1665  0.1785
29076W        W44885   4.780   7.396  15.789 -0.1371 -0.1390  0.1864
29077W        W44886  10.281  14.051  15.560  0.0294  0.2119 -0.2709
29078W        W44887   0.587  15.589  11.735  0.0011  0.1398  0.1141
29079W        W44888   1.675   6.357   4.301 -0.2901  0.0743 -0.1193
29080W        W44889   3.131   3.741   4.045  0.1063 -0.1824  0.0546
29081W        W44890   1.883   3.379   3.380  0.1196  0.2299 -0.0225
29082W        W44891  16.208   3.856   4.639  0.0331 -0.2220 -0.3058
29083W        W44892   8.751  12.447  10.760  0.1059 -0.4013 -0.1032
29084W        W44893   3.257   1.766   2.160  0.0277 -0.0644  0.0624
29085W        W44894  16.749   9.233   5.030  0.2449  0.1436  0.1736
29086W        W44895   8.479  14.810  14.410 -0.1782  0.0404 -0.0198
29087W        W44896  10.975   1.808  12.128 -0.2005 -0.0679  0.2920
29088W        W44897   8.172   6.190   4.825 -0.1581 -0.1581  0.0079
29089W        W44898   0.436   7.851   0.116  0.0154  0.0275  0.1124
29090W        W44899   6.812  12.701  13.939  0.0293  0.2629  0.0354
29091W        W44900  11.183  14.984  12.603  0.2072  0.2108 -0.3142
29092W        W44901   8.184   2.144   2.361  0.0794  0.0248 -0.0187
29093W        W44902   6.200   7.157   1.367  0.0529  0.1511 -0.2195
29094W        W44903  10.426  15.640  11.890  0.0058  0.1856 -0.1735
29095W        W44904  14.600   1.629  13.031  0.2639 -0.0583  0.5383
29096W        W44905  11.106   1.909   5.577 -0.0507 -0.1593 -0.2987
29097W        W44906   3.213  17.350   3.618  0.0795 -0.0314  0.1173
29098W        W44907  18.098   6.771   4.047 -0.1106  0.0033 -0.0210
29099W        W44908  14.622  10.424  12.668 -0.2092  0.0248 -0.0398
29100W        W44909   2.440   4.577   4.057 -0.0679 -0.3744  0.1269
29101W        W44910   2.809   4.761   2.247 -0.2278 -0.3534 -0.2381
29102W        W44911  11.682  11.397  11.908  0.1612  0.2278  0.0051
29103W        W44912   0.383   0.236   5.214 -0.2450  0.1866  0.0827
29104W        W44913  13.856   4.641  15.621  0.3000  0.1053 -0.0071
29105W        W44914  12.324   4.292   2.159 -0.0650 -0.0782  0.1966
29106W        W44915   7.521   1.270  15.649 -0.1859  0.0304  0.1588
29107W        W44916   1.936   9.400  15.595 -0.0824 -0.3734 -0.1194
29108W        W44917  16.313  12.800  11.441  0.0963  0.0092  0.0470
29109W        W44918  14.297   8.695   2.569 -0.1453 -0.0111 -0.1033
29110W        W44919   5.822   4.546  12.845 -0.2405  0.2434 -0.1042
29111W        W44920  16.994   9.376  14.006  0.1410 -0.2242 -0.0028
29112W        W44921   8.505  12.988  12.449 -0.1514  0.2707  0.0574
29113W        W44922  18.074   7.365  15.506  0.3681  0.2390  0.2858
29114W        W44923  16.525  16.563  14.854  0.1302 -0.3308 -0.1595
29115W        W44924  15.509   3.541   4.041  0.0278 -0.1422  0.2615
29116W        W44925  17.603  15.527  12.209  0.3088 -0.3389 -0.0445
29117W        W44926  16.191   5.154   1.483  0.2617  0.1215 -0.1535
29118W        W44927  12.972   6.354   3.976 -0.1407  0.1457 -0.0100
29119W        W44928   9.256   5.748  13.177 -0.1666 -0.0513 -0.1498
29120W        W44929  10.594  18.164  12.858  0.0563 -0.0591  0.0862
29121W        W44930   7.993   7.831  12.729 -0.3228  0.0329 -0.0485
29122W        W44931   7.753  12.455  15.436  0.1303 -0.2414  0.1525
29123W        W44932   0.505   5.350  11.649 -0.2823 -0.1673  0.3134
29124W        W44933   3.268   6.264  14.376 -0.1593 -0.0123 -0.0673
29125W        W44934  18.144   2.553   4.779 -0.1446 -0.1259 -0.0053
29126W        W44935  17.860  10.482   4.466  0.1066  0.4557  0.1669
29127W        W44936  11.131  13.046   4.032  0.1957 -0.1261  0.4165
29128W        W44937   4.949   9.449   3.256  0.3789 -0.1181 -0.0804
29129W        W44938  12.141   6.435  15.352  0.0750 -0.0688  0.0472
29130W        W44939   7.787   7.570  14.900  0.0731  0.0526 -0.0224
29131W        W44940   9.232  10.254  13.863 -0.0348 -0.0106 -0.0211
29132W        W44941   4.587   6.417  11.243  0.0818 -0.2577  0.0083
29133W        W44942   8.599  10.517  10.706 -0.3984 -0.1578 -0.0678
29134W        W44943  12.949  12.160   4.835  0.2228  0.0678 -0.0794
29135W        W44944  16.640   8.425   5.396 -0.4610  0.0721 -0.2547
29136W        W44945  11.772  11.179   3.540 -0.0154  0.1915  0.1907
29137W        W44946   3.420  16.053  12.994 -0.1781  0.0505 -0.1132
29138W        W44947   5.428   0.243  13.414 -0.0092  0.0914 -0.0391
29139W        W44948   6.162   0.958  14.658 -0.0823  0.1755 -0.0446
29140W        W44949   4.351  14.713  15.267 -0.1113 -0.0806  0.1844
29141W        W44950  13.829   8.242  13.359 -0.0703 -0.1053  0.2597
29142W        W44951  10.424  18.023  14.500  0.0635 -0.0028  0.0278
29143W        W44952  15.280  12.856  13.914 -0.0701  0.3857  0.0704
29144W        W44953   6.990  16.134   1.835  0.1891 -0.0868 -0.0279
29145W        W44954  15.933   1.709   6.562  0.0619  0.0552 -0.1701
29146W        W44955   0.732   0.369  15.874  0.0325 -0.0486  0.2371
29147W        W44956   6.379  10.957   2.310  0.0004  0.0364  0.1145
29148W        W44957   9.210  16.615   1.729 -0.1093  0.0202  0.2674
29149W        W44958   3.398   1.981   2.704  0.0822 -0.1276  0.1664
29150W        W44959  17.547   1.550   0.449  0.1504 -0.0531  0.1699
29151W        W44960  15.511   8.925  15.098  0.0687 -0.1472  0.0038
29152W        W44961   4.493   4.454  12.991  0.1200 -0.0126  0.2901
29153W        W44962  10.902   3.759   2.425  0.2066 -0.1866 -0.0697
29154W        W44963  17.432   9.242   4.149  0.1877  0.1151 -0.0787
29155W        W44964   2.352   7.962   1.272  0.2503  0.2486 -0.4031
29156W        W44965  11.455  14.126  14.398 -0.0448  0.1838 -0.0954
29157W        W44966   6.218   1.121   3.036 -0.0550  0.1694  0.0588
29158W        W44967   0.504  10.461   1.728 -0.0765 -0.2213 -0.0215
29159W        W44968  17.200  12.378  11.024  0.0131 -0.2714  0.2922
29160W        W44969   0.345   1.201   1.002  0.0104  0.0497  0.0184
29161W        W44970  13.580  15.284   1.558 -0.0859  0.0029  0.2684
29162W        W44971   4.356   4.758   0.337  0.2097 -0.0515  0.0629
29163W        W44972   7.761  12.247   1.048  0.0642 -0.2028 -0.0326
29164W        W44973  16.432   2.029   2.262  0.0290  0.1528 -0.6080
29165W        W44974   9.853  11.093   5.251 -0.0880 -0.0677 -0.3718
29166W        W44975  17.549   1.409   3.485 -0.2396 -0.3138 -0.1421
29167W        W44976   6.739   8.125  15.142  0.0108 -0.2424 -0.1257
29168W        W44977   0.858  11.509  14.265  0.1184 -0.0387  0.1592
29169W        W44978  14.187   9.259  13.689  0.1894 -0.0316 -0.0908
29170W        W44979  18.137   3.735   0.402 -0.0272  0.1028  0.2245
29171W        W44980   1.759   5.183  11.311  0.0198  0.1436  0.0349
29172W        W44981   6.974  17.879  15.649  0.2154  0.1737  0.0787
29173W        W44982   4.608   3.939  15.794 -0.0176  0.3212  0.1329
29174W        W44983  13.299   8.203   4.039 -0.1363  0.0637 -0.1536
29175W        W44984   5.682  15.053   3.228 -0.0107 -0.3374  0.0197
29176W        W44985  16.951  15.677   4.158  0.1271 -0.2067  0.3675
29177W        W44986   6.186  18.186   4.968 -0.1432 -0.1058 -0.2377
29178W        W44987  16.309   6.199  12.538  0.0099 -0.1322  0.3788
29179W        W44988   5.379   9.880  15.609 -0.2800  0.0591  0.0575
29180W        W44989  17.040   8.290   0.412  0.0385  0.2849  0.0324
29181W        W44990  18.237  13.332  14.772 -0.2498 -0.0665 -0.1014
29182W        W44991  14.004  16.224  14.866 -0.0139 -0.0630 -0.3049
29183W        W44992   5.933  13.814   4.731  0.2113 -0.0805  0.2070
29184W        W44993   9.297   9.627  12.687  0.1532 -0.0789  0.0840
29185W        W44994   2.753   3.109  12.974 -0.1467  0.2089 -0.0108
29186W        W44995  16.304  13.198   3.921  0.4984  0.0605 -0.1978
29187W        W44996   7.266   1.047  12.098  0.1242  0.0774 -0.1605
29188W        W44997   4.018   9.548  10.798  0.1732  0.5176  0.2335
29189W        W44998   7.346  11.700   0.455 -0.2133  0.1077 -0.1808
29190W        W44999   3.570  15.760  14.456 -0.1526 -0.1499 -0.3273
29191W        W45000   7.743   6.970   9.500 -0.0607 -0.3416  0.0346
29192W        W45001  17.808   6.830   5.870  0.0467  0.3143 -0.0968
29193W        W45002  14.257   2.094  11.843 -0.0489  0.0505 -0.1000
29194W        W45003   3.470   6.611  14.679 -0.0622  0.1165 -0.0541
29195W        W45004   8.335   0.898  15.320  0.0952 -0.3567  0.0285
29196W        W45005  15.933  16.333  11.207 -0.0509  0.0068 -0.0788
29197W        W45006  11.268   0.848  13.518 -0.0046  0.0630 -0.4838
29198W        W45007   8.664  11.233   2.969  0.1167 -0.2551 -0.1679
29199W        W45008   3.992   7.141   0.976  0.0836  0.0554  0.0955
29200W        W45009   1.713   4.315  15.123 -0.0067  0.1515  0.0016
29201W        W45010  11.121  14.525  11.289 -0.0859  0.1359 -0.0516
29202W        W45011   1.685  13.608  11.521  0.0313  0.0818 -0.1976
29203W        W45012  15.598  17.530   4.006 -0.2149 -0.1485  0.0511
29204W        W45013  14.882   5.681  10.252  0.2934 -0.0433 -0.0714
29205W        W45014   8.048   7.746   1.099  0.1108 -0.0833 -0.2343
29206W        W45015   1.196  10.318  10.088 -0.0698  0.1403 -0.0250
29207W        W45016   8.872   0.552  11.701 -0.0816  0.4791 -0.2686
29208W        W45017   2.938  12.957   2.630  0.1417  0.1539  0.0998
29209W        W45018   9.537   1.055   5.845 -0.0129 -0.1412  0.0674
29210W        W45019  17.268  16.842  14.110  0.0026 -0.0105  0.2323
29211W        W45020   2.566  16.311   6.058  0.0289 -0.3324  0.1677
29212W        W45021  11.529  10.333   3.873  0.0378  0.0340 -0.0824
29213W        W45022  14.536   3.559   1.623  0.0347  0.0743  0.0843
29214W        W45023  14.549   4.357  13.806  0.1577 -0.2380  0.0207
29215W        W45024  14.084   2.587   3.069 -0.1040  0.2623 -0.1406
29216W        W45025   9.983  16.802   5.108  0.1144 -0.0744 -0.3587
29217W        W45026   6.375  12.961  12.865 -0.3389 -0.1694  0.0346
29218W        W45027  10.291   0.012   3.542 -0.1181  0.3412  0.0311
29219W        W45028  17.128  12.162  13.231 -0.1664 -0.0253 -0.1875
29220W        W45029   5.886   0.573   3.809  0.0903  0.1349 -0.0754
29221W        W45030   4.666   3.862  13.630 -0.2155  0.1586 -0.0216
29222W        W45031   6.792   4.326  16.066 -0.0697  0.1296  0.1359
29223W        W45032   1.716   7.274  15.734  0.2903 -0.2875 -0.0646
29224W        W45033   7.617   4.678  12.858  0.4107  0.2573 -0.0911
29225W        W45034   7.825   5.568  12.774 -0.3744 -0.1742  0.2623
29226W        W45035   7.566   2.777   4.772  0.0814  0.1302  0.1968
29227W        W45036  10.581   8.447   2.088  0.0186 -0.1938  0.1049
29228W        W45037  16.214   0.641  10.442  0.0378 -0.4526 -0.2625
29229W        W45038  11.057  15.306   2.079 -0.3298 -0.1040  0.1280
29230W        W45039  13.453   2.395   1.166  0.0335 -0.1047  0.0082
29231W        W45040  16.493   5.488  15.465 -0.2368 -0.2406 -0.0283
29232W        W45041  15.905   9.638  11.291 -0.0680  0.1895  0.0548
29233W        W45042   1.244  10.603   2.457  0.1308  0.2606  0.1471
29234W        W45043  17.135   8.037   4.017 -0.1758 -0.0531  0.4135
29235W        W45044   2.699   3.149   0.175 -0.0651  0.3290  0.0005
29236W        W45045  15.389  13.076  14.882  0.2015 -0.0702 -0.3925
29237W        W45046  17.448  15.525   2.412 -0.0810  0.0670  0.1731
29238W        W45047   5.595   6.925  12.998 -0.0731 -0.0634  0.2290
29239W        W45048  17.400  12.237  13.678  0.1732 -0.1641  0.1576
29240W        W45049  16.892   1.444   5.577  0.0189  0.0730  0.1392
29241W        W45050   5.675  10.686   1.562 -0.1364 -0.2833  0.2317
29242W        W45051  16.515  15.678   4.549  0.1179 -0.1986  0.2150
29243W        W45052  15.130   0.227   0.262 -0.0905 -0.0517 -0.0650
29244W        W45053   1.431   2.983   0.456 -0.2060  0.1181  0.1680
29245W        W45054   9.528  14.934  13.397  0.0657  0.2358 -0.1558
29246W        W45055  13.888  13.624   0.385  0.0705 -0.1315 -0.1628
29247W        W45056   6.070   2.642   3.095  0.2655 -0.1169 -0.1648
29248W        W45057  17.964   3.528  13.891  0.0391 -0.0191  0.1062
29249W        W45058  10.886  14.447   4.434  0.5457  0.2607  0.0595
29250W        W45059   3.702   2.273   1.597 -0.0082  0.0861 -0.0229
29251W        W45060  18.132   1.826   1.226  0.0824 -0.3068  0.0085
29252W        W45061  16.488  17.673   2.487  0.0434 -0.0756  0.2313
29253W        W45062   9.113   8.314   0.638  0.0693 -0.0337 -0.0248
29254W        W45063  16.496  13.814  15.390 -0.0825 -0.1931  0.1034
29255W        W45064   9.097   6.062  14.084 -0.4877 -0.1598  0.1280
29256W        W45065   5.491  10.276  12.780 -0.1602 -0.1227 -0.0995
29257W        W45066   6.229  18.147  14.200 -0.1303  0.0042 -0.1470
29258W        W45067  17.867   7.899   4.248  0.1004 -0.0498  0.1992
29259W        W45068  12.818   1.288  12.904 -0.0238 -0.0200  0.4458
29260W        W45069   6.787  17.327   0.452 -0.3268  0.0870  0.0859
29261W        W45070   1.255   2.574   0.631 -0.0319 -0.3749  0.0096
29262W        W45071   1.392   4.873  11.311  0.0004 -0.2765 -0.1184
29263W        W45072  17.155   3.959  14.729 -0.0865 -0.2307 -0.0034
29264W        W45073  14.508  11.690   3.778  0.0601  0.0617 -0.0171
29265W        W45074   4.609  10.390   1.004  0.2171 -0.0672 -0.1866
29266W        W45075   7.953  17.407   4.257 -0.1130  0.1857 -0.1756
29267W        W45076   1.718   3.607   2.967 -0.0208 -0.0298  0.0258
29268W        W45077   2.388  16.049  12.872  0.0863 -0.1497 -0.1078
29269W        W45078   1.311   7.775  12.002  0.2867  0.2798  0.1168
29270W        W45079  17.475   3.471   1.903 -0.1419  0.2899 -0.0585
29271W        W45080   6.984  17.500  11.715  0.1345  0.1804 -0.2034
29272W        W45081   8.369   6.543  12.607 -0.1749 -0.2312 -0.1686
29273W        W45082   1.994  11.181   3.394 -0.0566  0.1772 -0.3095
29274W        W45083   5.508  16.714  11.276 -0.0269  0.0354  0.1691
29275W        W45084  16.171   2.125  15.169 -0.1206 -0.0819 -0.1370
29276W        W45085   4.908   3.253   5.123  0.2212  0.1623 -0.3082
29277W        W45086  16.870  10.082   4.964 -0.0847 -0.3268 -0.0321
29278W        W45087  13.033   1.463  15.105  0.1248 -0.1362  0.2228
29279W        W45088  16.206   7.788   3.040  0.2655  0.0260 -0.2297
29280W        W45089   8.656  13.063  14.190 -0.1894 -0.2590 -0.3735
29281W        W45090   8.644   4.394  15.601  0.0483  0.2138 -0.0753
29282W        W45091   5.179   1.714  13.605  0.0711  0.1765  0.2222
29283W        W45092  15.934  11.375   0.868  0.0204  0.3657  0.0324
29284W        W45093   8.601   7.960  15.490 -0.3341  0.1348 -0.0333
29285W        W45094   3.872  13.360   1.357 -0.0134  0.2971  0.0350
29286W        W45095   6.002   6.315   0.408  0.3942 -0.0420  0.2084
29287W        W45096  11.029   6.237   4.158  0.0901 -0.0582  0.1383
29288W        W45097   9.574  10.411   5.952 -0.0224  0.0691 -0.0313
29289W        W45098  12.704   2.012   5.004  0.1062 -0.1856  0.0504
29290W        W45099   0.656   5.386   0.961  0.1724  0.0759 -0.0806
29291W        W45100   1.393   2.615   3.219  0.0793  0.1776 -0.0733
29292W        W45101   5.456  10.208   3.856  0.1785 -0.0074  0.3072
29293W        W45102   6.486   6.673   2.642  0.2555 -0.3212  0.1303
29294W        W45103   0.605  17.197  12.023  0.1856  0.0559 -0.3417
29295W        W45104   7.169   3.268  13.312 -0.3496 -0.4206  0.0090
29296W        W45105  15.073  17.230  13.824 -0.3666  0.0247  0.0718
29297W        W45106   3.573  10.093  14.240  0.2121 -0.0177  0.0942
29298W        W45107  17.854  17.777   2.859 -0.2164 -0.3480 -0.1395
29299W        W45108   5.082  10.426   4.685 -0.1250  0.2161  0.0414
29300W        W45109   2.837  10.281  12.292  0.0915 -0.0482  0.1450
29301W        W45110  10.038   6.673   3.060 -0.2385  0.0573 -0.1286
29302W        W45111   0.285   0.399   2.713 -0.1089 -0.3879  0.1040
29303W        W45112  11.055  16.377  12.721 -0.0871 -0.3186  0.0982
29304W        W45113  11.211   3.282  13.452  0.0871  0.2632  0.1614
29305W        W45114   1.220   7.430  14.638  0.3274  0.1991  0.2175
29306W        W45115   3.289   8.397   3.917 -0.1877 -0.4112 -0.1926
29307W        W45116   7.512   3.165   3.001 -0.0781 -0.0671  0.0548
29308W        W45117  14.272   2.970  15.672  0.2453 -0.0810 -0.3748
29309W        W45118  17.527  12.941   4.670 -0.1290 -0.2617 -0.0161
29310W        W45119  12.561  12.491   4.901 -0.0671  0.2341 -0.0414
29311W        W45120  17.083  14.695   0.481  0.1616  0.0281 -0.1887
29312W        W45121  11.174   8.628  11.174 -0.1702  0.3756  0.2048
29313W        W45122  14.097  15.449  14.313 -0.1199  0.0030  0.0204
29314W        W45123   3.220   2.052   3.222 -0.0998 -0.2558  0.0005
29315W        W45124  14.199   5.021   0.814  0.3028 -0.1760 -0.0479
29316W        W45125  12.818   9.665  14.784 -0.1074  0.2905 -0.1022
29317W        W45126  13.088   8.301  15.117 -0.0176 -0.2045 -0.0076
29318W        W45127  17.899  11.205   5.027  0.0081  0.0197  0.2059
29319W        W45128   3.506  11.105   2.000 -0.0691  0.3042  0.0564
29320W        W45129  15.378  15.057   3.714  0.0466 -0.0580  0.0973
29321W        W45130  13.996  11.393   5.095  0.1773  0.3099 -0.0184
29322W        W45131  17.113   9.216   1.371 -0.1507  0.0730 -0.0339
29323W        W45132   2.128   1.886   1.420 -0.1151  0.0109 -0.0785
29324W        W45133   5.116  17.331   1.953  0.1449  0.0789 -0.1388
29325W        W45134   5.581   4.946  10.470  0.0122  0.1632  0.3588
29326W        W45135  12.990  10.885   4.724 -0.1408  0.2225 -0.1324
29327W        W45136   2.503  17.197   1.946  0.0371 -0.0377 -0.1760
29328W        W45137   7.077  11.955   3.969 -0.0680 -0.0841  0.3031
29329W        W45138  10.102   2.813  15.938 -0.0936 -0.1012 -0.4060
29330W        W45139   3.384  12.609  15.978  0.0421 -0.0104  0.1173
29331W        W45140  12.092  12.948   5.928  0.1566 -0.0702 -0.1102
29332W        W45141   4.393  11.853  13.082 -0.1754 -0.0624 -0.0531
29333W        W45142  14.520  10.181  14.055  0.3133 -0.0091 -0.1533
29334W        W45143   0.581  15.439   2.425 -0.0988 -0.2080  0.1159
29335W        W45144   8.015  18.157   3.813  0.0850  0.0077  0.0897
29336W        W45145   2.421  15.349   5.491 -0.1373  0.0527  0.1644
29337W        W45146  11.255  16.214   4.741 -0.0305 -0.1653 -0.0882
29338W        W45147   0.037  11.743  11.047  0.1486 -0.3150  0.4383
29339W        W45148  18.212  17.990   1.318 -0.0077 -0.0648 -0.0497
29340W        W45149   7.395   5.376   4.132  0.0191 -0.0151  0.3213
29341W        W45150   9.355   0.050  13.762  0.0125  0.1169  0.2926
29342W        W45151  13.183  13.071   1.862  0.0874 -0.0211  0.0295
29343W        W45152  15.740   2.289  11.736 -0.2918  0.0286 -0.0587
29344W        W45153  15.867  10.507   1.292  0.1863  0.2810  0.2810
29345W        W45154  12.402   5.108   2.751  0.1772 -0.2258 -0.0753
29346W        W45155  10.535  15.741   4.354  0.1621  0.2165 -0.3563
29347W        W45156   0.769   0.009  14.557  0.0739 -0.1083  0.3498
29348W        W45157   2.741  15.092  16.051 -0.0411  0.1219  0.0664
29349W        W45158  13.339  17.738   5.656  0.1948  0.2404  0.1973
29350W        W45159  14.493  13.939   3.631  0.0636  0.4093 -0.1621
29351W        W45160   4.530   7.494   2.831 -0.0018 -0.0357 -0.0150
29352W        W45161  13.794   8.977  12.951 -0.3367 -0.0321 -0.1158
29353W        W45162  12.284  15.713   2.161 -0.1686  0.2104 -0.1552
29354W        W45163  13.168   2.857   2.136  0.0131  0.1420 -0.3277
29355W        W45164   7.464   5.827  15.391  0.2684  0.0178  0.0415
29356W        W45165   8.719  15.327   1.154 -0.1740  0.0237 -0.2112
29357W        W45166  17.006  13.447   2.747  0.2179 -0.0431 -0.0988
29358W        W45167  12.404  10.146   0.312  0.0647 -0.4305 -0.3816
29359W        W45168  12.011   7.950   9.999 -0.0260 -0.1929 -0.0747
29360W        W45169  18.024  12.810  14.062  0.2013  0.1936 -0.3527
29361W        W45170   8.763  16.664  11.028  0.1080 -0.0369  0.0495
29362W        W45171  12.728  14.629   2.617  0.0281 -0.1179  0.1343
29363W        W45172   9.085  10.043   4.028  0.1965  0.0034 -0.0069
29364W        W45173  14.344   2.489   2.585 -0.2618  0.1573 -0.0380
29365W        W45174  15.283   8.365   3.151 -0.0723  0.1126  0.0685
29366W        W45175   5.013  18.086   3.627  0.0157  0.1216  0.0329
29367W        W45176   4.579  15.224  12.349  0.1004  0.3149 -0.0644
29368W        W45177  11.404   5.318   0.675 -0.0224 -0.0215  0.1642
29369W        W45178   3.677   7.024  14.462  0.1751  0.1789  0.1240
29370W        W45179  16.281  17.103   1.976  0.0513  0.2248 -0.1401
29371W        W45180   1.072   8.186  14.959 -0.0761  0.2449  0.0011
29372W        W45181   5.188  11.676  13.729  0.0125  0.0981 -0.1604
29373W        W45182  16.275  17.625  11.232  0.2612  0.0070 -0.1431
29374W        W45183  11.749  16.483   2.123  0.0991  0.0676 -0.0836
29375W        W45184   2.410  14.828   2.215 -0.0346 -0.2407  0.0518
29376W        W45185  12.553   3.308  13.702 -0.2332 -0.2311 -0.4120
29377W        W45186   9.195  17.357   1.234 -0.1698  0.3597 -0.3685
29378W        W45187   7.105   9.709   5.018  0.1671  0.1005 -0.2460
29379W        W45188   0.073  17.755  10.798  0.1360  0.1359 -0.0103
29380W        W45189  13.764   9.062  13.807  0.2138 -0.2681  0.0461
29381W        W45190   9.970   4.013  13.541  0.0013 -0.0491  0.0768
29382W        W45191  12.432   0.320   5.103 -0.0420  0.3464  0.1354
29383W        W45192  11.211  17.937   1.040 -0.2581 -0.2445 -0.1337
29384W        W45193   8.935  18.105   4.564 -0.0072 -0.1916  0.1632
29385W        W45194  12.781   7.901  14.167  0.0520 -0.1325  0.0430
29386W        W45195  10.413  12.863   3.000 -0.0261 -0.2002 -0.1061
29387W        W45196  17.601   4.205  14.922 -0.2325 -0.1696 -0.0865
29388W        W45197  15.856   3.380   0.816 -0.2269 -0.0810  0.0512
29389W        W45198   8.396  15.047   9.912 -0.0183  0.2244  0.2707
29390W        W45199   6.270   0.200   6.121  0.1318 -0.0947  0.0803
29391W        W45200  17.059   7.543  15.740 -0.2362 -0.0415 -0.1044
29392W        W45201   8.095  15.758  12.728  0.0742 -0.1025  0.2644
29393W        W45202   5.703   2.392  16.009 -0.0020  0.0032 -0.0959
29394W        W45203  12.179  14.512  14.873  0.1930 -0.2163 -0.0478
29395W        W45204   5.955  11.605  11.628 -0.1662  0.0266  0.3734
29396W        W45205  15.427  15.362  14.346  0.0313  0.1060 -0.2193
29397W        W45206   9.271   2.949   2.771 -0.0031  0.3115 -0.0696
29398W        W45207   8.495  11.636  10.843 -0.0009  0.1183  0.0031
29399W        W45208  14.136   6.618   2.088 -0.2873  0.0021 -0.1604
29400W        W45209  11.382   8.522  12.477  0.3162  0.0285  0.2328
29401W        W45210  15.999  14.563  10.462  0.0305 -0.1459 -0.1462
29402W        W45211  17.257   2.033   2.104 -0.0447  0.3049 -0.0336
29403W        W45212  10.382  17.378  13.393  0.2044 -0.1507 -0.1896
29404W        W45213   8.513   1.433  14.013  0.0622  0.0922  0.1819
29405W        W45214  14.595  14.442   2.286 -0.1772 -0.2967  0.2143
29406W        W45215   3.995   4.353  12.831  0.0881  0.2078  0.0915
29407W        W45216  14.822   2.975  11.759 -0.0567  0.1462  0.1006
29408W        W45217   3.191  10.716   2.801  0.1046  0.0177  0.1293
29409W        W45218   1.092  16.514  15.523  0.1665 -0.0882  0.0017
29410W        W45219  10.164  10.080  12.581  0.2026  0.3442  0.1466
29411W        W45220   6.573   6.027   5.748 -0.0443 -0.0060 -0.1573
29412W        W45221   1.331   3.799  14.374 -0.0315  0.1020 -0.1268
29413W        W45222  11.436  13.911  13.683  0.1218 -0.1890 -0.1501
29414W        W45223   8.794   3.007  14.260 -0.0151 -0.0592 -0.3046
29415W        W45224   8.648   7.370  13.772  0.0410  0.2181  0.0839
29416W        W45225   7.106  10.120   1.354  0.3135  0.3054 -0.1406
29417W        W45226  14.995   1.323  13.046  0.1425  0.1805  0.1599
29418W        W45227   3.632  17.431   5.293 -0.0437  0.0262 -0.0860
29419W        W45228   8.135   9.235   2.719  0.0622 -0.0946 -0.3245
29420W        W45229  17.230   9.338   1.910  0.1608 -0.1632 -0.3195
29421W        W45230   0.395   6.389   4.397 -0.3838 -0.2211  0.0272
29422W        W45231  16.169   9.068  12.608 -0.1155  0.3700 -0.2275
29423W        W45232  13.664  16.290   3.314  0.1734  0.1366 -0.3685
29424W        W45233   8.917   6.400   3.841  0.3226  0.0580  0.1238
29425W        W45234   2.354  18.263   0.533 -0.1523  0.2338  0.2262
29426W        W45235   0.644   8.445   2.822 -0.0091  0.0105  0.1424
29427W        W45236   2.865  15.464   4.221  0.2162 -0.0578  0.1611
29428W        W45237   5.027   5.583  11.575 -0.2109 -0.2289  0.0297
29429W        W45238  10.747   3.440  13.246 -0.0645  0.1546 -0.2812
29430W        W45239  14.146  10.203   3.477  0.0552  0.4456 -0.0100
29431W        W45240  10.723   9.563  13.615 -0.0644  0.2224  0.0806
29432W        W45241  16.127   5.598   4.547  0.0979  0.2871 -0.0822
29433W        W45242  10.516   8.241   3.662  0.0398 -0.1565  0.1036
29434W        W45243   2.609  16.335   4.194  0.2255 -0.0290 -0.2207
29435W        W45244  14.670   2.412   1.678  0.0361  0.0749  0.2593
29436W        W45245   9.524  12.223  13.014 -0.0279 -0.0320 -0.0039
29437W        W45246   2.522   4.064   1.789 -0.2269  0.1507  0.3103
29438W        W45247   4.432  11.899   4.066  0.1798 -0.1741  0.0542
29439W        W45248   1.021   5.521  15.446 -0.4758  0.1072 -0.0451
29440W        W45249   0.887   9.706   1.077  0.0663 -0.2666  0.0866
29441W        W45250   8.220  14.997  12.945  0.0473  0.0424 -0.0898
29442W        W45251  14.517  17.037   1.932  0.2066  0.0558 -0.2501
29443W        W45252  17.654  16.813   3.315 -0.0145  0.2033  0.1818
29444W        W45253  17.397  13.793   1.424 -0.0271  0.2408 -0.0727
29445W        W45254   0.325  13.465  11.935  0.1287 -0.0369  0.1720
29446W        W45255  17.823  13.973  15.312  0.0628  0.1750  0.0060
29447W        W45256  15.952   2.871  13.346  0.0741 -0.1511  0.2005
29448W        W45257  12.972  10.636  15.948  0.0109  0.1527 -0.0765
29449W        W45258  14.329  13.302   0.434 -0.0481 -0.0276 -0.0169
29450W        W45259  10.873   1.417  14.274 -0.1246  0.0437  0.0832
29451W        W45260  10.805  10.621  13.131  0.0982  0.2706  0.0419
29452W        W45261   5.275   8.739  12.307 -0.2273  0.1987  0.4809
29453W        W45262   5.941  13.694  11.672 -0.1477  0.0517 -0.0611
29454W        W45263   3.276   4.449  14.151 -0.0926  0.0748  0.2786
29455W        W45264   4.837  14.872   3.295  0.0491  0.1659 -0.2598
29456W        W45265  12.224   7.540  13.787 -0.0590  0.0995  0.0995
29457W        W45266  11.962   5.590  15.947 -0.1202  0.0085  0.0965
29458W        W45267  13.035  16.179  12.610  0.1581  0.2511 -0.0533
29459W        W45268   3.405  18.166   2.042 -0.0270 -0.1854  0.1253
29460W        W45269  16.106   3.494  14.184  0.0470 -0.3269  0.0333
29461W        W45270   3.608   5.962  11.845  0.0129  0.1500 -0.0018
29462W        W45271  16.432  16.298   1.989 -0.0068  0.2116 -0.0299
29463W        W45272   7.360  14.705   0.257  0.0939 -0.1033 -0.1127
29464W        W45273  17.441   4.080  12.119  0.2161  0.2074  0.0732
29465W        W45274  11.590  17.899   1.973 -0.2151  0.0507 -0.0719
29466W        W45275  17.407   8.163  11.747  0.1262  0.0649  0.3105
29467W        W45276  14.418  12.339  13.764  0.0424 -0.1348 -0.0880
29468W        W45277  10.225  14.533   3.208  0.0107 -0.2122 -0.0635
29469W        W45278  14.373   7.955  11.348  0.2358 -0.0406 -0.0344
29470W        W45279   6.583   0.571   0.648  0.1482  0.0317 -0.1479
29471W        W45280   3.047   3.914   5.206  0.0359 -0.0507 -0.0817
29472W        W45281  12.171  16.737  15.518 -0.2559 -0.1030 -0.1078
29473W        W45282   9.358   9.608  11.667  0.0579  0.0125  0.0540
29474W        W45283   7.418  12.936  14.639  0.1113 -0.0414  0.1176
29475W        W45284   9.863   6.350  11.009 -0.0050 -0.2026 -0.1735
29476W        W45285  11.055   9.503   3.622 -0.1055  0.2717  0.1413
29477W        W45286  15.053   9.694   3.427 -0.1527  0.0370 -0.3115
29478W        W45287  13.578   5.910   2.163 -0.0771 -0.0275 -0.2293
29479W        W45288   0.123   2.831  13.755 -0.0856  0.0248 -0.0093
29480W        W45289  14.731   8.312   3.991 -0.1267  0.0067 -0.1985
29481W        W45290  14.591   1.109  13.207  0.0878 -0.3332 -0.1753
29482W        W45291   7.395   8.542  12.939 -0.1444 -0.2836  0.2869
29483W        W45292   7.213   6.492   1.958  0.1870  0.2023  0.3120
29484W        W45293   2.230  18.231   0.046 -0.0364  0.2237  0.0426
29485W        W45294  13.812   3.168  14.429  0.1477 -0.0869  0.3569
29486W        W45295  13.293  14.883   4.508 -0.0221 -0.1502 -0.2818
29487W        W45296   7.225   4.100   0.025 -0.1641  0.4398 -0.0588
29488W        W45297   9.543   2.166  13.267  0.1567  0.0026  0.1375
29489W        W45298   2.538   1.173   5.135 -0.2454 -0.2546 -0.0126
29490W        W45299  12.220   2.070  11.407 -0.1055  0.1992 -0.1303
29491W        W45300   4.775  16.167  13.574 -0.1779 -0.0802  0.0505
29492W        W45301   9.217  11.710   4.337 -0.0812  0.3814 -0.1771
29493W        W45302  12.543   4.347  13.541 -0.0997 -0.2685 -0.0170
29494W        W45303   0.904   6.687   5.093  0.1745 -0.0658  0.0987
29495W        W45304   1.232  11.617   0.987 -0.2779  0.1026  0.1336
29496W        W45305  14.852   9.197   4.683 -0.1705 -0.2507  0.2433
29497W        W45306  16.897  16.742   2.750 -0.2461  0.1457 -0.0031
29498W        W45307   2.269   3.344  13.167 -0.1316  0.1621  0.1278
29499W        W45308  13.959   7.731  12.338 -0.0519  0.1675 -0.1486
29500W        W45309  15.017  14.510   4.621  0.0635 -0.0967  0.1239
29501W        W45310  10.198   7.615  12.832  0.0805 -0.0865  0.0614
29502W        W45311  10.978  11.913   5.036 -0.3261 -0.1310  0.0399
29503W        W45312   6.261  14.326  15.869  0.0474 -0.2781  0.0433
29504W        W45313  18.098  12.463   2.436 -0.1303  0.1079  0.0316
29505W        W45314   9.474  16.036   5.154  0.2802 -0.2005 -0.1335
29506W        W45315  11.329   5.551   6.700 -0.0194  0.0400  0.0551
29507W        W45316   0.916   0.097   4.693 -0.1589  0.2746 -0.0629
29508W        W45317  12.227   0.517   1.020  0.0629  0.0100 -0.0147
29509W        W45318   6.771   7.288   0.005  0.0977  0.1264 -0.1495
29510W        W45319   1.782  10.456   1.448 -0.0085 -0.1743 -0.0972
29511W        W45320   3.513   1.130  11.348 -0.0694  0.2035 -0.1648
29512W        W45321   6.873  16.496   3.899  0.0772 -0.4321  0.1182
29513W        W45322   3.721   6.511  15.100  0.2126  0.1112 -0.2668
29514W        W45323  17.554  11.477  13.770 -0.2630 -0.0265  0.1171
29515W        W45324  15.577  17.236  14.769  0.1005 -0.1995 -0.1581
29516W        W45325   4.578  13.947   1.941 -0.0012  0.0581  0.1862
29517W        W45326   0.229  14.844  15.729  0.3372 -0.0615 -0.2216
29518W        W45327   8.011   3.098  12.023  0.1231  0.0453 -0.2852
29519W        W45328  11.735  16.063   4.461  0.1028 -0.1338  0.1898
29520W        W45329   0.677  13.642   4.879 -0.1419  0.0463  0.1681
29521W        W45330  13.153  14.693  11.276  0.0088  0.1804 -0.2448
29522W        W45331  14.604  12.975   3.119 -0.3098  0.1841 -0.1187
29523W        W45332   6.284  10.878   5.162 -0.1802  0.0268 -0.0867
29524W        W45333   9.052   5.685   0.440 -0.4603 -0.1282  0.1391
29525W        W45334   6.861  14.739   3.945  0.3041  0.0219 -0.1050
29526W        W45335   6.804   4.785   5.424  0.1128  0.1340 -0.2385
29527W        W45336  11.566  13.086  13.108  0.3232 -0.0397 -0.0368
29528W        W45337  14.002  12.173   3.908  0.1238  0.2590 -0.3553
29529W        W45338  17.358   3.195   3.953 -0.0965  0.1421 -0.1295
29530W        W45339   1.271   4.001  12.311 -0.3182 -0.0219  0.2107
29531W        W45340  11.261  15.968   5.381  0.2625 -0.2691  0.1508
29532W        W45341   6.627  14.807  10.775  0.0692  0.3970 -0.1308
29533W        W45342   2.179  17.570   3.403 -0.0609  0.1538 -0.1091
29534W        W45343  14.523   1.389  15.469 -0.2384  0.0986  0.1827
29535W        W45344  11.578   0.139  13.171  0.2071  0.1271  0.1441
29536W        W45345  16.107   5.121   4.719 -0.0190  0.0013  0.0331
29537W        W45346  17.537   9.958  15.280  0.0775  0.2596 -0.1959
29538W        W45347  10.855   0.047   0.975 -0.0923 -0.2551 -0.2070
29539W        W45348   8.705  17.441  15.497  0.0065  0.0276 -0.0283
29540W        W45349  13.944  15.646  12.456 -0.0081 -0.3274  0.1173
29541W        W45350  13.735  15.221   4.419  0.0080  0.2871 -0.0911
29542W        W45351   0.766  14.328   4.122  0.0320 -0.0776 -0.1121
29543W        W45352   4.434   9.610  13.636  0.0114 -0.2542 -0.1842
29544W        W45353  17.934   1.190  12.163 -0.1556 -0.1343 -0.0353
29545W        W45354  15.813   6.470   5.785  0.1876  0.0787 -0.3479
29546W        W45355   4.717  11.255   0.493 -0.2563  0.2244  0.2595
29547W        W45356  10.596  15.212   1.861  0.1827 -0.0706  0.0550
29548W        W45357  12.538  11.338  11.657 -0.1985 -0.0029  0.4814
29549W        W45358   2.748  16.735   0.519 -0.2020 -0.0659 -0.3488
29550W        W45359   4.533  17.644   2.745 -0.0717  0.1810  0.1449
29551W        W45360  11.082   7.433   4.932  0.1128 -0.1044  0.2730
29552W        W45361  17.397   0.193   2.859 -0.2263 -0.3333  0.1460
29553W        W45362  15.532   9.071  13.018 -0.0325 -0.0724 -0.1779
29554W        W45363   7.123  15.397  12.956 -0.1657 -0.2437  0.1357
29555W        W45364   6.218   3.785  13.429  0.1013 -0.1545 -0.4588
29556W        W45365  11.672   4.441   0.414  0.0953  0.1100 -0.1778
29557W        W45366  16.224  11.272   3.932 -0.0716 -0.0934 -0.2431
29558W        W45367  11.089   1.178   0.490 -0.1991  0.0516 -0.1060
29559W        W45368   6.056  14.580  12.577 -0.1672 -0.1887 -0.2568
29560W        W45369   4.140   0.054   3.487  0.2768 -0.0539 -0.0913
29561W        W45370  17.667   1.592   1.318 -0.0377  0.0213 -0.3479
29562W        W45371   3.783   3.309   1.347 -0.0882  0.0301 -0.1400
29563W        W45372   2.865  15.729   1.303 -0.0118 -0.0404 -0.1041
29564W        W45373   5.378   0.728  12.700  0.0356 -0.1528  0.1934
29565W        W45374  10.052  17.350  13.763  0.3262  0.0076 -0.0313
29566W        W45375   6.185  10.359   1.210 -0.3934 -0.2146 -0.0219
29567W        W45376   4.616  12.510  12.504 -0.2229  0.1301 -0.0254
29568W        W45377   6.231   0.811   5.979 -0.2786 -0.1015 -0.2241
29569W        W45378   1.422   3.332  12.803  0.0753  0.1465 -0.1372
29570W        W45379   9.418   6.432  10.758  0.0532 -0.0112  0.0248
29571W        W45380   1.525   8.083   5.350 -0.1966  0.0587 -0.0344
29572W        W45381   7.986  11.748   3.460  0.1135 -0.3476  0.0002
29573W        W45382  15.357   2.397   0.733  0.2565 -0.1973  0.1710
29574W        W45383  13.833   5.010   4.619  0.2859 -0.3108  0.0565
29575W        W45384  10.008   5.974  12.729 -0.0647  0.3092  0.2450
29576W        W45385   3.625   6.832   0.573 -0.2779  0.0284 -0.3132
29577W        W45386  11.041   1.069   5.466 -0.0423 -0.0615  0.0706
29578W        W45387  11.436   7.749  12.556 -0.0120 -0.0124 -0.0162
29579W        W45388   3.048  11.845  12.255 -0.0581  0.0438  0.0391
29580W        W45389  11.801   8.371   1.420  0.0324 -0.0354 -0.1461
29581W        W45390  11.095  13.555  10.532 -0.0776 -0.0519 -0.2488
29582W        W45391   3.010   0.435  13.082  0.1062  0.1725 -0.5236
29583W        W45392  13.174   3.237   1.353 -0.2719  0.0649 -0.0742
29584W        W45393  16.349   8.237   1.057 -0.2753 -0.3386  0.0286
29585W        W45394  15.283  11.640   4.959  0.3048 -0.0358 -0.1486
29586W        W45395  10.794   8.776   1.765 -0.0609 -0.3244 -0.5391
29587W        W45396   3.591  17.951   2.448  0.0760  0.0259  0.1248
29588W        W45397   6.896  10.671   0.593  0.0369 -0.1874  0.2896
29589W        W45398  13.566   5.489   4.366 -0.0852 -0.0611  0.0618
29590W        W45399   3.812  12.743  15.057  0.2356  0.1900 -0.1533
29591W        W45400   2.540  12.737   3.674 -0.2972  0.2465 -0.2164
29592W        W45401   7.129   6.502   0.353  0.1609  0.0742  0.0856
29593W        W45402   8.755  13.618  10.980  0.2614 -0.3357  0.3190
29594W        W45403   3.149  16.865   3.617  0.0160  0.1157  0.0540
29595W        W45404   9.526  13.295   3.356  0.2914  0.0018  0.2776
29596W        W45405  13.046  13.417  15.120 -0.0867  0.0210 -0.4202
29597W        W45406   2.677   1.053  11.818  0.2763  0.2230  0.1149
29598W        W45407   2.026  14.866   3.545  0.1683  0.2215  0.1846
29599W        W45408  17.353   1.117   1.709 -0.1417  0.2926  0.0112
29600W        W45409  10.463  15.518   5.504  0.0396 -0.1179  0.0237
29601W        W45410  12.702   0.831  13.623 -0.1536 -0.1806  0.1659
29602W        W45411   5.842  15.991   3.206 -0.1760  0.2138 -0.1926
29603W        W45412  15.377  12.577   3.393 -0.0544 -0.1184  0.2639
29604W        W45413  10.395   7.056   3.698  0.0320 -0.2674 -0.1352
29605W        W45414   1.593  14.258   1.527  0.1483  0.0021  0.2082
29606W        W45415  15.185   7.797   0.346 -0.2665 -0.2006 -0.1077
29607W        W45416   5.426  18.166  12.976  0.0223  0.0150 -0.0186
29608W        W45417   4.740   3.319   3.200 -0.0644  0.0482  0.0997
29609W        W45418  18.229  16.289   0.549  0.1063 -0.0530  0.1958
29610W        W45419   1.760   9.993   1.209  0.0402 -0.4164 -0.0048
29611W        W45420   1.466  14.014  13.400 -0.1786  0.1724 -0.0800
29612W        W45421   2.705   0.677  11.195  0.1497 -0.5143  0.0997
29613W        W45422   8.436  11.127   0.248  0.1191  0.2424  0.0110
29614W        W45423   3.099   7.567   1.084  0.1245  0.2678  0.0447
29615W        W45424  12.501  15.145  11.362 -0.0368  0.0444  0.0454
29616W        W45425   3.822  16.180   0.552 -0.2228  0.2852  0.1546
29617W        W45426   2.965   1.388   0.717  0.0927 -0.3292  0.2400
29618W        W45427   3.515  17.112   3.992 -0.2728  0.0492 -0.2250
29619W        W45428   4.275   7.085  14.863  0.1497  0.2246 -0.1363
29620W        W45429   0.685  12.515  11.009  0.1197  0.0119 -0.0387
29621W        W45430   2.973  12.074  12.705 -0.3267  0.1015 -0.1456
29622W        W45431   7.026   7.048  15.307 -0.0849 -0.3641 -0.0920
29623W        W45432  17.617   9.873  13.041  0.0439 -0.0501 -0.0532
29624W        W45433   3.700  10.440  15.512 -0.0330 -0.1047 -0.1877
29625W        W45434   9.009   8.618  14.849 -0.0635  0.1632  0.1972
29626W        W45435   5.124  10.093  13.315  0.1989  0.0230  0.2367
29627W        W45436  12.797   8.121   4.326  0.4010 -0.0947  0.0021
29628W        W45437  13.106   9.856   1.526 -0.0193  0.1648  0.1213
29629W        W45438   8.120  14.348   5.241  0.0330  0.0416  0.1495
29630W        W45439   3.098  14.855  11.138 -0.0317  0.2137 -0.2640
29631W        W45440  17.461   2.587   2.695 -0.2617  0.0270  0.2154
29632W        W45441   1.483   8.815   4.438  0.1451 -0.1558 -0.3399
29633W        W45442   4.074   9.351  13.308 -0.1314 -0.4586 -0.1901
29634W        W45443   5.937   7.883  14.958 -0.1143 -0.0339  0.1959
29635W        W45444   4.275  16.357  15.751  0.2223 -0.2073 -0.1244
29636W        W45445  15.115  14.305  13.072  0.1500 -0.0791 -0.1777
29637W        W45446  15.772   1.955   1.534  0.1190  0.2231  0.2113
29638W        W45447  17.477   7.223  13.214 -0.1288  0.2324  0.2821
29639W        W45448  14.253  16.966   1.414  0.2850 -0.3133 -0.2882
29640W        W45449  12.882  14.036  11.937 -0.0434 -0.0782  0.0397
29641W        W45450  14.143  17.634  11.214 -0.0034  0.0927  0.1296
29642W        W45451  17.526   3.712  13.980 -0.1526  0.3443 -0.1732
29643W        W45452   5.154   3.554   0.308  0.1819 -0.1664  0.2700
29644W        W45453   2.919   0.729   2.368 -0.1792  0.0810 -0.2368
29645W        W45454  13.742   7.497   4.510  0.0770 -0.2088 -0.0755
29646W        W45455  12.906   0.338   2.970 -0.0830  0.1274  0.0635
29647W        W45456  17.962   0.361  11.604  0.4125  0.0960 -0.0744
29648W        W45457  14.786   4.735  12.533 -0.2110  0.1861 -0.0662
29649W        W45458   3.159   6.133  11.499 -0.0756 -0.0268  0.1579
29650W        W45459   1.320  10.150  13.898  0.0092  0.0007 -0.2534
29651W        W45460  13.618   6.779   2.871  0.0123  0.2314  0.1273
29652W        W45461  16.611  14.669   4.357 -0.0989 -0.2063  0.2278
29653W        W45462   3.926   1.759  12.003  0.1249  0.0635  0.0936
29654W        W45463  11.312   9.442   3.090  0.0626  0.0247  0.2365
29655W        W45464   1.598   5.306   0.540  0.1282 -0.0670 -0.1512
29656W        W45465  12.762   6.013  13.325  0.1224  0.0608 -0.1481
29657W        W45466  11.746  17.455   2.163 -0.1584 -0.1487  0.0342
29658W        W45467  15.377  14.478  15.053 -0.4163 -0.2630 -0.2100
29659W        W45468  12.020   5.949  15.647  0.0538 -0.1146  0.2489
29660W        W45469  14.763  11.455  14.221  0.1719  0.0513  0.0902
29661W        W45470   7.680  13.184   1.132  0.0218  0.1957  0.0530
29662W        W45471   3.954  11.109   4.391 -0.1720 -0.1116 -0.1663
29663W        W45472   9.182  15.131  15.074  0.0946  0.0524 -0.1844
29664W        W45473   5.877  17.571   2.238  0.2473 -0.3254  0.1817
29665W        W45474   8.038  15.837   0.621  0.0846 -0.0249 -0.0338
29666W        W45475   5.794  13.208  11.971 -0.0989 -0.2290 -0.2715
29667W        W45476  18.202  10.450  12.495  0.1526 -0.1684  0.2843
29668W        W45477   0.511   5.665   3.177 -0.2259  0.2802 -0.1226
29669W        W45478   3.717  13.027   2.402  0.0022 -0.0514  0.0854
29670W        W45479  12.351  11.496  12.580 -0.1978 -0.2140  0.2167
29671W        W45480  13.276  14.376  11.996 -0.0263 -0.2462  0.1985
29672W        W45481  17.544   3.807  15.246 -0.0753  0.0477 -0.2290
29673W        W45482   8.507  17.300  13.952  0.1935 -0.0944  0.1193
29674W        W45483  12.561  17.521   0.396  0.1550 -0.0083 -0.2811
29675W        W45484   7.830   9.560  15.944 -0.0940 -0.1508  0.0616
29676W        W45485   9.216  15.813   4.131  0.1828 -0.0779 -0.0964
29677W        W45486  13.705  15.601  11.031  0.1325  0.0773  0.0040
29678W        W45487   6.188   6.397  14.958  0.0889  0.2442  0.1887
29679W        W45488  13.956  14.235   5.365  0.2025 -0.0693  0.2305
29680W        W45489   2.185  14.975   1.737  0.0748  0.1802  0.4489
29681W        W45490  12.639   5.631   1.953  0.3717 -0.5088 -0.0434
29682W        W45491  13.546  11.130  10.832  0.1274 -0.0563  0.1382
29683W        W45492  12.139   4.178   5.602  0.0731  0.1631 -0.1321
29684W        W45493   2.522   1.478   2.281  0.1611  0.2688 -0.1286
29685W        W45494   6.420  13.988  15.463 -0.0320 -0.0663  0.2037
29686W        W45495   9.288   7.204  11.155 -0.0307  0.4589 -0.1247
29687W        W45496   2.781   6.722   4.137 -0.0064 -0.0452  0.5140
29688W        W45497   4.723   3.892   4.572 -0.0052 -0.0487 -0.0887
29689W        W45498  17.184   8.664   2.915  0.1508  0.1285 -0.2077
29690W        W45499  11.926  15.286   0.133  0.1298  0.3164  0.3716
29691W        W45500   7.525  14.917  14.832 -0.0135 -0.1614 -0.0222
29692W        W45501   5.262   9.911   1.366 -0.1978  0.2023  0.2222
29693W        W45502  14.256   9.629   0.161  0.2853 -0.1275 -0.0411
29694W        W45503  10.514   5.229  13.500  0.3568  0.0330 -0.0829
29695W        W45504   9.653  10.364  11.470 -0.1480  0.4341  0.1746
29696W        W45505  15.898  16.150  12.794  0.2061 -0.0576 -0.2049
29697W        W45506   4.064  10.630   5.978 -0.1649 -0.2085 -0.1131
29698W        W45507   7.739  16.260   1.374 -0.1046  0.1207  0.0971
29699W        W45508  17.933   3.722   1.946  0.4119  0.1798  0.1303
29700W        W45509   6.919  18.258   4.105 -0.2436  0.0752  0.0751
29701W        W45510   6.587  11.832   4.236 -0.1530  0.0445 -0.0296
29702W        W45511   2.885   2.802   3.788  0.1768 -0.0096 -0.0854
29703W        W45512   0.191   0.568  12.760 -0.0708  0.0847  0.3736
29704W        W45513   1.740   2.896  10.909 -0.2616  0.0716  0.2244
29705W        W45514   3.040   6.492   4.536 -0.1783  0.2479  0.0481
29706W        W45515   8.370  18.110   4.674 -0.0544 -0.2592  0.2258
29707W        W45516   4.372  16.463   5.227  0.1243  0.0157  0.1948
29708W        W45517   3.799  10.205  11.523 -0.0866  0.0857 -0.0310
29709W        W45518  10.604   4.112   3.255  0.1377 -0.2143  0.1596
29710W        W45519   4.493   6.072  13.028  0.1126 -0.1580 -0.0439
29711W        W45520  10.425   8.190  12.133  0.5741  0.0524 -0.2972
29712W        W45521   2.405  12.813  10.057 -0.2027 -0.0364  0.1763
29713W        W45522   5.508  12.556   4.707 -0.5241 -0.5843  0.1357
29714W        W45523   5.641  10.340   5.770  0.2683  0.1193 -0.0358
29715W        W45524  12.111   2.225   0.148  0.4695 -0.0751 -0.1228
29716W        W45525  13.577  17.700   0.500  0.0336  0.0413 -0.2432
29717W        W45526   1.010  10.382   3.818  0.0646  0.4871 -0.0501
29718W        W45527   0.594   7.503   4.275  0.2154 -0.0229 -0.1431
29719W        W45528   8.784  11.825   4.873  0.1705  0.1144 -0.3817
29720W        W45529   8.205  17.254   0.916 -0.1927 -0.0101 -0.0236
29721W        W45530   2.104  12.070  12.623  0.1721  0.0703  0.2893
29722W        W45531   3.702   2.238   1.115  0.2101  0.0490  0.0695
29723W        W45532  14.653  15.847   2.379 -0.1842  0.2384 -0.2076
29724W        W45533  16.583  12.336  10.091  0.1851 -0.1118 -0.0253
29725W        W45534  16.992   7.236  12.909  0.0494  0.1745 -0.2150
29726W        W45535   3.186   3.003  15.806  0.0947 -0.1471  0.1566
29727W        W45536  14.038  17.425   5.103  0.2113  0.0694  0.0832
29728W        W45537  14.200  10.126   5.228  0.3308 -0.1243  0.1086
29729W        W45538   2.896  13.061   1.141 -0.0183 -0.2315 -0.3955
29730W        W45539   1.730   8.860  14.208  0.3700 -0.2514 -0.0312
29731W        W45540   4.050  10.833   1.276  0.0251 -0.1577 -0.3175
29732W        W45541   9.495  16.627  13.275 -0.1274 -0.3351  0.2539
29733W        W45542   3.154   2.749   1.774 -0.1183 -0.1546  0.1747
29734W        W45543  11.801   1.905   0.396  0.0155  0.1443 -0.0037
29735W        W45544  14.754   7.528   0.862  0.1140  0.0762 -0.2238
29736W        W45545  16.568   5.982  11.656  0.2854 -0.2411  0.2501
29737W        W45546   7.651  15.385   1.747 -0.0850 -0.0849  0.1685
29738W        W45547   7.935   6.233   0.069  0.0123 -0.1383 -0.1600
29739W        W45548  17.447  14.132  13.787 -0.1938  0.3702  0.0854
29740W        W45549  12.802   3.420  14.781 -0.0837 -0.1018 -0.0662
29741W        W45550   4.917   9.398  13.755 -0.1923  0.1004  0.0525
29742W        W45551  15.485   9.547  12.957  0.1439  0.0831 -0.1890
29743W        W45552   9.637  17.017   0.961 -0.1328 -0.1224  0.0405
29744W        W45553   6.167   5.128  11.393 -0.1301  0.0285  0.0366
29745W        W45554  15.220   1.094  15.028 -0.3470  0.1013 -0.0511
29746W        W45555  12.434   6.098   4.621  0.0606  0.2246  0.0464
29747W        W45556  14.738   9.544   1.769 -0.0495 -0.0069  0.0752
29748W        W45557   2.848  16.169   3.403 -0.0820  0.1877  0.0180
29749W        W45558   6.137   5.283  12.104  0.2865  0.1332 -0.1945
29750W        W45559   9.029  12.698  15.240 -0.0464  0.0987 -0.2065
29751W        W45560  15.510  14.495  12.478 -0.4522 -0.0532 -0.2875
29752W        W45561  16.724   9.678   4.681 -0.0287  0.1283  0.0349
29753W        W45562   9.665   1.058   4.365 -0.5681 -0.2701 -0.0980
29754W        W45563   7.945  17.041  14.782 -0.0346 -0.3513  0.1591
29755W        W45564  11.586  11.578   0.676  0.1683  0.1107  0.0406
29756W        W45565   2.182   1.165  15.501  0.1216  0.0446  0.2442
29757W        W45566  13.735   4.873   5.155 -0.0793 -0.1706  0.2197
29758W        W45567  12.754   5.189   3.192 -0.1449  0.0348  0.1668
29759W        W45568   2.434   2.576  12.300  0.0208 -0.1047  0.0501
29760W        W45569   3.199   4.457  12.351  0.2637  0.0472 -0.3901
29761W        W45570   3.617   9.967  12.001  0.1483  0.0815 -0.0559
29762W        W45571   5.886  15.870  11.011  0.1730  0.0310 -0.0894
29763W        W45572   2.318   6.401   5.278 -0.2361 -0.1191  0.0999
29764W        W45573   1.751  16.750  12.941 -0.0366 -0.1413 -0.1108
29765W        W45574  16.624   9.737   3.764 -0.0467  0.0958  0.0926
29766W        W45575   3.971   5.529   3.858 -0.2881  0.4366  0.0671
29767W        W45576  12.524  17.982   4.424 -0.0372  0.1764  0.2395
29768W        W45577  15.683   3.160   0.365  0.1923  0.0669 -0.1843
29769W        W45578   3.265   9.366   2.725  0.0993 -0.3518 -0.2100
29770W        W45579   1.109   5.534   0.306  0.0506 -0.0233 -0.0732
29771W        W45580   4.025  17.238   4.932  0.0684  0.0358 -0.0189
29772W        W45581   5.335  15.207  12.906 -0.0854  0.0577 -0.2124
29773W        W45582   7.550  13.421  11.548 -0.6310  0.0452 -0.2541
29774W        W45583  10.032  17.357  14.405  0.2391 -0.2544 -0.1948
29775W        W45584   3.536  14.555   2.125 -0.0483  0.2058  0.0865
29776W        W45585   2.965   6.619   3.132 -0.1580  0.0630  0.0304
29777W        W45586  14.714   5.299  14.152  0.0519  0.2129 -0.0138
29778W        W45587   2.439  11.395  12.988  0.3389 -0.0243  0.0799
29779W        W45588   8.347  14.585  13.211 -0.2183 -0.1543  0.2403
29780W        W45589   4.148   8.489   3.865 -0.3457  0.0481 -0.1684
29781W        W45590  15.550  10.849  14.863 -0.0181 -0.1753 -0.4322
29782W        W45591   0.336   9.397  14.645  0.1881 -0.1609  0.0163
29783W        W45592   6.941  10.761  11.511 -0.2305 -0.3876  0.0457
29784W        W45593   3.014   0.189   1.239  0.2440  0.0666 -0.0366
29785W        W45594   1.469   8.809  11.852  0.0951 -0.1780  0.0888
29786W        W45595   2.460   2.445   0.767  0.3569 -0.0458  0.2413
29787W        W45596  10.714   4.280   1.464 -0.1295 -0.0641 -0.1100
29788W        W45597  15.485   4.683  13.040 -0.0129 -0.0413 -0.0106
29789W        W45598   6.297  14.505  15.348  0.1429  0.1820 -0.1738
29790W        W45599  17.221  15.701   2.880 -0.1528 -0.0458  0.2041
29791W        W45600  11.517   2.943  10.623  0.0452  0.0930 -0.1645
29792W        W45601   8.193  15.551   2.442  0.1139  0.1450 -0.0560
29793W        W45602   5.684  15.512   1.279 -0.1451 -0.3466 -0.1767
29794W        W45603   6.505  12.085   0.536 -0.0708 -0.2632  0.0745
29795W        W45604   4.745   0.093  12.199 -0.0478  0.2266 -0.4284
29796W        W45605   4.020  12.062   0.321 -0.1846  0.0768 -0.1893
29797W        W45606  17.373   4.522   0.669  0.1395 -0.0338  0.1099
29798W        W45607   7.078  17.422  10.811  0.1366 -0.1423  0.1913
29799W        W45608   1.172   5.526  13.803  0.1774 -0.0261 -0.0623
29800W        W45609  11.729  17.864   5.408 -0.1346  0.2859  0.0842
29801W        W45610   9.472   4.197  12.201  0.0053  0.2409  0.0593
29802W        W45611   7.440  11.412   1.494 -0.0033 -0.3646  0.0412
29803W        W45612  14.050   5.773   0.971  0.1186 -0.2124 -0.0483
29804W        W45613   9.737  12.578  11.645 -0.0380 -0.0572 -0.1393
29805W        W45614  16.615  13.168  14.207 -0.0276 -0.1573 -0.1286
29806W        W45615   1.096  14.946   2.015 -0.1342 -0.2011 -0.2288
29807W        W45616   9.688  18.247  12.214  0.1661 -0.0286  0.1456
29808W        W45617  18.268  11.221   0.663  0.1671 -0.2062  0.1544
29809W        W45618   8.994  13.060  13.775 -0.1706  0.1468 -0.0615
29810W        W45619  10.925  11.482   4.421  0.3201  0.1376  0.1427
29811W        W45620   8.269   8.500   3.973  0.1444  0.0096 -0.3022
29812W        W45621   4.827  18.149  11.250  0.0127  0.1189 -0.0932
29813W        W45622   5.152   2.662  11.781 -0.2306  0.1023 -0.1994
29814W        W45623  17.020  16.174   4.135  0.2366 -0.1153 -0.1257
29815W        W45624   2.679   3.625  14.126 -0.1057 -0.2754 -0.0524
29816W        W45625  16.794   8.237   4.898  0.0443 -0.0928  0.1516
29817W        W45626   1.076   4.984   1.081  0.1849  0.1587 -0.1458
29818W        W45627  12.118  10.675  13.058 -0.1113 -0.0531 -0.1921
29819W        W45628   9.623  11.039  12.305  0.0379 -0.1303 -0.0673
29820W        W45629   0.165  15.557   2.059 -0.1892 -0.0621  0.1727
29821W        W45630   4.395   6.838   2.769  0.3125 -0.0560 -0.0502
29822W        W45631  14.299   2.763  11.653 -0.0441  0.3487 -0.2824
29823W        W45632   9.739   4.818   5.861 -0.0841  0.0695 -0.1113
29824W        W45633   6.003  10.592   3.213  0.2034 -0.1819 -0.0761
29825W        W45634  12.571  17.941   2.180 -0.3332  0.0266 -0.0623
29826W        W45635  13.255   1.385   1.252 -0.1834 -0.0771  0.1619
29827W        W45636   1.170   6.475   1.006 -0.0476  0.0422  0.4222
29828W        W45637   0.538   4.935  10.903  0.2457 -0.1082 -0.2219
29829W        W45638  10.117  11.865  11.396  0.4256 -0.4090 -0.0823
29830W        W45639  13.654  12.713   3.334 -0.0817 -0.1265  0.1568
29831W        W45640   9.233   9.181   3.716 -0.0859  0.3336 -0.0429
29832W        W45641  12.208  13.516  14.230 -0.0941  0.1130 -0.3965
29833W        W45642  11.168   5.415  13.266 -0.2690 -0.0982  0.0032
29834W        W45643   5.110  17.652   3.411 -0.3983 -0.0251 -0.1061
29835W        W45644   7.208  12.014   5.243  0.0946 -0.0361 -0.1011
29836W        W45645  16.781   1.470   5.089 -0.1253  0.1443  0.3294
29837W        W45646   1.611  12.668  14.329  0.2631  0.1276 -0.0351
29838W        W45647  16.219  11.533  14.659 -0.4725  0.2540 -0.1780
29839W        W45648  14.370   5.836   2.720  0.2329 -0.3152  0.3224
29840W        W45649   3.808  12.989   1.009 -0.0973  0.0244  0.3058
29841W        W45650   8.820   2.005  15.233  0.1156  0.0457 -0.0325
29842W        W45651   6.394  16.755  12.139 -0.0069  0.0715 -0.0468
29843W        W45652   9.267  10.520  11.940 -0.0397  0.2769  0.2577
29844W        W45653  11.373  14.916   6.185  0.0440  0.1096  0.1221
29845W        W45654  15.247   1.537  12.240  0.2124  0.0036  0.0842
29846W        W45655   4.083   1.475   2.190  0.0674 -0.0643  0.0210
29847W        W45656  10.636   5.798  10.558  0.2509 -0.1406 -0.1760
29848W        W45657   9.713  12.517  14.105 -0.1053  0.1504 -0.1385
29849W        W45658  15.617  12.133   4.069 -0.3095  0.0154 -0.2893
29850W        W45659  12.442   7.247  10.225  0.1512 -0.2814 -0.0709
29851W        W45660   2.207   0.228  11.947 -0.1206  0.0850  0.1544
29852W        W45661   7.061  13.700   1.370 -0.1998 -0.0671 -0.0959
29853W        W45662  17.936   3.225   1.661 -0.0084 -0.2572  0.0515
29854W        W45663   2.135   1.685   0.849  0.2010  0.1838  0.1094
29855W        W45664  14.044  10.097   1.350  0.0375  0.2002 -0.2000
29856W        W45665  13.796  13.631   4.406  0.1818  0.1086 -0.1102
29857W        W45666  11.895  15.401  15.293 -0.0540  0.0736  0.1321
29858W        W45667   3.305   3.967   2.492 -0.3578 -0.1764  0.0565
29859W        W45668   9.066   5.741   2.740  0.2436 -0.3036  0.4958
29860W        W45669  16.699  11.705   3.304  0.0706  0.1431 -0.0265
29861W        W45670  12.901   6.020  12.020 -0.0189  0.3272  0.1372
29862W        W45671  12.828  13.675   1.416  0.1181 -0.0819 -0.0688
29863W        W45672   4.352   3.655  12.437 -0.0979  0.0725  0.0981
29864W        W45673   4.378  16.076   2.232 -0.0995  0.1096  0.0986
29865W        W45674  12.238   5.661   1.037  0.0355 -0.2631 -0.1153
29866W        W45675   1.018   6.508  13.770  0.1658 -0.1189 -0.0481
29867W        W45676   4.293  17.170   1.013  0.0753 -0.1874  0.1955
29868W        W45677  14.912   5.591   2.294 -0.3989 -0.1146  0.0750
29869W        W45678   1.130  17.495   3.617 -0.0452 -0.2642 -0.0107
29870W        W45679   6.468   6.163   2.822 -0.0623  0.0122  0.2952
29871W        W45680   2.294  12.276  14.797 -0.0491  0.0535 -0.1421
29872W        W45681  12.198   5.349  13.320 -0.1027 -0.1240  0.0477
29873W        W45682   0.558   1.507   4.149 -0.2659 -0.1279 -0.1113
29874W        W45683  16.985   5.208  11.260 -0.2646 -0.4181  0.0776
29875W        W45684  11.002   3.000  11.461 -0.0556  0.1217 -0.1369
29876W        W45685  10.891  15.762   5.682  0.1984  0.0143  0.0541
29877W        W45686  15.104  13.464  15.072 -0.0525 -0.1752 -0.1609
29878W        W45687   8.997   8.536   2.452  0.1320  0.0970  0.2994
29879W        W45688  11.906   6.524   1.305  0.0178  0.0200  0.0517
29880W        W45689   5.690  16.344   2.806 -0.1672 -0.2781  0.1160
29881W        W45690  10.076  12.322  15.057 -0.0480 -0.0679 -0.1002
29882W        W45691   4.089   2.591   1.035 -0.0662  0.0573 -0.4254
29883W        W45692   8.869  11.330  12.568  0.0069 -0.0537  0.0838
29884W        W45693  12.404  14.472  12.595  0.0784  0.1462 -0.3002
29885W        W45694   5.864   7.315   0.441 -0.1622 -0.1359  0.1125
29886W        W45695   0.196   5.362   1.344 -0.0598 -0.2417  0.2957
29887W        W45696   6.416   8.610   4.184 -0.1950  0.0038  0.2155
29888W        W45697   8.222   7.529   3.888 -0.0113  0.0572  0.2490
29889W        W45698   2.423  14.570  12.193  0.0314 -0.0228  0.0415
29890W        W45699  13.398  11.163   2.809 -0.3142  0.1406 -0.1232
29891W        W45700  13.174  13.156  11.069 -0.0181 -0.1352 -0.1178
29892W        W45701   1.628   3.858  11.951  0.2342 -0.1500  0.0352
29893W        W45702  12.620  17.580  10.158 -0.2647 -0.1311 -0.1759
29894W        W45703  17.162  14.713   1.468 -0.0416 -0.3312  0.2062
29895W        W45704   4.850   8.817  15.679 -0.1242  0.1607  0.3589
29896W        W45705   4.916   4.466  11.003  0.2315 -0.1696  0.0855
29897W        W45706  15.047  10.200  11.768  0.1225 -0.1482 -0.2511
29898W        W45707   9.817   5.433   4.461  0.1002  0.0249 -0.1798
29899W        W45708  12.491  16.394   3.092  0.1707 -0.1159 -0.0298
29900W        W45709   1.635   9.372  14.463 -0.0964 -0.0367  0.0212
29901W        W45710  12.917   0.277  12.983  0.0013  0.1360 -0.1136
29902W        W45711  12.987   4.311   5.304  0.0076  0.1743  0.0383
29903W        W45712  12.909  10.370   3.931  0.0266 -0.2796 -0.1349
29904W        W45713   7.689   2.295  13.013  0.0315  0.0468 -0.2622
29905W        W45714   4.282   6.446   4.417 -0.1618  0.1807  0.3067
29906W        W45715  12.992   9.498  12.423  0.0241 -0.1668  0.2698
29907W        W45716   0.180  12.688  10.828  0.0117 -0.0843  0.1259
29908W        W45717  12.472  10.678   4.083 -0.0625  0.2882  0.3096
29909W        W45718  11.672  13.165   1.314 -0.0564  0.1071  0.2420
29910W        W45719  13.102   8.781   5.819 -0.0467 -0.3763 -0.0416
29911W        W45720   9.319   0.118  12.514  0.1358 -0.0762 -0.0760
29912W        W45721  15.559   6.993  11.051 -0.0666  0.0063 -0.1382
29913W        W45722   2.709   7.689   2.810 -0.1979 -0.0390  0.3709
29914W        W45723  17.002  11.044  16.001  0.1732 -0.2083  0.2274
29915W        W45724   7.119  17.026  14.268 -0.1701  0.1352 -0.2118
29916W        W45725   5.056  15.723  13.606  0.0959 -0.2986 -0.0916
29917W        W45726   9.029  16.192   0.916  0.1696 -0.1450  0.1771
29918W        W45727  15.828  13.303  13.064  0.2137 -0.2250 -0.4928
29919W        W45728  17.224   1.609  14.267  0.1369 -0.0011 -0.0931
29920W        W45729   5.211  15.471   4.729  0.2044  0.1371  0.0417
29921W        W45730   4.961   1.192   2.808  0.0883  0.2415 -0.3648
29922W        W45731   0.605  15.163  15.902  0.1151  0.0604 -0.1356
29923W        W45732   5.635   8.193   1.489 -0.0619  0.0377  0.0990
29924W        W45733  11.200   4.411  12.143 -0.2570 -0.1115 -0.1204
29925W        W45734  16.824  10.419   3.434  0.1510  0.0101  0.0478
29926W        W45735   4.914   9.022  13.278 -0.1757 -0.0156  0.0379
29927W        W45736   4.605  13.703  12.608  0.1351  0.1398  0.3614
29928W        W45737  16.990   3.715   3.295 -0.1636  0.4045  0.3095
29929W        W45738  10.247   6.690   4.965 -0.0447 -0.1419 -0.2138
29930W        W45739   5.861  11.504  13.471  0.0497  0.1208  0.1647
29931W        W45740   3.813  11.800  14.968  0.1737 -0.1704 -0.0052
29932W        W45741  10.447  14.213   2.421 -0.0381  0.1485 -0.2701
29933W        W45742   4.112   5.602   1.485 -0.1098 -0.0586  0.0148
29934W        W45743  17.349  17.228   4.801 -0.0149  0.2025 -0.6495
29935W        W45744   9.764  18.089   5.689 -0.1210  0.0847  0.0315
29936W        W45745  12.705   7.969  15.238 -0.1370 -0.0043  0.3329
29937W        W45746   6.681   5.018   1.610 -0.1783 -0.2298 -0.0995
29938W        W45747  11.423   3.910  10.875 -0.0360 -0.0116  0.2282
29939W        W45748   7.182  14.942   1.000  0.0922 -0.1763  0.0037
29940W        W45749   3.984   6.838   0.099 -0.0182 -0.2641 -0.2427
29941W        W45750   7.724  11.772   5.341 -0.0895 -0.2326 -0.0773
29942W        W45751   5.522   6.040   5.217 -0.1344  0.1450  0.1602
29943W        W45752  15.412  16.331   0.762  0.2207 -0.0620  0.0247
29944W        W45753  12.620  10.633  13.861  0.1507 -0.2418 -0.1476
29945W        W45754   2.157  15.422  12.017  0.1467  0.1023 -0.1750
29946W        W45755  15.942  13.993   1.774 -0.0568  0.0194  0.1820
29947W        W45756   9.999  16.638   4.624 -0.1046 -0.2365 -0.1984
29948W        W45757  17.430   0.195   1.715  0.0489 -0.1995 -0.1609
29949W        W45758  12.972   6.719  15.748  0.1585  0.3035 -0.0358
29950W        W45759  14.068  14.211  14.461  0.2512 -0.3288  0.0894
29951W        W45760   4.421   6.897  11.139  0.0142 -0.1935 -0.0802
29952W        W45761   1.329   2.067   2.204 -0.1976  0.1887 -0.2798
29953W        W45762   5.346  13.288   0.805  0.0021  0.1735 -0.3647
29954W        W45763   4.454   5.532  12.227 -0.0795  0.0285 -0.0531
29955W        W45764   6.086  12.199  12.862  0.3240 -0.3561 -0.0996
29956W        W45765   8.155  16.437  15.337  0.1415  0.0131  0.3031
29957W        W45766   7.037  16.799   2.561 -0.0806 -0.0431  0.0208
29958W        W45767  17.881   0.916   3.902 -0.1698  0.2013  0.0872
29959W        W45768   6.332   4.197  13.058  0.1624 -0.2253 -0.1293
29960W        W45769   2.719   8.781   3.325  0.0514  0.0711  0.0663
29961W        W45770  10.837  18.217   1.483 -0.2145 -0.0012 -0.2638
29962W        W45771   2.220  12.317   0.241 -0.0813 -0.1960  0.1944
29963W        W45772   0.579   9.709   3.431 -0.0787 -0.2478  0.1898
29964W        W45773   8.621  13.587   4.389  0.0744 -0.1219 -0.3441
29965W        W45774   2.898  13.961  13.075  0.2424  0.1595  0.1106
29966W        W45775   5.523  13.414   1.952  0.1360 -0.0598  0.1398
29967W        W45776   7.361   8.361  12.278  0.1569 -0.0541  0.2197
29968W        W45777   7.492   1.184  10.616  0.0966  0.2719 -0.1085
29969W        W45778  12.892   6.906  13.952 -0.0690  0.2514 -0.2103
29970W        W45779  17.884   5.958   4.328 -0.1941  0.1970 -0.2780
29971W        W45780   6.893  15.652   2.361 -0.2417 -0.2452  0.2825
29972W        W45781  14.435  16.951  13.701 -0.0943  0.2419  0.0341
29973W        W45782  14.782  15.824  13.871  0.0817 -0.1184 -0.2735
29974W        W45783  11.228  13.003   5.279  0.2025 -0.1298 -0.0782
29975W        W45784   0.716   0.858  13.534  0.1580  0.5072  0.2833
29976W        W45785  12.935  14.210   1.277 -0.4203 -0.2539 -0.2787
29977W        W45786   4.337   2.701   2.006  0.0829 -0.0746 -0.0699
29978W        W45787   5.321  16.018  14.574  0.1196 -0.2053  0.2430
29979W        W45788   0.448  17.633   0.018 -0.1101 -0.0899  0.0871
29980W        W45789   1.190  12.833  13.567  0.1801  0.1099 -0.0019
29981W        W45790   8.839   5.172  11.602  0.0932  0.0009 -0.1113
29982W        W45791  12.450   8.485   4.998  0.2849 -0.3961 -0.2333
29983W        W45792   4.047  13.617   4.845 -0.1212 -0.0053 -0.2078
29984W        W45793  13.939  12.748  15.308  0.0972  0.0196 -0.5625
29985W        W45794  11.353  17.032  14.357  0.1562 -0.3029 -0.0279
29986W        W45795  18.217   4.613  14.381 -0.0126  0.1887  0.0093
29987W        W45796   9.423   1.388  12.087 -0.0795 -0.2039 -0.1776
29988W        W45797   5.000   5.967   0.227 -0.0859  0.2308  0.0771
29989W        W45798   5.719   3.114  12.688 -0.0323  0.1953 -0.0157
29990W        W45799  15.877   6.017   2.284  0.1485 -0.0791  0.0249
29991W        W45800   8.063   8.009   1.511  0.2055  0.0622  0.2639
29992W        W45801  14.260   9.256  12.246 -0.1217  0.3231 -0.2573
29993W        W45802  16.185   2.732  13.840  0.0888 -0.0446  0.1756
29994W        W45803   1.676  10.594  14.979 -0.1601  0.1453  0.1943
29995W        W45804   4.866  15.991   3.341  0.0469 -0.2364  0.1491
29996W        W45805   6.584  11.873  15.507  0.1072  0.0036  0.4097
29997W        W45806   4.860  17.031  12.380  0.0496 -0.2791  0.2092
29998W        W45807  15.287  14.854   1.758 -0.1201 -0.0583 -0.2401
29999W        W45808  11.571  11.126  15.624  0.2530 -0.1255 -0.0375
30000W        W45809   6.260   0.363   3.569 -0.0455 -0.1476  0.1036
30001W        W45810   9.396   4.839  12.855  0.1044 -0.3133  0.1934
30002W        W45811  13.043   1.535  13.942  0.0283  0.0131  0.2086
30003W        W45812   9.590  14.836  14.514 -0.0135  0.0219 -0.1187
30004W        W45813   5.089  11.794   4.145 -0.0398 -0.0866  0.0331
30005W        W45814   3.827   6.684   4.229  0.0402  0.1017  0.0885
30006W        W45815  11.833   1.969   3.869 -0.0268 -0.0820  0.1554
30007W        W45816  17.131  15.220  14.240 -0.1359 -0.2914 -0.1164
30008W        W45817  10.519  16.724  11.189 -0.2417  0.0658  0.0309
30009W        W45818   9.030   6.118  16.012  0.0545 -0.0637  0.1610
30010W        W45819   5.470  13.232   4.055  0.1694 -0.1529  0.1858
30011W        W45820   2.841  11.776   4.927  0.0117 -0.1988 -0.0525
30012W        W45821   2.379   2.786   3.484  0.0226  0.3542  0.1432
30013W        W45822  17.173  16.886   3.400 -0.1380 -0.1728 -0.0586
30014W        W45823  11.036   3.039  14.372 -0.1918  0.0225  0.2720
30015W        W45824  11.852  13.101  12.264  0.0327  0.0648 -0.2121
30016W        W45825   4.125  11.792  11.728 -0.0287  0.0115  0.1904
30017W        W45826  14.400  10.011   5.640  0.0613 -0.2726 -0.3379
30018W        W45827   6.214  17.914   0.964 -0.0777 -0.2645  0.3906
30019W        W45828  15.997  13.088  15.692 -0.2369 -0.4586  0.0112
30020W        W45829   2.597   5.576  14.257 -0.0519 -0.0862  0.0395
30021W        W45830  11.699   4.064   5.324  0.0618 -0.4067  0.5123
30022W        W45831  14.204  10.972  15.907 -0.1021  0.0850 -0.0967
30023W        W45832   7.585  10.134  10.570  0.1843  0.0805  0.1952
30024W        W45833   4.309   9.694   0.361 -0.2535 -0.0921 -0.3027
30025W        W45834   6.994  10.726   3.367  0.1212 -0.1686  0.0768
30026W        W45835   2.139   5.005   1.769  0.2215 -0.0913  0.0212
30027W        W45836  16.660  12.671   5.353  0.3373  0.0063  0.1484
30028W        W45837   4.836  15.432  11.950  0.0264 -0.0836  0.3560
30029W        W45838  15.334  15.953  13.621  0.3190 -0.0045 -0.0577
30030W        W45839   0.779  17.168   0.810 -0.0034  0.1781 -0.1129
30031W        W45840   3.992  15.135  11.674 -0.0156  0.2238  0.1925
30032W        W45841   9.135  16.602   4.127 -0.1878 -0.3851  0.2376
30033W        W45842   9.223   5.007  14.823  0.1588  0.0020 -0.5211
30034W        W45843  13.496  12.346  13.667 -0.1200  0.2706  0.2271
30035W        W45844   6.920   8.277  11.979 -0.0083 -0.0932  0.0375
30036W        W45845   2.055  12.926  14.202  0.1481  0.1796  0.0187
30037W        W45846  17.714  11.098  12.578  0.0938  0.0193  0.1684
30038W        W45847   1.281  14.346   3.952  0.3263  0.0426  0.2662
30039W        W45848   8.233  17.896   4.149 -0.0801  0.0785  0.0878
30040W        W45849  11.486  15.607   5.686 -0.1746  0.2245 -0.0082
30041W        W45850   6.324   7.949  10.553  0.4541  0.3659 -0.0687
30042W        W45851  12.773  18.214  12.540 -0.0719 -0.3309 -0.3977
30043W        W45852   8.187  14.626   3.039 -0.0726  0.1267 -0.0145
30044W        W45853   2.194  11.128  11.359 -0.0085  0.1862  0.0331
30045W        W45854   1.148   2.143  13.517 -0.0607 -0.0069  0.4482
30046W        W45855   0.262  13.216  13.924 -0.0056 -0.4451  0.0682
30047W        W45856   5.065  10.561   0.891 -0.0743  0.1081  0.0053
30048W        W45857   9.993   1.219   4.713  0.1280 -0.0415 -0.2527
30049W        W45858  12.976   9.500   0.811  0.2027  0.3394 -0.1489
30050W        W45859   3.078  17.892   6.154  0.1101 -0.1331 -0.1493
30051W        W45860   6.951   0.618  10.970  0.0035  0.0225 -0.1873
30052W        W45861   7.601  15.288  12.089  0.0952 -0.0218  0.2924
30053W        W45862   7.630   2.804  12.865 -0.2835 -0.1662 -0.0033
30054W        W45863   5.149   9.838   3.544  0.1108 -0.2067  0.2428
30055W        W45864  13.843  15.382   5.247  0.1473  0.2734 -0.2033
30056W        W45865   1.282  10.656   1.458  0.0367 -0.2352 -0.0227
30057W        W45866   3.740   7.913  12.416 -0.2870 -0.4255  0.0733
30058W        W45867  17.836   3.145   3.810 -0.1467 -0.1962  0.2620
30059W        W45868   2.946   6.691  11.619 -0.2745 -0.0458 -0.0653
30060W        W45869   0.355   7.225   4.695 -0.0756  0.0491  0.0393
30061W        W45870   7.535  15.052  12.858 -0.0941  0.1826 -0.1524
30062W        W45871   0.111   7.001   5.132  0.0213  0.0160  0.1954
30063W        W45872  15.978  14.796   3.085  0.1483 -0.1172 -0.2585
30064W        W45873   9.234  14.578  15.986  0.0539  0.2258 -0.0183
30065W        W45874  15.240   2.340  11.628  0.1900  0.1438 -0.1861
30066W        W45875   4.177  12.661  14.089 -0.1284 -0.2199  0.1685
30067W        W45876   8.966   2.780   3.304 -0.0906  0.0765  0.1211
30068W        W45877   9.778  13.929   5.068 -0.0538 -0.0573  0.1704
30069W        W45878   2.765  16.436  13.439 -0.1248 -0.0803  0.1039
30070W        W45879  10.470  14.628   1.946  0.0892 -0.0239  0.0913
30071W        W45880  12.636   2.288   2.669  0.2707  0.0119  0.1096
30072W        W45881   3.833  17.351  14.604 -0.1311  0.0212  0.1474
30073W        W45882   9.766   3.351  11.923 -0.0605  0.0746 -0.0241
30074W        W45883   4.836  14.835  11.436 -0.0426  0.1484 -0.0167
30075W        W45884  10.890  10.761   1.745 -0.1327  0.1881 -0.0252
30076W        W45885   2.264   6.290   4.593 -0.2433  0.1282  0.2442
30077W        W45886   8.655  13.311   3.291 -0.0698 -0.1518  0.0459
30078W        W45887   9.897  14.336   1.427 -0.0697 -0.0879  0.2647
30079W        W45888  10.792  13.235   2.990  0.1571  0.1642 -0.0008
30080W        W45889   8.596   2.739  11.664 -0.0618 -0.0903  0.1006
30081W        W45890  16.286   1.150   2.855 -0.3122 -0.0047  0.1769
30082W        W45891   7.836  15.637   3.351  0.2498 -0.0091  0.2118
30083W        W45892  12.931   0.610  10.100 -0.3605  0.0848  0.0992
30084W        W45893   7.318  14.156  14.739  0.0231 -0.0687  0.1739
30085W        W45894   9.144   3.125   5.176 -0.0033 -0.3798  0.2636
30086W        W45895   4.460   7.506  12.893  0.1404 -0.0738  0.0083
30087W        W45896   9.443  17.817  11.283  0.2891  0.2102  0.2172
30088W        W45897   3.583  13.472   0.162  0.2748  0.0574 -0.0529
30089W        W45898  12.698   5.613   3.568  0.0436  0.1303  0.0688
30090W        W45899   2.646  13.990   1.707  0.0533  0.0141 -0.2793
30091W        W45900   0.355  13.798  15.902  0.1608  0.1009  0.0169
30092W        W45901   0.978   6.223   6.006 -0.0931 -0.1999 -0.1379
30093W        W45902  12.263  16.056  12.325 -0.0122  0.2741  0.4173
30094W        W45903   5.338   4.959   4.901  0.1898 -0.2550  0.0268
30095W        W45904  15.971  14.988  15.606  0.0355 -0.0996  0.0963
30096W        W45905   0.865   5.373   3.397 -0.0498  0.4367 -0.0407
30097W        W45906   3.883   1.679  14.459 -0.2852  0.2458 -0.0072
30098W        W45907   8.805   5.388   4.495  0.2718  0.0795 -0.0106
30099W        W45908  12.212   4.894   5.288 -0.0564 -0.0742 -0.1381
30100W        W45909   1.766  14.310  15.125  0.0419 -0.1031  0.0643
30101W        W45910   5.254  18.096  16.021 -0.1016 -0.3249  0.0906
30102W        W45911   2.997   3.589   4.849 -0.4108 -0.1580 -0.0534
30103W        W45912  17.525   6.263   1.696 -0.1877  0.0144 -0.0438
30104W        W45913  12.134   7.542   2.808  0.2998  0.1933  0.0241
30105W        W45914   8.419   0.417  15.327 -0.1009 -0.2049 -0.0439
30106W        W45915  14.933   9.747  13.967  0.2143  0.0084  0.2858
30107W        W45916   3.571   5.103  12.716 -0.0073  0.0864 -0.0655
30108W        W45917  13.779   4.751   0.712  0.2407  0.0624 -0.1086
30109W        W45918  13.631   1.312  15.932  0.1390  0.1570 -0.1401
30110W        W45919  17.556  14.640   3.474  0.2774  0.2914  0.0982
30111W        W45920   6.161   5.611  10.505  0.0061  0.0523 -0.1655
30112W        W45921  16.975  12.211  14.462  0.0830  0.1734 -0.0128
30113W        W45922   4.799   2.701   2.630  0.0443 -0.2817  0.0668
30114W        W45923   5.929  12.968  13.213  0.0011  0.0333  0.0238
30115W        W45924   7.931  18.259  11.158  0.2455  0.3356 -0.1483
30116W        W45925   5.012  14.972  11.875  0.1891 -0.1342  0.1311
30117W        W45926   2.169  14.208  12.384  0.0684 -0.0473  0.2715
30118W        W45927  12.082  12.736  15.305  0.0405 -0.2300 -0.0827
30119W        W45928   8.297   1.282  11.936 -0.0411  0.1000 -0.0984
30120W        W45929   3.156  13.346  15.535 -0.1743 -0.0956  0.2661
30121W        W45930  13.177  16.221   5.144 -0.2546  0.1351  0.0546
30122W        W45931   2.490  11.330  15.483 -0.0182  0.0025 -0.2223
30123W        W45932  17.680   3.089  14.727  0.2111  0.0171  0.1104
30124W        W45933  17.255   2.517   5.077  0.0666  0.0904  0.0875
30125W        W45934   2.841  17.638   5.452 -0.0867 -0.1482 -0.1105
30126W        W45935  11.985  14.485   1.950 -0.2100  0.0707 -0.1676
30127W        W45936  13.003   8.457   2.757  0.0378 -0.1173 -0.0073
30128W        W45937  17.047   6.339   3.974  0.0487 -0.1952  0.0438
30129W        W45938   5.692   6.375  14.808  0.0928  0.1172  0.3136
30130W        W45939  14.096  15.636  13.840 -0.4803 -0.0944 -0.1447
30131W        W45940   9.647   8.650  11.265 -0.0110 -0.1261  0.1063
30132W        W45941   4.957  15.800  15.952  0.0350  0.3116  0.1983
30133W        W45942  14.927   5.493  12.975  0.1901  0.2596  0.0402
30134W        W45943   7.139   3.457  16.053 -0.0400 -0.0777 -0.3337
30135W        W45944   3.313  11.890   5.207  0.3368  0.1787 -0.2425
30136W        W45945  16.287  13.630  10.871  0.0429 -0.4380 -0.0069
30137W        W45946   2.851   2.026  12.127  0.0925  0.2903  0.2556
30138W        W45947   8.448  10.606  13.431  0.2698  0.1344  0.0134
30139W        W45948  17.585   8.307  15.771  0.0217  0.2580 -0.1417
30140W        W45949  17.312   2.285  15.871 -0.0752 -0.2787 -0.0610
30141W        W45950   5.680   7.003   3.470  0.0290  0.0526 -0.0250
30142W        W45951  17.439   6.495  14.418 -0.0349  0.2056 -0.0110
30143W        W45952  14.764  15.453  10.802  0.0160 -0.0709  0.2640
30144W        W45953   5.963   4.656  12.354 -0.2810 -0.2603  0.2460
30145W        W45954  16.639   4.535   3.028 -0.1129 -0.1289  0.0297
30146W        W45955  11.301  14.404  11.740  0.1896  0.0067 -0.3681
30147W        W45956  14.216   8.972  12.717 -0.0939  0.3319  0.1187
30148W        W45957   4.607  11.000   3.810 -0.1428  0.2096 -0.0448
30149W        W45958   2.524  12.801   0.903  0.1004 -0.2302 -0.0812
30150W        W45959   6.295  15.373   4.402  0.0160 -0.0033 -0.4024
30151W        W45960   1.473  10.162   2.257  0.1355 -0.2761 -0.1102
30152W        W45961  17.588   9.718   0.378 -0.4892  0.3606  0.1439
30153W        W45962   7.446   4.529   3.867  0.2738 -0.0913  0.1440
30154W        W45963  17.222   2.406  13.643 -0.3166 -0.2584  0.1712
30155W        W45964  13.046  10.791   1.805 -0.0497  0.2333  0.0796
30156W        W45965   5.419  11.178  15.545  0.0725 -0.0444  0.3506
30157W        W45966  12.103  18.158  14.591 -0.0897 -0.0576  0.1971
30158W        W45967   5.190  10.938   0.583 -0.4079 -0.0098 -0.1328
30159W        W45968  12.636   6.534   2.584  0.1747 -0.0766 -0.1123
30160W        W45969  10.025   1.614  11.152  0.0186  0.1057 -0.3751
30161W        W45970  17.649  15.532   1.998 -0.0401 -0.1550  0.4156
30162W        W45971   7.884   3.143   4.020 -0.2709  0.0536 -0.0513
30163W        W45972   0.026  16.623   2.670 -0.0003 -0.1025  0.2954
30164W        W45973  11.044   4.513  14.222 -0.1986 -0.0186 -0.0693
30165W        W45974  16.512  15.553  15.038  0.4334 -0.0425 -0.0608
30166W        W45975  11.799   0.577   5.121  0.3185 -0.3610  0.0491
30167W        W45976  17.400   1.003   0.263 -0.2823  0.0893 -0.1556
30168W        W45977  10.069   9.764  12.001  0.0467  0.1693  0.2916
30169W        W45978   8.692   1.300   2.267 -0.0186  0.0821  0.0955
30170W        W45979   6.471   6.296   2.181  0.2372 -0.2059 -0.0642
30171W        W45980  10.494   8.699   1.373  0.1472  0.2560 -0.1451
30172W        W45981   6.990   7.165  10.700 -0.0346 -0.1657  0.0300
30173W        W45982   1.183  18.117   5.129  0.0788 -0.1596  0.1227
30174W        W45983   8.757  11.709  14.004  0.0954  0.0962  0.0980
30175W        W45984   6.110   1.495   0.986 -0.1848 -0.1286  0.1482
30176W        W45985   4.106  16.071   1.040 -0.1519  0.1663  0.2570
30177W        W45986   7.639   2.094   1.733 -0.1715 -0.0811 -0.0310
30178W        W45987   4.642  13.786   0.860  0.1608 -0.2002  0.0725
30179W        W45988   8.723   1.450  12.764 -0.1913  0.4109 -0.2905
30180W        W45989   0.829  13.934  11.113  0.2561  0.1987  0.1154
30181W        W45990   2.215   4.318  15.214 -0.0360  0.1532  0.2667
30182W        W45991   2.903  10.896  14.353 -0.0774  0.2756  0.0481
30183W        W45992   7.570  10.558   4.871 -0.0979 -0.0206  0.0607
30184W        W45993   6.377   7.180   4.686  0.0277  0.1098  0.3633
30185W        W45994   4.385  14.107  14.337  0.0216 -0.0536  0.1516
30186W        W45995   3.990  11.622  15.421 -0.2799  0.1161  0.1799
30187W        W45996  12.464   0.941   2.242  0.0305  0.2105 -0.3264
30188W        W45997  18.157  10.121   5.533 -0.0132 -0.1110 -0.1061
30189W        W45998   1.471  11.267   5.819 -0.0846  0.0086 -0.4067
30190W        W45999  11.823   4.400  10.621 -0.2648  0.0895  0.2918
30191W        W46000   8.245  16.692  10.912 -0.0927 -0.0620  0.4772
30192W        W46001  15.500   6.215  15.881  0.1245 -0.3079 -0.0395
30193W        W46002   6.312   7.360  11.153 -0.1347 -0.0078  0.0805
30194W        W46003   2.565  11.835   1.028 -0.1603 -0.2309  0.0077
30195W        W46004   7.478  10.070   1.659 -0.2607  0.1425 -0.2500
30196W        W46005  17.091  12.410  12.062 -0.4617  0.1469  0.0043
30197W        W46006  13.143  18.052   4.245 -0.1361  0.0238 -0.2355
30198W        W46007  15.904   8.079  14.068  0.0215 -0.2985 -0.0786
30199W        W46008  10.973  16.382  13.243  0.1985 -0.0592 -0.1530
30200W        W46009  16.932  17.412   3.485 -0.0033 -0.0526  0.1734
30201W        W46010   8.100  14.779   4.393 -0.2646  0.2456  0.1799
30202W        W46011  13.078   2.155  11.084  0.1925 -0.1168 -0.0517
30203W        W46012  15.520   2.208  14.397  0.0432  0.3107 -0.0182
30204W        W46013  16.623   8.732   3.609 -0.2646  0.0237  0.1516
30205W        W46014  10.327  15.054   2.474 -0.2109 -0.3919 -0.3076
30206W        W46015   2.714  16.107   0.055  0.0546 -0.3129  0.0215
30207W        W46016   1.581   2.006   4.068 -0.0859  0.2058  0.1662
30208W        W46017  12.868  10.053   0.681  0.1214  0.0103  0.1504
30209W        W46018   0.759   6.093   3.290 -0.0121  0.0572  0.0926
30210W        W46019  16.972  17.268   5.198 -0.0694  0.3207  0.2610
30211W        W46020   1.987  10.632   1.017  0.1249 -0.2956 -0.1156
30212W        W46021  16.608   2.245  14.451 -0.1049 -0.2539  0.1029
30213W        W46022   0.362   9.015   3.947 -0.1009 -0.0296  0.0067
30214W        W46023   1.243   0.627   4.700  0.1247 -0.1650  0.0300
30215W        W46024   9.437  16.998  12.492  0.0142  0.1054 -0.0427
30216W        W46025  14.216   6.886  12.798 -0.0387  0.0199 -0.2275
30217W        W46026   3.038   3.796  11.965 -0.0565  0.0275  0.2352
30218W        W46027  16.417   2.987   2.018 -0.0860  0.1059 -0.1600
30219W        W46028  10.391   7.888   0.658 -0.2582 -0.1796 -0.2408
30220W        W46029  14.171  13.299   4.567 -0.0759  0.1226  0.0414
30221W        W46030  17.094  15.471  13.855  0.3022  0.4597 -0.1905
30222W        W46031   1.586  14.411   0.643  0.3615  0.1412 -0.1277
30223W        W46032  13.047  16.440   4.749  0.1961  0.0083  0.0201
30224W        W46033   9.865  11.406  15.562  0.0374 -0.2960 -0.0447
30225W        W46034  11.394   7.928  13.772  0.2683 -0.0082  0.2638
30226W        W46035  10.181  18.074  11.663  0.0499 -0.0827  0.0747
30227W        W46036   9.109  17.634  10.925 -0.2251 -0.0703 -0.2668
30228W        W46037   3.718   9.984   4.866 -0.0948  0.0825  0.2036
30229W        W46038   9.349  13.581   4.976 -0.2857  0.1854 -0.0021
30230W        W46039   3.581  10.197   3.981  0.1916 -0.0630 -0.0348
30231W        W46040  10.465  10.468  12.651 -0.1376 -0.1388 -0.0280
30232W        W46041  12.452  16.049   0.139 -0.1029 -0.0024 -0.0784
30233W        W46042  16.765  16.889  14.124  0.0144  0.0054 -0.0164
30234W        W46043   5.216  11.774   2.113 -0.2351 -0.0398  0.2186
30235W        W46044  13.100   0.669   3.913 -0.1185 -0.1680  0.1105
30236W        W46045  10.028   7.515  14.273 -0.1882  0.1850  0.2180
30237W        W46046  15.763   1.403   4.742 -0.0998  0.3552 -0.1147
30238W        W46047  17.032   2.894  11.380  0.0720  0.2145 -0.2612
30239W        W46048  15.183  16.508  13.439  0.1074 -0.3241 -0.1042
30240W        W46049   6.929  13.639  12.700 -0.0673 -0.2539 -0.2495
30241W        W46050   4.755  11.974  14.941  0.0438  0.3468  0.1531
30242W        W46051  14.392   9.054   4.662  0.0516 -0.0888 -0.0624
30243W        W46052   7.997  13.627  11.408  0.1213  0.2263 -0.0457
30244W        W46053   0.804  16.047  13.966  0.0792 -0.0628 -0.0184
30245W        W46054  15.640  11.543   1.438 -0.2972  0.2719  0.0474
30246W        W46055  16.990   8.404   3.363  0.0691 -0.2169 -0.1978
30247W        W46056  11.121   2.778   1.287 -0.0081 -0.0244 -0.0342
30248W        W46057  14.162  14.435  12.888  0.2005  0.0271 -0.2485
30249W        W46058   3.487  13.710   3.180  0.1671 -0.0669  0.2517
30250W        W46059  10.679   3.421  12.279 -0.1353 -0.2304  0.2478
30251W        W46060  10.423   1.054  12.153 -0.1407  0.0617  0.0051
30252W        W46061  14.489   5.318  11.677  0.0553 -0.1716 -0.2751
30253W        W46062  11.898  17.458  13.345 -0.1412 -0.0650 -0.1288
30254W        W46063  15.995   0.665  12.545 -0.0936  0.0759 -0.2174
30255W        W46064   4.191  15.941   0.411 -0.0150  0.1265  0.1866
30256W        W46065   1.586  14.697   1.762 -0.2598 -0.1149 -0.0145
30257W        W46066   1.891   9.013  16.029 -0.1844 -0.0217  0.0577
30258W        W46067  13.326  15.482   0.212  0.0222  0.0968  0.0425
30259W        W46068   8.859  18.219  11.326 -0.4048 -0.1525 -0.1183
30260W        W46069  17.774  12.879   2.267  0.1591 -0.0990 -0.3063
30261W        W46070   8.068  13.270   5.507 -0.2193 -0.1003 -0.0438
30262W        W46071  17.458   0.365   5.143  0.4288 -0.2565 -0.2035
30263W        W46072  10.765  16.518   0.650 -0.0894  0.0666  0.2332
30264W        W46073  11.404   7.437  15.778  0.1500 -0.1371  0.1837
30265W        W46074   7.516   6.523  10.422 -0.0979  0.1948  0.0334
30266W        W46075   0.724  10.759   3.489  0.2161  0.0759  0.0926
30267W        W46076   0.753  12.255  15.304  0.0518 -0.2566  0.0467
30268W        W46077  10.809  15.476   4.695 -0.0121 -0.1191 -0.2254
30269W        W46078  10.448   2.371  11.815  0.2648  0.0226 -0.4951
30270W        W46079   1.457   2.363  11.780 -0.1820 -0.1740 -0.1324
30271W        W46080  16.567  12.716  13.404  0.1370 -0.0417 -0.0712
30272W        W46081   7.656  13.916  14.469 -0.2285  0.0623 -0.3446
30273W        W46082  11.085  10.317   1.099  0.2945 -0.0373 -0.0113
30274W        W46083   4.086  17.700  11.315 -0.0631 -0.1190 -0.1212
30275W        W46084  13.517   0.395  13.858  0.2460 -0.2614 -0.0426
30276W        W46085  14.264   7.172  12.353  0.1434 -0.0766  0.0195
30277W        W46086  17.544  14.073  11.849  0.2050  0.2076  0.1775
30278W        W46087   6.534   6.579   3.260  0.0471  0.0048 -0.1195
30279W        W46088   9.686   5.079  11.255  0.4057  0.0376  0.1526
30280W        W46089  10.650   9.647   0.655 -0.0274  0.1964  0.1384
30281W        W46090   4.493  12.475   5.302 -0.1830 -0.1537 -0.0221
30282W        W46091  13.085  16.938  11.407 -0.0197  0.1585  0.1767
30283W        W46092  17.791   4.896  13.320 -0.2234  0.1969  0.3731
30284W        W46093   4.711  13.358   2.227 -0.1476  0.0617  0.0800
30285W        W46094   0.813  17.587  14.095 -0.0779 -0.1380  0.1904
30286W        W46095   2.715   0.301   5.078 -0.0694  0.1130 -0.1927
30287W        W46096  15.918   2.569   3.321  0.2398 -0.0270 -0.1062
30288W        W46097   6.381   3.813  11.271 -0.0730 -0.0356  0.3423
30289W        W46098  17.372  12.296  15.374 -0.0840 -0.2259  0.2162
30290W        W46099   9.634   5.754   2.759  0.1699  0.3392  0.1645
30291W        W46100  10.015   0.090  13.478 -0.0851 -0.0940 -0.0673
30292W        W46101   1.011   1.981   1.387 -0.0059  0.0792  0.0192
30293W        W46102   9.935   0.654  14.323 -0.0326  0.1396 -0.0360
30294W        W46103  13.406   7.933  11.669  0.1079  0.0419  0.1441
30295W        W46104   9.074   8.724  12.535 -0.3086  0.1048  0.1750
30296W        W46105   0.879  15.823   5.378 -0.2640 -0.0774 -0.1107
30297W        W46106  11.510  13.281  12.626  0.0023  0.1307 -0.1437
30298W        W46107   9.206  18.055  10.095  0.4715 -0.0029  0.1235
30299W        W46108   8.831   6.262  13.564 -0.2476 -0.1937 -0.0602
30300W        W46109  11.854   9.481   4.092  0.1140 -0.3607 -0.0834
30301W        W46110   8.999   5.915   3.703  0.3981 -0.0384 -0.0041
30302W        W46111   2.630   9.779   4.168 -0.1911  0.0776 -0.1328
30303W        W46112  13.718   7.162  12.186 -0.3252  0.0723 -0.0252
30304W        W46113   7.709  15.160  14.323  0.1848  0.2024 -0.1010
30305W        W46114  16.493   8.305  11.698  0.0172 -0.0066 -0.1765
30306W        W46115   5.134   4.696  13.602  0.0154 -0.0012  0.0512
30307W        W46116  18.256  13.582   4.190  0.1856 -0.1186  0.0973
30308W        W46117   4.574  13.790   2.455  0.2988  0.1382 -0.2549
30309W        W46118   3.879   3.872  12.925  0.1460 -0.2505  0.1121
30310W        W46119  17.334  14.630  12.680 -0.1496  0.0926  0.0108
30311W        W46120   6.389   9.352   3.659  0.3022 -0.2564 -0.2588
30312W        W46121  17.977  12.735  13.429  0.0545  0.4672  0.3102
30313W        W46122   2.054  16.450   4.067  0.0837  0.1503 -0.2099
30314W        W46123  15.966   6.274  14.957  0.1920  0.0162  0.1440
30315W        W46124  11.204   5.840  14.656 -0.0805  0.1283 -0.0726
30316W        W46125   6.165   4.877  12.980  0.1069  0.1745 -0.0676
30317W        W46126   1.574   4.493   2.081 -0.2765  0.2410 -0.2996
30318W        W46127   7.632  17.615  12.696 -0.2794  0.2288 -0.1474
30319W        W46128   4.684  13.561  16.064 -0.0753 -0.1999  0.1656
30320W        W46129   3.192   5.903   3.124 -0.2447  0.0265 -0.1775
30321W        W46130  15.516  15.493  13.853  0.0326 -0.0710  0.1145
30322W        W46131   1.484   3.303  13.640 -0.0541  0.1242 -0.2522
30323W        W46132   8.433   2.851  14.569  0.0254 -0.2302 -0.0915
30324W        W46133  13.907  11.585  14.307 -0.0203 -0.0684 -0.1214
30325W        W46134   2.798   0.126   0.704  0.1387 -0.0476 -0.3567
30326W        W46135  13.527   5.846  13.185  0.0010  0.1916  0.0402
30327W        W46136   0.661  14.839  13.361 -0.1761  0.0143 -0.1265
30328W        W46137   2.212   2.034  15.333  0.0015 -0.1518 -0.1445
30329W        W46138   1.095  17.133   2.104 -0.1578 -0.0282 -0.0254
30330W        W46139   5.711   1.036  12.918  0.0983 -0.0442  0.4009
30331W        W46140  15.686   7.690   2.985  0.1042  0.2536  0.5088
30332W        W46141   7.596   2.580   1.749 -0.0875 -0.0218  0.0433
30333W        W46142  14.953   4.864   5.533  0.0958  0.1654 -0.0499
30334W        W46143   3.797  10.061  11.052  0.3462 -0.3032  0.0879
30335W        W46144  10.287  10.733   6.035  0.1496 -0.1235 -0.1884
30336W        W46145  15.106  15.626  11.908 -0.1629  0.2447 -0.2080
30337W        W46146   2.074  16.914   2.824  0.3048  0.3608  0.0493
30338W        W46147   0.856   2.093   2.737 -0.3375 -0.0246 -0.0500
30339W        W46148   8.534  11.689   2.852 -0.2131  0.1031 -0.2330
30340W        W46149  13.318   4.097   0.951 -0.3376 -0.0666 -0.1103
30341W        W46150   6.465  10.508   5.832 -0.0951  0.1512 -0.2401
30342W        W46151  16.920   5.647  12.656 -0.3621  0.0203  0.5332
30343W        W46152  16.194  10.835   0.037  0.2843  0.0712  0.1321
30344W        W46153  13.864  13.208   2.217  0.3203 -0.1606  0.0641
30345W        W46154   0.068   0.345   4.408 -0.2645 -0.0112  0.1786
30346W        W46155   1.699   6.198  11.266 -0.0842 -0.2353  0.0424
30347W        W46156   6.819   6.211   5.119 -0.1801 -0.1333 -0.1056
30348W        W46157  13.187  10.712  11.032 -0.0291  0.3742  0.0613
30349W        W46158  13.977   0.054  15.861  0.0238 -0.0227 -0.0246
30350W        W46159  15.308   1.813   4.160 -0.1627 -0.0737 -0.3726
30351W        W46160   2.285   9.834   3.825  0.3998 -0.1246 -0.2849
30352W        W46161  15.147   2.475   4.458 -0.1248  0.1040 -0.1507
30353W        W46162   2.203   3.277   1.109  0.2528  0.0725  0.1347
30354W        W46163  16.076  12.394   1.567  0.2524 -0.1343 -0.0966
30355W        W46164  15.370   9.566   1.735  0.4478 -0.0219  0.1246
30356W        W46165  12.771   9.098   0.564  0.4324  0.2095  0.3714
30357W        W46166   3.146   9.346  12.337 -0.0670 -0.2514 -0.3603
30358W        W46167   9.487  13.755   2.191 -0.0559 -0.0085  0.2196
30359W        W46168   3.237   5.587  13.435 -0.0531 -0.0325  0.0798
30360W        W46169  15.814   0.991   2.999 -0.1719 -0.0090 -0.2084
30361W        W46170  16.807  10.442  12.587  0.1736  0.0102  0.0942
30362W        W46171   2.276  17.966   5.405  0.1533  0.3240 -0.1388
30363W        W46172   8.364   0.541   2.402  0.2747 -0.1579 -0.1294
30364W        W46173   7.786   9.222   3.569  0.0179 -0.0741 -0.2333
30365W        W46174   3.396   3.393   4.550 -0.1988 -0.2155 -0.1813
30366W        W46175  10.939   6.073  14.964 -0.1895 -0.0020  0.2954
30367W        W46176   4.142   8.154  16.024 -0.0728 -0.0209  0.0684
30368W        W46177   2.851  18.030  15.530  0.2206  0.1729  0.0553
30369W        W46178  13.977   5.343   1.675 -0.0301 -0.2950 -0.2206
30370W        W46179   4.648  10.737   0.549  0.3223  0.1157 -0.2184
30371W        W46180  16.743   3.259   1.704  0.1194 -0.1522  0.2053
30372W        W46181   6.294  12.693  13.872  0.0957  0.0193 -0.1478
30373W        W46182  12.915   0.121   5.461  0.0676  0.0903 -0.0988
30374W        W46183   6.931  10.274  13.877 -0.1077  0.1152  0.0123
30375W        W46184  18.122   9.304   1.580  0.0615 -0.5848  0.1959
30376W        W46185  11.482   9.326   2.124  0.0743 -0.1649 -0.2368
30377W        W46186   2.985   3.339  12.656 -0.1272  0.0354 -0.0711
30378W        W46187   5.273  12.836   2.607 -0.1872 -0.3007 -0.1897
30379W        W46188  14.234   1.985   5.545 -0.2214 -0.4953 -0.2309
30380W        W46189  15.579  13.693   5.592 -0.0864 -0.0490 -0.1479
30381W        W46190   9.192  16.693  12.819 -0.0300 -0.2046 -0.0500
30382W        W46191   0.540  11.835  11.117  0.2295  0.0637  0.1586
30383W        W46192  10.260   7.456  14.779  0.0499  0.0090 -0.1534
30384W        W46193   0.737  11.409   1.196 -0.0838 -0.0954  0.2250
30385W        W46194  15.282  10.754  12.856 -0.2695 -0.0069  0.2800
30386W        W46195   3.955  16.375  14.202 -0.1854  0.1084  0.0395
30387W        W46196  10.247  12.432  12.348  0.1572 -0.2898 -0.2098
30388W        W46197  16.033  11.212   0.342 -0.1203  0.0060 -0.0698
30389W        W46198  10.071  13.165  15.273  0.2366  0.1121 -0.0024
30390W        W46199   8.751  17.990   9.928  0.0690  0.2973 -0.0782
30391W        W46200  11.707   9.142  15.790 -0.3037  0.2558 -0.0891
30392W        W46201   0.297   5.284   0.490 -0.1655  0.2999  0.0051
30393W        W46202   4.396  13.320  12.127 -0.0960 -0.1419 -0.1858
30394W        W46203   3.532  15.149   6.348  0.1626 -0.2259  0.2167
30395W        W46204   0.756   6.090   4.204 -0.0188  0.2329 -0.1373
30396W        W46205  13.741   3.260  12.887 -0.0712 -0.0115  0.2112
30397W        W46206   0.945  14.859  12.043  0.0325 -0.3896  0.1451
30398W        W46207  17.631   2.433  15.348  0.2059  0.1863  0.2725
30399W        W46208   6.247   0.188   4.475 -0.1266  0.0504  0.0528
30400W        W46209  12.765   1.221   1.447  0.1960 -0.2795  0.0602
30401W        W46210   0.103   2.942  12.476 -0.1520 -0.0812  0.1043
30402W        W46211  11.003   3.568   1.786 -0.0841  0.0295 -0.0128
30403W        W46212  12.384  11.531  13.463 -0.2550  0.3601  0.0904
30404W        W46213   0.553  12.477  14.633 -0.2631 -0.1658 -0.0288
30405W        W46214  14.218   3.698   0.105 -0.1892  0.0886  0.3275
30406W        W46215   0.152   0.019  10.851  0.1791  0.1307 -0.1194
30407W        W46216   2.731  16.649  11.620  0.1513  0.1139  0.2743
30408W        W46217  15.141  18.033  14.242  0.2558 -0.1841  0.0794
30409W        W46218  17.017   3.761  15.198  0.0331  0.1610 -0.2426
30410W        W46219  10.730  15.387   2.800 -0.2852  0.1713 -0.2175
30411W        W46220  14.960   5.730   1.786 -0.1684 -0.1883 -0.0754
30412W        W46221  12.947  17.451   5.501 -0.1791  0.0807 -0.2415
30413W        W46222  15.080  10.130  15.852  0.2031 -0.4942 -0.1692
30414W        W46223   0.693   1.621  15.965 -0.1346 -0.0488  0.0434
30415W        W46224  11.020   4.975  11.165 -0.0466  0.1828 -0.2908
30416W        W46225   3.284  10.392  12.161 -0.4005  0.0242 -0.3506
30417W        W46226   6.646   7.409  14.516 -0.2129 -0.1593  0.0496
30418W        W46227   9.224   1.172  11.452  0.1464 -0.1470 -0.0229
30419W        W46228  14.876   1.990   4.317 -0.1183  0.0759  0.4585
30420W        W46229  15.724   6.896  13.661  0.2769  0.0135  0.1040
30421W        W46230   9.451   6.104  11.140  0.5244 -0.1211  0.1722
30422W        W46231  10.239   5.307  12.127 -0.0168 -0.1688 -0.3764
30423W        W46232  13.173   6.443   0.068  0.0321  0.0658  0.1197
30424W        W46233  16.490  17.735  13.158  0.1229 -0.0633  0.0151
30425W        W46234   2.331   0.026  12.383  0.1577 -0.1383 -0.0103
30426W        W46235   3.718   8.465   4.225 -0.1048  0.0071  0.1914
30427W        W46236   2.894  10.716  14.924  0.0459 -0.0374  0.1262
30428W        W46237   9.940   6.850  10.921 -0.0700 -0.3262  0.1780
30429W        W46238   4.913  13.243  12.634  0.2172 -0.1679 -0.5140
30430W        W46239   0.926  13.046   0.728 -0.2860  0.5455 -0.0931
30431W        W46240  14.304   2.530  12.904 -0.0418 -0.0393 -0.0531
30432W        W46241   2.083   2.747  14.304  0.0602  0.1781 -0.2930
30433W        W46242  10.707   0.477   4.659 -0.0225 -0.1351  0.0728
30434W        W46243   5.407  11.671  15.396  0.2494  0.0982 -0.0130
30435W        W46244  15.317  12.462  12.570  0.3637  0.1552  0.0153
30436W        W46245  16.535   1.791  14.068  0.1395 -0.2550  0.1295
30437W        W46246  12.645   6.117   3.667  0.1812 -0.3725  0.2581
30438W        W46247   1.946   4.849   2.856 -0.2472  0.0312  0.1159
30439W        W46248  13.778  12.995  13.124  0.0611  0.2529  0.1458
30440W        W46249   1.585  17.217  15.575 -0.3173 -0.0413  0.3500
30441W        W46250  10.511   2.228  14.174  0.1896 -0.0111 -0.0142
30442W        W46251   4.638  10.389   3.099  0.1192 -0.1453 -0.0005
30443W        W46252   4.617  11.829  10.502  0.0675 -0.0232 -0.2011
30444W        W46253   8.741   9.314   3.814 -0.1289  0.0297  0.2133
30445W        W46254   3.598   4.043   1.156  0.0966  0.0425 -0.0437
30446W        W46255   4.199  10.690  15.111  0.1643  0.0767  0.3110
30447W        W46256  10.504  12.067  12.106 -0.1204  0.0687  0.0578
30448W        W46257   0.545   7.875   0.663 -0.2212  0.5636  0.0548
30449W        W46258   1.596   4.988  11.795  0.1289 -0.0930 -0.0897
30450W        W46259   7.645   8.161  13.231  0.0834 -0.0679 -0.0239
30451W        W46260  13.626   6.683   1.819  0.0540 -0.0066 -0.0378
30452W        W46261  11.733  14.707  14.573  0.0306  0.1049 -0.1444
30453W        W46262   8.200   9.736   0.538  0.0281  0.3158 -0.2981
30454W        W46263  11.396   0.370   4.943  0.1216 -0.1048  0.0775
30455W        W46264  13.166   6.372   2.959 -0.0098 -0.2422  0.1246
30456W        W46265   9.229  12.403   4.330  0.1758  0.1319  0.0470
30457W        W46266   8.406   7.221   4.760  0.0587 -0.0573  0.2966
30458W        W46267   2.977   1.434  15.415  0.1577  0.0344 -0.0620
30459W        W46268   4.187  11.760  10.229 -0.2735 -0.0710 -0.0816
30460W        W46269  14.734  17.612   4.074 -0.0481 -0.0506  0.1727
30461W        W46270  10.855   0.691   2.419 -0.1337 -0.0635 -0.4031
30462W        W46271   4.466  15.735   3.489  0.0680  0.1833 -0.3336
30463W        W46272   8.654  16.323   3.173  0.1829 -0.2627 -0.1108
30464W        W46273   8.977   2.556   1.503  0.1107  0.0427  0.0153
30465W        W46274   6.840   8.510   5.660  0.2508 -0.2139  0.2617
30466W        W46275  10.480  17.454   0.822 -0.1425  0.1667  0.4570
30467W        W46276  17.091   5.941   1.546  0.0723  0.0352 -0.2809
30468W        W46277  14.080   1.761  12.188  0.0403  0.0344  0.0238
30469W        W46278   7.109   1.626  12.703  0.0035  0.0406 -0.0589
30470W        W46279  17.847   7.973  13.090  0.1093 -0.2913  0.1970
30471W        W46280   4.362   9.798  12.790  0.1315  0.1441 -0.6121
30472W        W46281   2.883  14.037   2.839 -0.1008 -0.0192  0.2472
30473W        W46282  13.028  12.189   1.519  0.0769  0.0819 -0.0668
30474W        W46283  13.319   5.613   5.631 -0.1035 -0.1883 -0.1089
30475W        W46284  16.284   5.508   1.914 -0.0987  0.1158 -0.0708
30476W        W46285   0.559  15.996  15.478 -0.1566  0.2038 -0.1246
30477W        W46286   5.042  15.786  15.415  0.0572 -0.1540  0.1141
30478W        W46287   1.105   4.863   2.006  0.2026  0.1656 -0.0545
30479W        W46288  11.868  12.894   2.183  0.1717  0.0289 -0.1327
30480W        W46289   8.467   5.517  14.710 -0.1587 -0.0265 -0.2441
30481W        W46290   8.631   4.021   0.330 -0.2073 -0.0030 -0.1170
30482W        W46291   8.938  17.154   2.168 -0.1026  0.1566  0.4337
30483W        W46292   7.981  14.012   3.887 -0.0320  0.0356 -0.1456
30484W        W46293  14.950  13.827  12.825 -0.0901 -0.0803  0.2153
30485W        W46294  14.720  13.820  11.520  0.0429 -0.1013  0.0164
30486W        W46295   7.235  13.489  12.332  0.0210 -0.3998 -0.0846
30487W        W46296   4.405  10.514   1.441  0.2013  0.0996 -0.0368
30488W        W46297  13.530  15.965   3.740 -0.0785 -0.0104  0.0485
30489W        W46298   3.943   3.203   3.220 -0.3680  0.0400 -0.0797
30490W        W46299   2.719   7.393   5.438 -0.2553 -0.2037 -0.2048
30491W        W46300   3.028  14.895  14.205  0.2766 -0.1231  0.0037
30492W        W46301   2.994   7.823   4.386 -0.0829  0.1034  0.0464
30493W        W46302   3.370   4.023   1.961  0.0319 -0.4769  0.1416
30494W        W46303  12.185   4.810  15.627 -0.0687 -0.0219 -0.0373
30495W        W46304   4.590   5.139   3.180  0.5092 -0.0117 -0.0620
30496W        W46305  16.310   1.824   3.551 -0.2779 -0.2102 -0.0634
30497W        W46306   6.113  11.786   1.354  0.0073  0.1540 -0.2296
30498W        W46307   8.861   0.721   2.467  0.0970 -0.1009  0.1718
30499W        W46308   7.300   9.367  15.887 -0.0912 -0.2254 -0.2406
30500W        W46309  16.416  14.576  13.892  0.4682 -0.1077  0.4241
30501W        W46310   6.592  16.499   3.420  0.0244 -0.2323  0.3005
30502W        W46311  16.392   5.891   5.233  0.1158  0.2370 -0.5360
30503W        W46312  14.367  14.904   2.300 -0.1044  0.0608  0.2207
30504W        W46313   7.779  17.861   0.235 -0.0189  0.0996 -0.0347
30505W        W46314   9.571   0.955  14.700 -0.0481  0.0889  0.2238
30506W        W46315   5.391  17.894  13.609 -0.0747  0.1889  0.2781
30507W        W46316   0.660   3.087  12.132 -0.3913  0.1311 -0.0213
30508W        W46317   6.172  11.850   1.853  0.3508  0.0539  0.4900
30509W        W46318  13.724  11.662  15.330 -0.1726 -0.1807  0.1020
30510W        W46319   3.491   4.566   1.288  0.0930 -0.0464 -0.2116
30511W        W46320  11.143  14.254   0.858 -0.0446  0.3454  0.1884
30512W        W46321  14.247  17.353   4.012 -0.0684  0.1525  0.1381
30513W        W46322   9.688  13.157  10.919 -0.0246 -0.0141  0.0061
30514W        W46323   5.729  12.055  11.564  0.1757  0.0128 -0.0272
30515W        W46324  10.324   1.032  14.176  0.0161  0.1360  0.1614
30516W        W46325   5.822   1.406   2.814 -0.0912 -0.0000 -0.1852
30517W        W46326  12.675   9.590  12.012 -0.2137  0.0013  0.1296
30518W        W46327  15.471   0.896  15.435 -0.0248  0.1576  0.3900
30519W        W46328   1.058   7.138   4.117  0.1146  0.2739 -0.1463
30520W        W46329  10.963   9.480  11.722  0.0515 -0.3533 -0.0972
30521W        W46330  14.104  15.971   3.551 -0.0837  0.0762  0.0811
30522W        W46331  14.974  14.344  10.307  0.0265 -0.1740 -0.0531
30523W        W46332  14.876   8.480  13.332  0.0101 -0.1299  0.0674
30524W        W46333  11.113  12.607  12.292  0.0039 -0.1266 -0.0179
30525W        W46334   7.547  12.799   2.492  0.0418 -0.2375  0.1529
30526W        W46335   1.244  17.579  15.801 -0.4016  0.1494  0.0522
30527W        W46336   0.277   7.151  14.798 -0.1416  0.1575 -0.2892
30528W        W46337   6.568  17.738  13.897 -0.0400 -0.0545 -0.2243
30529W        W46338   1.960  15.849  10.721 -0.0763  0.1301  0.0562
30530W        W46339  17.019  16.010   4.589  0.1068  0.0345 -0.2357
30531W        W46340   6.443  15.527   2.640  0.0485 -0.1670 -0.1147
30532W        W46341   0.902   1.857  14.906 -0.0974 -0.0748  0.1218
30533W        W46342   3.221  10.123  11.750  0.2194  0.1381 -0.2277
30534W        W46343   7.837   5.457  13.454  0.2840 -0.2317 -0.1002
30535W        W46344  16.500  17.940   4.181 -0.0837 -0.1722 -0.5217
30536W        W46345  16.741  10.860   4.656  0.1191 -0.1143  0.1681
30537W        W46346   3.907  11.840   4.861 -0.4196  0.0631  0.1092
30538W        W46347  10.152   3.703  13.961 -0.1499 -0.1000 -0.3184
30539W        W46348  11.355  15.580   4.901 -0.0861 -0.3864 -0.2268
30540W        W46349  10.266   0.856  13.689  0.0962 -0.2358 -0.0056
30541W        W46350   6.308  15.961   5.500  0.4211  0.1480 -0.1165
30542W        W46351   0.807  16.751   2.018  0.1748 -0.0386  0.0813
30543W        W46352   5.925   6.196  10.721 -0.1342 -0.1495 -0.0538
30544W        W46353   5.045  11.488  15.750 -0.1940  0.0398 -0.0605
30545W        W46354  14.641  12.755   0.668  0.1991 -0.0028 -0.2974
30546W        W46355  17.894   7.170   3.287 -0.2668  0.1927  0.0933
30547W        W46356   4.828  10.882  13.174  0.2797  0.3201 -0.1615
30548W        W46357  11.288   9.493  12.070 -0.1290  0.0668  0.0776
30549W        W46358  13.702   9.221  15.411  0.0795 -0.3160  0.0944
30550W        W46359  18.234  12.322   1.569 -0.1025 -0.1935  0.0532
30551W        W46360   4.671   1.567   1.892  0.2375  0.0179  0.1880
30552W        W46361  11.188   0.610  13.015  0.0944 -0.1077 -0.0810
30553W        W46362   3.386  15.261   1.529 -0.1868 -0.0908 -0.3013
30554W        W46363   3.375  17.000  14.718  0.1371  0.1824  0.0600
30555W        W46364  10.814   3.471  14.516 -0.1480 -0.0348 -0.4748
30556W        W46365  15.329   9.182  15.551 -0.0791 -0.1625  0.1321
30557W        W46366  12.290   0.372   2.910 -0.3413  0.1203  0.0957
30558W        W46367  15.790  12.797  12.371 -0.0104 -0.2678  0.1933
30559W        W46368   8.852   5.842  15.602  0.1069  0.1889  0.0672
30560W        W46369   7.444   6.884   3.839 -0.3560  0.1466 -0.2716
30561W        W46370  12.561  16.887  13.470  0.0212  0.0442 -0.2753
30562W        W46371   9.483   0.378  14.127  0.0930  0.2568 -0.2610
30563W        W46372  17.193   4.527   1.855  0.0318  0.0209 -0.4972
30564W        W46373  12.937   7.957   2.385 -0.0960 -0.0630 -0.2185
30565W        W46374   3.054   7.929  14.915  0.0587  0.1442 -0.0140
30566W        W46375   3.193  12.340  15.504  0.3127 -0.0380 -0.0029
30567W        W46376  12.849   5.080   3.698  0.0124 -0.3143  0.0604
30568W        W46377  12.621   8.379  12.987  0.0168  0.2777  0.0187
30569W        W46378   0.401   9.667   1.657  0.1823  0.1756 -0.1364
30570W        W46379   1.413   2.016  14.876 -0.0832  0.1721  0.1311
30571W        W46380   5.811  13.389   4.906  0.3058  0.3542  0.4711
30572W        W46381   2.259   3.464   5.432 -0.2344  0.4160  0.0147
30573W        W46382   2.236   1.126   4.706 -0.1067  0.0464  0.1037
30574W        W46383  13.023   8.628  12.831 -0.3726  0.1923 -0.0772
30575W        W46384   1.354   3.676   3.280 -0.1878 -0.0857 -0.1376
30576W        W46385   9.990  16.118  11.178  0.2169  0.0012  0.0323
30577W        W46386  17.893  12.980  15.021 -0.0528 -0.0749 -0.1043
30578W        W46387   8.668   7.915   3.274 -0.0402 -0.1321  0.1362
30579W        W46388   2.131  10.591  12.189  0.0317  0.0059  0.0531
30580W        W46389   4.646  15.818  11.679 -0.0638 -0.1480 -0.1010
30581W        W46390   9.977   7.729  10.809  0.0127 -0.2984 -0.0806
30582W        W46391  14.821   5.869  11.059 -0.0956  0.0806 -0.0154
30583W        W46392  12.641   9.301   0.099 -0.0561  0.4070  0.0156
30584W        W46393  14.813  10.814   4.566 -0.0284  0.2041  0.0988
30585W        W46394   9.192   4.511  11.810  0.0142  0.3176  0.4042
30586W        W46395  13.361   3.559   0.908 -0.2661 -0.1373 -0.2885
30587W        W46396   4.420   5.690   0.895  0.0089  0.0794 -0.1228
30588W        W46397  10.198  13.952   3.245 -0.0176  0.0593 -0.2198
30589W        W46398   2.147   1.133   2.541  0.0171 -0.0525  0.3299
30590W        W46399  10.548  10.973   0.878 -0.2144  0.0508  0.2216
30591W        W46400  17.428   3.061  12.177 -0.0296  0.0461 -0.0332
30592W        W46401  13.642  14.288  12.459 -0.0764  0.2242  0.0538
30593W        W46402  10.411  12.104  11.072  0.0245 -0.0758  0.3005
30594W        W46403  13.312  12.896   0.611  0.3114 -0.1108 -0.0365
30595W        W46404  15.062  12.831   1.514  0.0637 -0.2024  0.0049
30596W        W46405  14.834   1.080   1.613 -0.1378  0.1029 -0.3526
30597W        W46406   1.417   2.493   4.595  0.0778  0.0326  0.1069
30598W        W46407   9.279  12.237  12.161  0.1222  0.2582 -0.1711
30599W        W46408  17.105  10.154  15.250  0.0775  0.0251 -0.4084
30600W        W46409   1.256   4.619  12.282  0.1451 -0.1031 -0.1321
30601W        W46410  15.647   0.473  10.971 -0.0604 -0.2981  0.0587
30602W        W46411  12.344   3.431  14.528  0.2180 -0.1901  0.1621
30603W        W46412  10.804  10.276   2.003  0.1004  0.0583 -0.2270
30604W        W46413   1.276   4.847   0.488  0.0666 -0.3269 -0.3952
30605W        W46414  16.053   8.938  13.729 -0.1351  0.1870  0.2984
30606W        W46415  15.231   2.768   5.861 -0.0878 -0.1271  0.2608
30607W        W46416   5.170  10.171  13.986  0.1471  0.4785  0.1376
30608W        W46417   6.301   9.784   4.425 -0.2337  0.1984  0.2781
30609W        W46418   9.101  14.210  14.821  0.0831  0.1140 -0.1530
30610W        W46419   1.327  13.178  11.389  0.1797  0.2089 -0.0516
30611W        W46420   5.252   5.618   0.652  0.0004 -0.1346 -0.0693
30612W        W46421  10.413  11.400  12.890 -0.3056  0.0335  0.0878
30613W        W46422   8.847  17.829  11.603 -0.2009 -0.0640  0.1865
30614W        W46423   9.924   9.015  13.149  0.3576  0.1757 -0.0792
30615W        W46424  16.190  12.796  13.846  0.0303  0.1650 -0.1800
30616W        W46425   5.765  11.061   3.191 -0.3816  0.0281  0.1252
30617W        W46426   0.506  13.519   5.353 -0.0833 -0.4197 -0.1357
30618W        W46427   1.187   1.898   4.453  0.0529  0.0846 -0.0834
30619W        W46428  17.103   7.368   2.629  0.0125  0.2404 -0.4689
30620W        W46429   4.264   0.723  15.827 -0.0165  0.1258  0.1264
30621W        W46430   1.446   4.445   6.026  0.1007  0.0337  0.0811
30622W        W46431   0.120   6.563   2.688  0.2039 -0.3807  0.0428
30623W        W46432  11.726   4.917   5.680  0.1507 -0.3858 -0.0330
30624W        W46433  11.484   5.112   1.469  0.0921 -0.2327 -0.0153
30625W        W46434   1.841   6.288   5.126  0.0775 -0.2909  0.1045
30626W        W46435   7.086  16.175  12.312  0.3113 -0.1951 -0.2693
30627W        W46436   1.684  12.474   2.823  0.0207  0.1256 -0.1034
30628W        W46437   6.040   7.654  14.533  0.2053 -0.0546 -0.1153
30629W        W46438  14.600  13.300  11.522 -0.2867  0.0376  0.3244
30630W        W46439   7.636   1.777   4.514  0.0404 -0.2724  0.0233
30631W        W46440  11.663   2.607   2.517  0.0990 -0.0786  0.1962
30632W        W46441  14.515   9.677  12.373 -0.0500 -0.0536  0.1336
30633W        W46442   4.633   5.019   5.892 -0.1902 -0.2236  0.0171
30634W        W46443  11.977   0.089   3.262  0.2287  0.0926  0.0223
30635W        W46444   9.050   6.851   5.825  0.1970 -0.1464 -0.1517
30636W        W46445   3.166  13.371   3.455 -0.0140 -0.2964 -0.0022
30637W        W46446   1.708  11.103  14.143 -0.0926 -0.4140 -0.3712
30638W        W46447   8.581  14.510  14.833 -0.1132  0.2168  0.2645
30639W        W46448   0.805  12.072  12.368  0.1482  0.1595 -0.0340
30640W        W46449   0.913  10.982   2.335 -0.3381  0.1313 -0.0990
30641W        W46450   6.239   9.584  15.566  0.0531 -0.1922 -0.1700
30642W        W46451  10.987  17.489  15.122 -0.4055 -0.1022  0.2956
30643W        W46452   3.175   9.510  13.241  0.2729  0.2105 -0.0665
30644W        W46453  13.804   3.248   1.290 -0.2138 -0.0034  0.1378
30645W        W46454  14.422   5.301  13.386 -0.1873 -0.0479 -0.2509
30646W        W46455   0.579  16.501  15.376  0.1129  0.0515 -0.2346
30647W        W46456   7.896  10.218  10.978  0.1264 -0.3307  0.1508
30648W        W46457   7.152  12.105  11.286  0.3054 -0.1135 -0.2184
30649W        W46458   7.855   1.539   0.446  0.0632  0.0526  0.5166
30650W        W46459   4.013  12.670   2.373  0.0039  0.1184 -0.2339
30651W        W46460  14.993  17.294   3.720  0.0092 -0.0280  0.0087
30652W        W46461   6.482  12.883   3.555  0.1759  0.0911 -0.1352
30653W        W46462  13.217   4.743   0.728  0.0451 -0.1241  0.0269
30654W        W46463   7.998   6.077  12.740 -0.0467  0.0228  0.0873
30655W        W46464  10.235  13.584  13.073  0.1314  0.1022  0.0887
30656W        W46465  11.341  10.579  14.741  0.1252 -0.0481 -0.1486
30657W        W46466   8.484  16.376   5.078  0.2252  0.1922  0.3707
30658W        W46467   9.318   2.085   2.192  0.0045 -0.1170 -0.1353
30659W        W46468   7.823   8.246   2.396  0.2135  0.2813  0.1682
30660W        W46469  18.058   7.566   0.316  0.1786 -0.0973 -0.1277
30661W        W46470   7.161   2.308   1.940 -0.1626 -0.0317  0.5420
30662W        W46471   3.638   1.070  13.484 -0.3179 -0.0361  0.2125
30663W        W46472   2.127  11.790   5.487  0.0386  0.0916 -0.0129
30664W        W46473   1.614   7.945   0.708 -0.2142  0.1637 -0.0317
30665W        W46474  16.937   7.455   4.324  0.2594  0.0003  0.0294
30666W        W46475  15.699   3.603   2.393  0.1292 -0.1456 -0.0914
30667W        W46476  16.870   6.211   3.409  0.1414  0.0839 -0.2711
30668W        W46477  10.902  17.666  12.269 -0.3240 -0.1569 -0.2721
30669W        W46478  14.835  13.795   4.017 -0.1286  0.2387 -0.1000
30670W        W46479   0.085   4.201   3.695  0.3298  0.0590 -0.1667
30671W        W46480   8.403   6.704   4.755 -0.0067 -0.0720  0.2090
30672W        W46481  13.067   4.603  12.704 -0.3029 -0.3506  0.1866
30673W        W46482   0.544  11.674   1.696 -0.2338 -0.2121 -0.2300
30674W        W46483  14.220   0.903  15.433  0.2090  0.1724 -0.2256
30675W        W46484  12.447  12.310   1.086  0.1637  0.1607  0.2284
30676W        W46485   8.443   3.104  15.712 -0.3916  0.2171 -0.3278
30677W        W46486   4.971  12.433  12.155  0.4835  0.1173 -0.1112
30678W        W46487   8.901   3.870   1.177 -0.0716  0.5550  0.0183
30679W        W46488  14.251   4.439  12.763  0.1666  0.1454 -0.0826
30680W        W46489   7.377  11.662  12.512 -0.2314  0.1509 -0.1721
30681W        W46490   1.285  11.556   1.458  0.2519  0.1623  0.2992
30682W        W46491  14.353  15.924   9.747  0.0014 -0.2807 -0.0789
30683W        W46492   9.748   5.693  15.338  0.0871  0.2048  0.0638
30684W        W46493   4.321  17.060  13.475  0.1343 -0.1299 -0.2232
30685W        W46494   6.173   1.958   1.193 -0.0480 -0.2175  0.0361
30686W        W46495  17.978   8.099   3.397  0.1290 -0.0996  0.0945
30687W        W46496   6.512  13.769  12.230  0.0976 -0.1382 -0.0457
30688W        W46497   8.249  12.214   4.717 -0.0402  0.1542  0.0621
30689W        W46498   5.752   1.049  13.627  0.0031 -0.2638 -0.2132
30690W        W46499  13.932   6.356   5.595 -0.4552 -0.0987 -0.1204
30691W        W46500   9.063   8.338   3.348  0.0712  0.1187 -0.0499
30692W        W46501   4.933   2.663  12.264 -0.1393  0.0589 -0.0787
30693W        W46502   9.782  12.967   2.290 -0.1910 -0.3037  0.0339
30694W        W46503   8.418  11.639   1.474  0.2501  0.0148  0.1895
30695W        W46504   7.657   4.106   3.322  0.2244 -0.1943  0.0283
30696W        W46505   6.965   0.863   2.180  0.0913  0.1753 -0.2242
30697W        W46506  11.322   1.500   5.661 -0.1271 -0.1794 -0.1282
30698W        W46507  17.908   6.607  11.869  0.3483 -0.2773  0.2491
30699W        W46508   6.108   1.985  11.177  0.3716 -0.0476 -0.1850
30700W        W46509  18.166  10.866   1.179 -0.1085 -0.0544 -0.1738
30701W        W46510  18.153   3.215  14.755 -0.1440  0.1742 -0.1219
30702W        W46511   8.818   1.292   1.801 -0.0822 -0.3302  0.3172
30703W        W46512  17.004   6.378  13.096 -0.0092 -0.1557  0.0372
30704W        W46513   8.943  15.468   4.740 -0.1246 -0.2279  0.1353
30705W        W46514   5.070   3.104   2.912 -0.0062 -0.0512 -0.1601
30706W        W46515   1.319  11.832   2.211  0.1508  0.1136 -0.0540
30707W        W46516   7.533  12.375   0.245 -0.1189  0.0008 -0.1442
30708W        W46517   1.335   3.357   2.729 -0.2777  0.0970  0.0622
30709W        W46518  13.763   1.715  14.523 -0.1970 -0.1031 -0.1210
30710W        W46519   6.194   7.126   2.479  0.4275 -0.0947 -0.0122
30711W        W46520  17.118   2.928  14.927  0.1532  0.0896 -0.0499
30712W        W46521  12.249   9.213   4.300 -0.0197  0.1565 -0.0651
30713W        W46522   5.126   4.754  11.337  0.2355  0.0505  0.0441
30714W        W46523   1.301   9.632  14.925  0.0957  0.0231 -0.2373
30715W        W46524   9.301  12.827   2.011 -0.0907 -0.1416 -0.3975
30716W        W46525   0.600  15.754   0.491 -0.2283 -0.1439 -0.1423
30717W        W46526  15.017   0.825  15.721  0.0748  0.1756 -0.1708
30718W        W46527   9.017  16.346   6.016 -0.0573 -0.1692  0.0656
30719W        W46528   1.135  15.703  13.470 -0.3490  0.3443  0.2752
30720W        W46529   5.769   8.680   1.887  0.1678 -0.0031 -0.2739
30721W        W46530   0.718   0.504   5.563  0.0472  0.3386 -0.0189
30722W        W46531   3.515   9.433   3.151  0.2158 -0.2317 -0.2412
30723W        W46532  14.229   4.799   2.900  0.0317  0.0981  0.0813
30724W        W46533   3.992  11.192   2.261 -0.0533 -0.1228  0.1599
30725W        W46534   4.344  12.260  13.781  0.0597 -0.0658  0.0893
30726W        W46535  17.017   4.718  13.602 -0.1874  0.2039  0.2879
30727W        W46536  13.909  17.608   0.120  0.1162 -0.0544  0.2087
30728W        W46537  10.535  17.264  10.321 -0.0227  0.1426  0.0852
30729W        W46538   1.694  15.999   2.948  0.0825  0.1527 -0.2751
30730W        W46539   0.686   8.457  15.121 -0.0636 -0.2402  0.0664
30731W        W46540  16.375   9.488  15.683  0.0830  0.1886  0.2234
30732W        W46541  11.067  17.204  12.284 -0.4325  0.0584  0.0165
30733W        W46542   8.919  10.996   1.175 -0.3468  0.0213  0.3532
30734W        W46543   1.701   4.093   2.911 -0.1356  0.0953 -0.0236
30735W        W46544   2.665   6.085  12.830  0.0723  0.1441 -0.0159
30736W        W46545  14.759  16.996  11.979  0.1112 -0.2534  0.0538
30737W        W46546  11.734  16.640   3.837  0.0885 -0.1005  0.2240
30738W        W46547  17.224  14.307   5.038 -0.1599 -0.2184 -0.0226
30739W        W46548   4.101   0.639   2.283 -0.3088  0.0263  0.0960
30740W        W46549   9.143   5.705   2.209  0.1671  0.1710  0.1574
30741W        W46550  14.986   0.098   5.444 -0.0055  0.2970 -0.2315
30742W        W46551   2.070  10.931  10.858  0.1936 -0.0911 -0.3911
30743W        W46552   1.479   2.529  15.278 -0.2375 -0.2913  0.0808
30744W        W46553   9.486   7.397   3.214 -0.1057  0.2234  0.2214
30745W        W46554  11.987  15.191  15.734  0.1404  0.4330 -0.1946
30746W        W46555   2.577   7.635  12.700 -0.1396  0.0277 -0.1225
30747W        W46556   0.445  15.516   4.497 -0.4226  0.0160  0.2586
30748W        W46557   7.712   7.541  15.881 -0.1073 -0.1264 -0.0052
30749W        W46558   2.095   0.259  12.864 -0.2467 -0.0786  0.0078
30750W        W46559  11.918   7.794   2.447 -0.0358  0.3373 -0.1195
30751W        W46560   4.683   3.974  15.110  0.0915 -0.0828  0.0496
30752W        W46561  12.469  10.144   3.822  0.4711  0.2885  0.0943
30753W        W46562  11.133   9.545   1.449  0.1563 -0.0647  0.0812
30754W        W46563  15.308   3.277  14.659 -0.1962 -0.1932  0.0805
30755W        W46564  15.172  16.038  15.625 -0.0599 -0.1082 -0.1942
30756W        W46565   8.809   5.215  15.070  0.2615  0.0857  0.0325
30757W        W46566  13.567  17.270   5.111  0.2176  0.2446 -0.3126
30758W        W46567  18.178   4.982   0.719 -0.1227  0.0050  0.2454
30759W        W46568   5.818   9.576   1.547 -0.2924  0.1859 -0.1663
30760W        W46569  18.227   9.660   4.561  0.3150  0.2256 -0.0428
30761W        W46570  17.012   0.966  11.938  0.1059 -0.1042  0.1146
30762W        W46571  10.473   5.795   3.398 -0.2003  0.0044 -0.1372
30763W        W46572   7.966   5.772   9.905  0.1169  0.0937  0.0863
30764W        W46573   2.143   2.441   3.163 -0.0479  0.1614 -0.1576
30765W        W46574  11.856  12.105   5.570 -0.0337  0.2708  0.1192
30766W        W46575  14.498   4.569  11.521  0.1341 -0.0664  0.1371
30767W        W46576   5.127   9.750  10.433 -0.0888 -0.2368 -0.2939
30768W        W46577  14.702   9.094  14.568  0.0043 -0.0289 -0.0959
30769W        W46578  14.024   9.359   4.526  0.0475  0.1437 -0.1611
30770W        W46579  13.342  17.252  11.785 -0.4595 -0.0096 -0.0698
30771W        W46580  13.661   1.402   2.603  0.0777  0.0353  0.0339
30772W        W46581  12.371   9.715  10.768 -0.0511  0.2392 -0.2584
30773W        W46582  16.202  12.680   1.170  0.0812 -0.2698 -0.1787
30774W        W46583  18.255  13.943  15.660  0.2566 -0.2380  0.0741
30775W        W46584  12.693  12.786  14.675 -0.2686  0.0004 -0.0268
30776W        W46585   1.688  17.450  13.505  0.1291 -0.2348  0.2545
30777W        W46586  11.438  16.346  15.841  0.0167 -0.0570 -0.0118
30778W        W46587  14.889   0.227   4.479  0.3138  0.2594 -0.0297
30779W        W46588  12.798  15.660   1.475 -0.2884  0.0797  0.1105
30780W        W46589   7.369   2.743  13.795 -0.0747 -0.1342 -0.1953
30781W        W46590   1.851   9.175   0.922 -0.2907  0.0303  0.1579
30782W        W46591   5.203  10.467   5.583 -0.0617 -0.1390 -0.2625
30783W        W46592  14.260  15.056   2.965  0.2599  0.0462  0.3068
30784W        W46593   0.749  15.943  10.720 -0.1005  0.1376 -0.0813
30785W        W46594  13.688  11.010  13.483  0.0598  0.0955 -0.0272
30786W        W46595  11.954   6.997   5.065  0.3519 -0.2110  0.0249
30787W        W46596   7.383  11.343  13.750 -0.1789  0.2541  0.5722
30788W        W46597  16.938  17.965  11.671  0.0562  0.0882  0.0757
30789W        W46598  13.144  14.830   4.995 -0.3576 -0.0817 -0.3153
30790W        W46599   1.758  10.066   4.361  0.0724 -0.4008 -0.1362
30791W        W46600   7.055   2.295  14.413 -0.4672  0.0649 -0.0947
30792W        W46601  17.696  14.693   1.038  0.0734  0.1112  0.0673
30793W        W46602  15.808  17.401   2.087  0.0725  0.0122 -0.1781
30794W        W46603  11.491   2.080   2.594 -0.0152  0.0660 -0.3191
30795W        W46604  15.764  12.906   3.373  0.0127 -0.1615 -0.2524
30796W        W46605   7.545   4.715  13.422 -0.1224  0.0759 -0.0599
30797W        W46606   1.420   3.465   2.114  0.0367  0.0073  0.1639
30798W        W46607  12.249  10.238   4.256  0.0281  0.0220  0.1922
30799W        W46608  11.526  17.814   2.573 -0.3686 -0.0591  0.1473
30800W        W46609  14.584   5.121   5.350 -0.2040 -0.0812  0.4016
30801W        W46610   2.824   3.061   6.245 -0.1060  0.1536 -0.3699
30802W        W46611   1.921  15.572   2.657 -0.2383 -0.1035 -0.0519
30803W        W46612   0.631   5.210  14.881  0.3303  0.2255 -0.1045
30804W        W46613   5.946   1.238  10.171 -0.1507 -0.1356 -0.0940
30805W        W46614   2.178   6.291  12.029 -0.0517  0.0163 -0.0809
30806W        W46615  14.009   1.801   0.851 -0.0160 -0.1343  0.0575
30807W        W46616  14.409  11.753  12.817  0.2020  0.1374 -0.2097
30808W        W46617   7.981  12.391  11.158 -0.2501 -0.3594  0.1939
30809W        W46618   2.509  12.743  14.692  0.0740 -0.0270 -0.2213
30810W        W46619   7.803  17.408   0.011 -0.1345  0.3500  0.3188
30811W        W46620  10.003  11.750   3.025 -0.0881  0.2737  0.2817
30812W        W46621   3.096   7.184  11.432 -0.3154 -0.0544  0.1161
30813W        W46622   6.979  16.033  13.758  0.1778  0.4280  0.2590
30814W        W46623  17.910  13.608   3.097  0.2427 -0.2577 -0.3316
30815W        W46624   7.994   1.635  13.484 -0.1227  0.0088  0.0704
30816W        W46625   3.808   6.943  12.398  0.2014  0.4004 -0.1744
30817W        W46626  14.447   8.686   2.031 -0.0657 -0.0992 -0.1038
30818W        W46627  13.407  13.855  10.579 -0.3115 -0.2061  0.0608
30819W        W46628   3.422  14.110  12.927 -0.0460  0.2194 -0.0726
30820W        W46629   4.878  12.505   0.380  0.0374  0.0725 -0.1230
30821W        W46630   0.324   0.563  10.812  0.0235  0.1508 -0.1800
30822W        W46631  13.973  14.305   4.862 -0.1238  0.1831  0.0554
30823W        W46632   3.393   1.698   0.816 -0.0813 -0.1496  0.0977
30824W        W46633   3.607  15.859  12.524  0.0126 -0.0294  0.2137
30825W        W46634  17.275  12.217  12.715  0.0042  0.1250 -0.2358
30826W        W46635  10.588   0.454  11.083  0.0279 -0.0491 -0.2544
30827W        W46636   8.480  13.018   5.296  0.1972 -0.0150 -0.1322
30828W        W46637   6.657  11.696  15.981 -0.0611 -0.0174 -0.0859
30829W        W46638   2.678   4.222   1.328  0.2398  0.2371  0.0086
30830W        W46639  12.690  15.206  15.059 -0.3505  0.1201  0.2969
30831W        W46640  14.035   7.736   6.069  0.2894 -0.2250  0.1863
30832W        W46641  13.194   7.348  14.255 -0.0982  0.0721 -0.3547
30833W        W46642  12.656   5.751  14.481  0.0113  0.1954 -0.0413
30834W        W46643   7.949  15.704   3.823  0.0599 -0.1979  0.0926
30835W        W46644   8.348  17.882  11.335 -0.1031  0.1213 -0.2050
30836W        W46645  11.324   4.846  15.874 -0.1344 -0.0983  0.0378
30837W        W46646   2.764   8.581   1.321 -0.0541  0.1018 -0.2647
30838W        W46647  15.734  18.236  15.676  0.3354  0.0070 -0.0173
30839W        W46648   9.306   8.341   2.838 -0.1700 -0.1084  0.1588
30840W        W46649   9.368   6.806   2.289  0.1267  0.0626 -0.1062
30841W        W46650  13.671  16.349  14.243  0.1996 -0.1917 -0.1821
30842W        W46651   8.307  14.270   4.206 -0.0510 -0.1357 -0.3148
30843W        W46652  12.091  14.800  12.392  0.0404 -0.1197  0.0831
30844W        W46653  13.035   6.485  14.774 -0.2872 -0.0045  0.0076
30845W        W46654   1.767  12.119   6.289  0.2476  0.0297  0.0442
30846W        W46655   8.364   7.468  10.262 -0.0417  0.0088 -0.0849
30847W        W46656  13.635   6.053  11.864  0.1190 -0.1469  0.0310
30848W        W46657   2.408  10.336   2.468 -0.3726  0.0320 -0.0119
30849W        W46658  13.176  15.781   5.397 -0.0248  0.3102 -0.1417
30850W        W46659   4.921  13.999  15.752  0.0800 -0.2664  0.1948
30851W        W46660   5.062  11.334   2.432  0.0177  0.1598  0.1098
30852W        W46661   3.401   1.032  12.341  0.0018 -0.2585  0.0924
30853W        W46662  14.280  13.424   1.283 -0.0899  0.1724  0.1412
30854W        W46663   3.242  12.342  14.377 -0.1028  0.0787  0.0210
30855W        W46664  14.509   5.894   2.170 -0.3405 -0.0368  0.3640
30856W        W46665   6.744   9.172  12.515  0.3585 -0.2291 -0.1444
30857W        W46666   2.427  13.632  13.297  0.0531  0.1818 -0.1062
30858W        W46667  11.269  14.733   1.444  0.2977 -0.1190  0.2322
30859W        W46668   4.789  13.119   4.438 -0.1279 -0.0900  0.1397
30860W        W46669  17.619   4.732  11.703 -0.1116 -0.3965  0.3524
30861W        W46670   1.210  13.934  12.215 -0.1745 -0.0046 -0.1422
30862W        W46671   7.448   3.275  15.679  0.0401 -0.0261 -0.0591
30863W        W46672  12.327   4.558   4.815  0.0719 -0.0715  0.0314
30864W        W46673  14.901  17.662   0.952  0.2406 -0.3419 -0.2206
30865W        W46674   1.730  12.425  12.855  0.1584  0.1043 -0.4011
30866W        W46675   4.249  14.529  12.908 -0.0941  0.2412 -0.0031
30867W        W46676   3.046  11.456  11.588  0.1174  0.0384  0.0533
30868W        W46677   0.780   4.241  15.049  0.2085 -0.2473  0.0288
30869W        W46678  16.713   9.911  13.101 -0.1394 -0.0005 -0.0369
30870W        W46679  12.114   8.791   1.170  0.0931 -0.2282 -0.1116
30871W        W46680   4.117   9.745  11.312 -0.0006 -0.3601  0.0905
30872W        W46681  12.183  16.532   5.792  0.2794 -0.0339 -0.2058
30873W        W46682   1.165   9.332   2.299 -0.1189 -0.4113 -0.2345
30874W        W46683  14.188   5.150  14.317 -0.1743 -0.0041 -0.3193
30875W        W46684   2.157  16.414  15.160 -0.2956  0.0528  0.0474
30876W        W46685   2.670   8.738   0.583 -0.5203 -0.1056  0.1403
30877W        W46686   2.477   5.996   2.591 -0.1299 -0.1448 -0.2927
30878W        W46687   6.591   6.941  11.024  0.1114  0.0583 -0.1579
30879W        W46688   6.685   4.950  11.305 -0.0958 -0.1498 -0.0478
30880W        W46689   3.347   9.600   4.735 -0.0181  0.0649 -0.2196
30881W        W46690   6.883   3.753   3.396  0.2115  0.1627  0.1139
30882W        W46691  15.103   9.004  11.811  0.0799 -0.0976  0.0532
30883W        W46692   5.018   5.393  13.291  0.0930 -0.1472 -0.2710
30884W        W46693  16.424  17.938  11.690  0.0623 -0.0070  0.1673
30885W        W46694   4.123  11.748   2.662 -0.0161  0.0663 -0.4556
30886W        W46695   3.788  16.071   5.503  0.0257 -0.0037  0.2391
30887W        W46696   9.581  18.030   0.862  0.1170  0.1362  0.0211
30888W        W46697   0.900   8.905  15.408  0.0292 -0.0465 -0.0532
30889W        W46698   1.959  15.618   2.192  0.2633  0.1868  0.0630
30890W        W46699   0.570  11.318   0.022  0.0153 -0.0737  0.3645
30891W        W46700  17.659  10.824   1.099 -0.1292  0.1167  0.1984
30892W        W46701  12.899  13.485  11.452  0.0665  0.1344 -0.1894
30893W        W46702  10.165  13.660  14.094 -0.2100 -0.1344 -0.0553
30894W        W46703   5.759  17.475   4.004  0.1877 -0.2384  0.0790
30895W        W46704   6.971  15.769   0.558 -0.0035  0.1240 -0.1611
30896W        W46705   8.173   3.155  13.590 -0.2307  0.1066 -0.2176
30897W        W46706  14.606   3.716   0.443  0.2159  0.0081  0.3878
30898W        W46707   5.882  10.578  16.070 -0.3307  0.0322  0.0808
30899W        W46708   7.653  16.717  13.661  0.2583  0.0084 -0.2399
30900W        W46709   8.361   9.798  12.868  0.0634 -0.2188  0.2213
30901W        W46710  14.856  11.956  13.171 -0.1641  0.2489 -0.0239
30902W        W46711  15.866  15.773   3.416  0.1135  0.1536 -0.0285
30903W        W46712  13.260   7.101   2.241  0.0750  0.0440 -0.0075
30904W        W46713   1.556  10.959  13.661 -0.0652  0.0785 -0.1187
30905W        W46714  14.762  17.591   2.859  0.0928 -0.0868 -0.3314
30906W        W46715   9.791  16.803  12.892 -0.2672  0.2925  0.1291
30907W        W46716   2.909  13.883  15.507  0.1383  0.1673  0.4600
30908W        W46717   0.251  12.495  12.783  0.1151  0.0022  0.1979
30909W        W46718   5.489  12.786  12.867  0.0068 -0.0427  0.1417
30910W        W46719   0.851   5.168   1.498 -0.1471  0.1954  0.4797
30911W        W46720  16.509  16.980  11.599  0.2101  0.2838  0.1316
30912W        W46721   2.490   5.005   0.002 -0.0500 -0.1269 -0.1337
30913W        W46722  16.708   7.522   2.985 -0.1795  0.3609  0.0232
30914W        W46723  13.085  13.284  15.654 -0.0297  0.2003 -0.0004
30915W        W46724  12.471  15.973  10.934 -0.2484 -0.0142  0.1222
30916W        W46725  12.236   6.875  15.652  0.0256  0.1554  0.0986
30917W        W46726   0.403   5.177   3.424  0.3312  0.1851  0.1416
30918W        W46727  12.578   5.026  15.454  0.3409  0.0076 -0.2091
30919W        W46728   9.772  15.800  15.732 -0.0745 -0.0487  0.1429
30920W        W46729   3.755   0.890  15.841 -0.1772 -0.1432  0.3810
30921W        W46730   9.220  11.871  11.362 -0.0513  0.0792 -0.0080
30922W        W46731  12.753   4.750  14.412  0.1091 -0.0316 -0.3166
30923W        W46732   1.690   3.402   0.404  0.0193 -0.1228  0.1401
30924W        W46733   1.807  15.692  12.250 -0.1867 -0.1810  0.0836
30925W        W46734  10.047  13.147   3.446 -0.1881  0.0796 -0.1073
30926W        W46735  13.000  16.683  12.310  0.0686 -0.0560  0.0269
30927W        W46736  13.731   5.912   4.643 -0.1518  0.1299 -0.4360
30928W        W46737   6.549   5.058   4.178 -0.0112 -0.2724  0.1312
30929W        W46738   1.319   5.962  10.500  0.0365 -0.2356 -0.1914
30930W        W46739   0.397   9.963   4.758  0.1990  0.3852 -0.1976
30931W        W46740  16.890  16.226  13.493 -0.0178 -0.2292  0.0624
30932W        W46741  16.078   5.432  14.006  0.0245 -0.0265  0.1380
30933W        W46742   4.563   0.316  11.380 -0.2364 -0.0147  0.0865
30934W        W46743   6.694   5.278   5.212 -0.0789 -0.0323 -0.3389
30935W        W46744   6.664  15.721  10.293  0.0442  0.2347  0.3426
30936W        W46745  15.904   4.005  15.751 -0.3033  0.0389 -0.1157
30937W        W46746   9.960  15.876  12.536  0.0501 -0.0197  0.0335
30938W        W46747   2.024   3.854   3.798  0.1384 -0.0779  0.1534
30939W        W46748   1.445   3.879  15.236  0.3912 -0.0378  0.0529
30940W        W46749   9.910   6.383   0.257 -0.0707 -0.2051 -0.0533
30941W        W46750  16.883   8.028  15.007  0.3666 -0.1867 -0.2044
30942W        W46751  11.070   9.846   5.086 -0.2477 -0.1012 -0.6924
30943W        W46752   2.292   0.701   5.070 -0.2358 -0.0276 -0.0734
30944W        W46753   9.281   2.603  12.329  0.0280  0.2926 -0.3206
30945W        W46754   5.145  11.149   0.092  0.1965  0.1701 -0.0369
30946W        W46755  10.507   4.579  14.101  0.3429  0.0940 -0.1805
30947W        W46756  16.726   4.266  14.445 -0.2371 -0.0628  0.0119
30948W        W46757  10.648   6.206   3.612 -0.0135  0.0108  0.1840
30949W        W46758  13.980  17.115   5.918  0.0134 -0.1710 -0.1234
30950W        W46759  13.446   2.368  11.879  0.0707 -0.1557 -0.0285
30951W        W46760   6.204  11.630  12.043  0.0335  0.1808 -0.2340
30952W        W46761  13.743   6.741   0.595 -0.3071  0.1910  0.2451
30953W        W46762  14.093   9.898  14.930  0.0400 -0.1433 -0.4614
30954W        W46763  16.531   0.794   2.415  0.2627 -0.0309  0.2442
30955W        W46764   0.132   1.279  11.974  0.0868 -0.0998 -0.2951
30956W        W46765   8.641   0.919  11.831 -0.0719  0.0833  0.0457
30957W        W46766  16.020   5.609   1.467 -0.0691 -0.0678  0.3076
30958W        W46767   7.337   8.600   1.292  0.2270 -0.0691 -0.1990
30959W        W46768   0.913  13.129  11.712 -0.0216  0.1826 -0.2975
30960W        W46769  11.111  17.119  15.482  0.1655  0.0193  0.1322
30961W        W46770   8.978   9.413   3.348  0.1444  0.2294  0.0687
30962W        W46771  15.197  11.238  14.019  0.2823 -0.1316  0.2576
30963W        W46772  17.296  16.004  14.710 -0.2030  0.0435  0.0505
30964W        W46773   0.804  13.165   2.502  0.0264 -0.1152 -0.2764
30965W        W46774   3.463  15.154   2.516  0.1472  0.0779  0.1823
30966W        W46775   8.139   6.869   0.234 -0.0349  0.2853 -0.3993
30967W        W46776   8.154   8.071   0.693  0.0747  0.1045  0.0917
30968W        W46777  17.887   9.948   2.650 -0.3555 -0.3024  0.0832
30969W        W46778   7.863  15.421  13.006  0.0014  0.2915 -0.0656
30970W        W46779   7.224  14.692   4.348  0.0777 -0.2751  0.0965
30971W        W46780  13.361   2.330   4.787 -0.1088  0.1010  0.0475
30972W        W46781   5.433   7.891   3.508  0.1781 -0.2362  0.0695
30973W        W46782   2.643   5.117  10.890  0.0548  0.0945  0.1883
30974W        W46783  15.441  14.809   4.357  0.1557 -0.0857 -0.0123
30975W        W46784   3.876   2.776   2.300 -0.3118  0.2945 -0.0787
30976W        W46785   1.637  13.720   4.644 -0.0923 -0.0548  0.0543
30977W        W46786   4.947   4.198  14.407  0.2080 -0.1384  0.2135
30978W        W46787   3.799  14.778   4.274  0.1030 -0.1688 -0.2391
30979W        W46788   7.663  16.475   0.227 -0.4110  0.2960  0.3038
30980W        W46789  18.004   7.365   2.216  0.0190  0.1145 -0.1278
30981W        W46790  17.414   5.260  11.512  0.0652  0.1482  0.1214
30982W        W46791   6.977  15.379   2.768  0.1480  0.1126  0.0622
30983W        W46792  10.725   1.209   0.149 -0.1453  0.1165 -0.2074
30984W        W46793  16.316   4.057  15.397 -0.0306 -0.3194  0.1975
30985W        W46794  15.374  13.122  13.298  0.1508 -0.0492 -0.0577
30986W        W46795   6.398  10.099  15.628 -0.1590  0.2730 -0.0539
30987W        W46796   3.023  12.385   3.338 -0.0352  0.1619  0.3249
30988W        W46797  15.697  18.254   1.283  0.1225 -0.1683  0.1507
30989W        W46798  17.736  10.106  12.243  0.0116 -0.2422  0.0323
30990W        W46799   2.012   5.295  16.069 -0.0350  0.2970 -0.0663
30991W        W46800   7.624  17.867   5.373  0.3048  0.0552  0.2167
30992W        W46801   8.244  13.055   3.134  0.5395  0.1414 -0.0189
30993W        W46802  15.053   5.806   1.196 -0.2470  0.2803 -0.4260
30994W        W46803   1.636  17.607   1.093 -0.1616  0.0522 -0.2447
30995W        W46804   2.956  15.588   3.266 -0.1231 -0.0439  0.2489
30996W        W46805   6.099  15.922   1.279 -0.0689 -0.1254 -0.1765
30997W        W46806   8.461   9.559  12.440 -0.0815 -0.1509 -0.0627
30998W        W46807   1.145   8.427  15.415 -0.1294  0.0393 -0.1204
30999W        W46808   9.693   4.303  14.327  0.2756 -0.2452 -0.3812
31000W        W46809  11.253   9.857   2.855  0.0228 -0.1897  0.0545
31001W        W46810  17.839  13.782  14.522 -0.0588 -0.2347 -0.2661
31002W        W46811   8.846   7.479   3.162  0.3248  0.2632  0.0822
31003W        W46812   7.034   3.378  15.440 -0.1381  0.1791  0.1478
31004W        W46813   7.880   4.616   3.534 -0.4034 -0.0965 -0.3063
31005W        W46814   0.367  10.357  13.319  0.0360 -0.1909 -0.1212
31006W        W46815   6.408  12.882   5.959 -0.2719 -0.2724 -0.1043
31007W        W46816   8.297  15.088   0.989 -0.0886  0.0129  0.1030
31008W        W46817  10.531  12.604   3.983 -0.2107  0.3173 -0.1839
31009W        W46818  18.098  14.531  13.103  0.1027  0.1726 -0.1739
31010W        W46819   7.763  10.845  12.228  0.2854 -0.0585 -0.0184
31011W        W46820  15.004  11.734   3.574 -0.0375 -0.1123  0.3779
31012W        W46821  15.459  15.027   0.932  0.2771 -0.0095 -0.1302
31013W        W46822  12.385  17.954   0.192  0.0995 -0.3269  0.0386
31014W        W46823  15.432  10.429   0.030  0.0621 -0.0658 -0.2929
31015W        W46824  18.014   9.670  12.393 -0.0317 -0.0127  0.4165
31016W        W46825   4.952   5.119  13.892  0.2527 -0.0563 -0.2200
31017W        W46826   2.765   1.899   3.450 -0.1752  0.1773  0.0305
31018W        W46827  12.046  15.188   4.396  0.2970 -0.0733  0.1935
31019W        W46828   1.800  15.522   0.926 -0.2352  0.0150  0.3404
31020W        W46829   3.035  14.142  15.957  0.0709 -0.0187 -0.1908
31021W        W46830   0.838   5.259   5.888  0.0547 -0.3488  0.0176
31022W        W46831   7.849  16.649   1.736 -0.3378 -0.1232 -0.0116
31023W        W46832   5.578   7.562  14.890 -0.0457  0.2630  0.2597
31024W        W46833   6.065   3.296   3.086 -0.0821  0.3918 -0.1987
31025W        W46834   9.095   6.826  10.797 -0.4584  0.1625  0.0485
31026W        W46835  16.600   2.529   1.830 -0.0762 -0.0059  0.1222
31027W        W46836   6.723   3.885  13.196 -0.3275 -0.0715  0.2810
31028W        W46837  11.659  17.608  12.820 -0.0546  0.1137 -0.1024
31029W        W46838   6.580  11.065  11.437  0.1267  0.5167  0.0157
31030W        W46839  12.327   2.244   1.635  0.0966  0.0982 -0.2105
31031W        W46840   4.681  17.972   4.143 -0.0997 -0.2008  0.0862
31032W        W46841   8.864   5.226  13.970  0.0756 -0.0419 -0.3506
31033W        W46842  11.930  11.169  12.409 -0.2214  0.0927 -0.0546
31034W        W46843   9.250   2.274  11.566 -0.1109  0.0186 -0.1094
31035W        W46844   0.282   6.368   0.910 -0.0914 -0.3750 -0.2651
31036W        W46845  11.736   2.005  15.874  0.1060  0.3050  0.0267
31037W        W46846   2.931   8.674   5.328 -0.2940 -0.1128  0.0107
31038W        W46847   1.748  12.729  12.015 -0.1500 -0.1366  0.0579
31039W        W46848  17.658  16.314  16.027  0.3458  0.1440  0.2687
31040W        W46849   7.829   3.772  15.554 -0.1904 -0.1838  0.0245
31041W        W46850   9.951  13.166   2.918 -0.1349  0.0188 -0.2159
31042W        W46851   3.238  17.041  13.004 -0.2900 -0.1782 -0.1655
31043W        W46852   4.820   1.716  14.529  0.1197 -0.0253  0.0199
31044W        W46853  17.700   8.454  13.219 -0.0900  0.0502  0.1221
31045W        W46854   6.988   9.599  14.329 -0.1647  0.1098 -0.0223
31046W        W46855   4.604   3.914  14.609 -0.2367  0.0971  0.1168
31047W        W46856   3.594   6.583   1.536 -0.3696 -0.0463 -0.0441
31048W        W46857   0.089  12.183   2.931 -0.0704 -0.0773 -0.1586
31049W        W46858  18.118   9.833   2.019  0.0834  0.0161 -0.3969
31050W        W46859   0.882  13.810   4.013 -0.0124  0.1579  0.2095
31051W        W46860   3.501   7.874   5.289  0.2233  0.0170 -0.2597
31052W        W46861  15.425  12.145  15.820  0.1907  0.0054 -0.0493
31053W        W46862  16.066   6.896  15.122  0.0017  0.0317 -0.1642
31054W        W46863   6.939   6.504   1.209 -0.0061 -0.0103 -0.1019
31055W        W46864  17.595  17.371  14.055  0.0511  0.1329 -0.0471
31056W        W46865   3.332   1.917   1.275  0.1176  0.0927  0.2131
31057W        W46866   3.627  18.082   5.471 -0.0047  0.1029 -0.1988
31058W        W46867  17.406   6.807  12.033 -0.2898  0.2558  0.1993
31059W        W46868   0.641   5.816   2.057 -0.0786  0.2795  0.1198
31060W        W46869  14.206  17.695   4.431  0.0662 -0.0912  0.0124
31061W        W46870  16.099   6.795  14.108 -0.0115  0.0860 -0.1485
31062W        W46871   4.776   3.403  16.039  0.1867  0.0902 -0.0468
31063W        W46872   5.835   5.145   2.212  0.0499  0.1696 -0.1191
31064W        W46873   3.291   3.788  13.012 -0.0664  0.0427 -0.2751
31065W        W46874   4.992  10.031   3.979  0.0495 -0.0054  0.3888
31066W        W46875   1.624   9.690   5.155  0.2253  0.1306  0.0849
31067W        W46876  13.403   1.345   0.371  0.4548 -0.0817 -0.0752
31068W        W46877   5.847  13.479   3.914  0.2484  0.1869 -0.1134
31069W        W46878  11.324   3.181  11.085  0.1475 -0.1205  0.0948
31070W        W46879  15.619  12.443  14.605  0.0943  0.1200  0.0839
31071W        W46880  17.621   8.413  14.684  0.2112 -0.0551  0.3441
31072W        W46881  13.993   3.689  14.237  0.0415 -0.2081 -0.0957
31073W        W46882   1.847   1.603  10.796 -0.2397  0.1812  0.3390
31074W        W46883   2.115   2.030  15.829  0.1844 -0.0158  0.2109
31075W        W46884   1.949   9.807   2.149 -0.6463  0.0998 -0.0535
31076W        W46885   6.285  14.236  14.648 -0.1772  0.0848 -0.2037
31077W        W46886  13.450   0.073   4.473  0.0804 -0.3710 -0.1366
31078W        W46887   0.080  16.249  12.098  0.0097  0.0163 -0.2589
31079W        W46888   8.562  12.222  14.141 -0.0783 -0.2388 -0.2027
31080W        W46889  16.937   7.942  11.811  0.1484  0.0185 -0.1580
31081W        W46890   5.903  15.501   2.406  0.1743 -0.0709  0.1309
31082W        W46891   9.289   2.574  15.368 -0.0011 -0.4167  0.1895
31083W        W46892  14.417   5.313  12.905  0.2001 -0.0567  0.2035
31084W        W46893  10.804   0.753  13.778 -0.0422  0.1415 -0.3293
31085W        W46894  15.349   7.206   4.813  0.1323 -0.1910 -0.0455
31086W        W46895   8.297  11.776   5.127  0.1045  0.3284 -0.1765
31087W        W46896  16.027  17.612   2.991 -0.2476  0.1614 -0.0523
31088W        W46897   4.719  11.179   1.964 -0.1484  0.2250 -0.2371
31089W        W46898   7.702   1.246  13.433 -0.0889 -0.0017  0.3573
31090W        W46899   5.560   8.383   3.823 -0.2478 -0.2719  0.2673
31091W        W46900  10.596   5.905  15.343 -0.0846  0.1071 -0.0128
31092W        W46901   2.955  11.683  13.100  0.2875 -0.2523  0.1280
31093W        W46902   2.291   3.797  14.462  0.1740  0.0477  0.0549
31094W        W46903  11.641   8.286   5.926  0.0756  0.1228  0.1934
31095W        W46904  12.084   3.175  13.733 -0.0431  0.2860 -0.2510
31096W        W46905   1.555  17.707   3.381  0.1704  0.0570 -0.1099
31097W        W46906  16.439  11.053  14.640 -0.1437  0.0320  0.1168
31098W        W46907  16.219   5.582   3.921  0.0366 -0.2342  0.0901
31099W        W46908   0.800  17.507   0.418  0.2310 -0.1226  0.0734
31100W        W46909  11.829  17.662   1.558  0.2627  0.0435 -0.1108
31101W        W46910   2.652   8.032   0.215 -0.1156  0.1310 -0.3076
31102W        W46911   0.141  14.467   3.650 -0.3620  0.0939  0.2233
31103W        W46912   6.490  17.658   0.667  0.1707 -0.1456  0.0344
31104W        W46913   9.476  10.383   4.881  0.3603 -0.0861 -0.1167
31105W        W46914   6.596  16.541   1.110 -0.0055 -0.2640 -0.1643
31106W        W46915   7.918   2.462  15.389 -0.1183 -0.0292 -0.0417
31107W        W46916  18.204   1.066  12.724 -0.1141  0.0377  0.0229
31108W        W46917   2.247  10.838   1.436  0.0108  0.0451 -0.1712
31109W        W46918   4.848  18.226   5.109  0.3279  0.2641  0.3874
31110W        W46919   1.615  13.030  14.009 -0.1224 -0.0325  0.1363
31111W        W46920   5.732   3.597  14.370 -0.1710 -0.3019  0.2260
31112W        W46921   4.204   2.154   0.673  0.1083  0.0891  0.0329
31113W        W46922   9.017  13.487   0.684 -0.0877  0.1110  0.0770
31114W        W46923   3.503  14.158   3.456 -0.4154 -0.0037 -0.0249
31115W        W46924  13.558   5.341   0.011 -0.1634  0.0432 -0.1432
31116W        W46925   0.710  10.879   4.272 -0.2553  0.1975 -0.0601
31117W        W46926  18.015   8.479   0.065  0.1705 -0.1434 -0.1208
31118W        W46927   1.043  15.206   2.433  0.2597 -0.0510  0.1839
31119W        W46928   6.539  11.056  12.732 -0.3010  0.0513 -0.2350
31120W        W46929   0.033   8.380   1.682  0.2085 -0.0697 -0.1571
31121W        W46930  17.238   4.624  12.002  0.0821  0.2691  0.0873
31122W        W46931   3.493   2.933   5.485  0.0576 -0.1532 -0.1404
31123W        W46932   3.422   7.777  16.068 -0.1310  0.0317  0.1825
31124W        W46933   6.542  13.932   1.257 -0.1385 -0.1087 -0.1590
31125W        W46934   6.950   7.213  14.878 -0.1142 -0.0695  0.0774
31126W        W46935  15.304   3.174   3.164  0.3851 -0.1456 -0.0074
31127W        W46936  16.515  11.495  15.101 -0.0111 -0.2947 -0.1922
31128W        W46937   3.734  11.196   0.667 -0.1090  0.0784  0.0345
31129W        W46938  16.045   3.914   2.914  0.0266  0.1241  0.4217
31130W        W46939   2.060   6.490  15.493 -0.0372 -0.1194 -0.1701
31131W        W46940  12.001  17.343   4.717  0.0262 -0.1396 -0.2972
31132W        W46941   9.316  10.847   4.283 -0.3375  0.1096 -0.0016
31133W        W46942   3.731   3.742  11.870  0.0365  0.2817  0.0521
31134W        W46943   0.131  12.833  14.396 -0.1428  0.1860 -0.3780
31135W        W46944  15.978  17.705   2.483 -0.1999  0.0090 -0.2956
31136W        W46945  13.917   3.816   3.186 -0.1507  0.1783  0.0672
31137W        W46946  18.170   9.481  11.492 -0.0700  0.1682  0.2237
31138W        W46947   2.547  12.589   6.010 -0.1673  0.1476 -0.2136
31139W        W46948   2.438   2.118   1.747 -0.1402  0.0608  0.3080
31140W        W46949   8.215   8.967   1.679  0.1998 -0.2334 -0.0431
31141W        W46950   1.410  17.378  12.186  0.1181 -0.2022 -0.4384
31142W        W46951  12.036   8.017   5.806 -0.2437 -0.0394  0.1118
31143W        W46952   1.464   1.893  15.706  0.1037  0.0465  0.0156
31144W        W46953   3.901   0.156   2.965 -0.0018 -0.2645 -0.2021
31145W        W46954   5.468   8.191   2.059 -0.0490  0.1380  0.4084
31146W        W46955   7.900  11.425  13.708  0.3370 -0.2091  0.0580
31147W        W46956   2.239  12.315  15.788 -0.0164  0.0573 -0.3395
31148W        W46957  14.339   1.297  13.908  0.0911 -0.2090  0.0238
31149W        W46958  10.011   1.168   5.555 -0.0415  0.1302  0.1096
31150W        W46959   0.026   4.084   3.215  0.1370  0.1274  0.2964
31151W        W46960  12.533   8.823   1.458 -0.0201 -0.0021 -0.0447
31152W        W46961   0.486   3.455  15.283  0.0884 -0.1041  0.0244
31153W        W46962   9.297  12.528   0.748 -0.2168  0.0725  0.1948
31154W        W46963  18.086   3.321   2.736 -0.2005  0.1703 -0.3272
31155W        W46964  11.869  15.690  11.469  0.1467 -0.2744 -0.2196
31156W        W46965  11.173   3.791   0.915  0.0505  0.2512  0.3096
31157W        W46966  18.216   8.541   4.750 -0.1239  0.1992  0.2681
31158W        W46967   0.405   2.303   2.685  0.0119 -0.0605  0.3274
31159W        W46968   3.085   5.284  14.762 -0.2618 -0.0215 -0.0046
31160W        W46969  12.574   1.436  14.807 -0.1006 -0.1329 -0.1052
31161W        W46970   2.447   0.637   1.981  0.2343 -0.1400  0.2270
31162W        W46971  16.571   4.054   3.285 -0.0992  0.0662 -0.2398
31163W        W46972   8.370  11.003  13.839 -0.0975 -0.1695  0.1424
31164W        W46973   1.749  18.166  12.612 -0.1062  0.1160 -0.1490
31165W        W46974   6.881   3.863   0.413  0.0250  0.0003 -0.0848
31166W        W46975   9.707  16.190   4.746 -0.0040 -0.0001  0.0202
31167W        W46976  14.735   6.063   4.351  0.1469 -0.0306  0.1844
31168W        W46977   3.950   3.044   1.828 -0.0948 -0.0669 -0.2732
31169W        W46978   1.121  17.585   2.294 -0.0794 -0.0121  0.4351
31170W        W46979   7.000  15.569   4.073 -0.0136 -0.3607 -0.2691
31171W        W46980  18.137   7.534   4.686 -0.1173 -0.0891  0.2460
31172W        W46981   8.318  13.171  15.969 -0.1811 -0.1258  0.0381
31173W        W46982  13.078   7.794   1.227 -0.2098  0.0874 -0.2034
31174W        W46983  12.083   2.180   3.276 -0.0710 -0.1128  0.1057
31175W        W46984   0.418  14.472  15.220 -0.0822 -0.0536  0.0262
31176W        W46985   5.586   8.670   2.353 -0.2798  0.0956 -0.1472
31177W        W46986   1.936  14.011   0.657 -0.1119  0.2545  0.1707
31178W        W46987   0.753  15.812  14.739  0.1216 -0.0872  0.2047
31179W        W46988   4.843   8.321   1.289  0.0016 -0.0924  0.1643
31180W        W46989   5.794  13.790  11.160 -0.2268  0.0875  0.1557
31181W        W46990   0.144  15.458   1.545  0.0721 -0.2276 -0.0925
31182W        W46991   9.278   1.768   0.901 -0.0985 -0.0468  0.3216
31183W        W46992  14.211  10.817  10.699  0.2169  0.0595 -0.1567
31184W        W46993  16.372   1.672   1.777 -0.1260 -0.0502  0.1739
31185W        W46994   9.522   2.182  12.565 -0.2891 -0.1683  0.4242
31186W        W46995   0.707   8.304   0.012 -0.0954  0.1546  0.0749
31187W        W46996  11.721   6.501   4.156 -0.0168 -0.0735  0.1496
31188W        W46997   8.517   5.144  16.001  0.2035 -0.2044 -0.1546
31189W        W46998   3.869  16.278   6.155  0.1588  0.0770  0.0986
31190W        W46999  13.508  10.299   2.747 -0.3900 -0.0931  0.1098
31191W        W47000  11.979  17.850   4.407 -0.3376  0.1129 -0.1421
31192W        W47001   3.925  11.305   2.809 -0.0918 -0.2116  0.2578
31193W        W47002   4.324  16.552  15.059  0.1818  0.4701 -0.0914
31194W        W47003   5.220   3.797  15.921 -0.3452  0.0305 -0.2903
31195W        W47004  12.177  13.181   3.585  0.3762  0.0228  0.1823
31196W        W47005   6.365   0.865   1.579  0.3901 -0.0228  0.2756
31197W        W47006   5.981  13.982   2.025 -0.0791 -0.1257  0.0379
31198W        W47007   5.205  17.229  14.454  0.2153 -0.1321  0.1357
31199W        W47008  10.367   2.570  14.692 -0.0604 -0.0975  0.4325
31200W        W47009  10.474   9.409   3.078  0.0677 -0.0673  0.2320
31201W        W47010  16.241  14.128  15.072  0.3321 -0.1452 -0.0415
31202W        W47011   5.344   8.331  10.300 -0.0182  0.0430 -0.3322
31203W        W47012   8.818  10.015  15.329  0.0323 -0.1951 -0.1222
31204W        W47013   4.074   3.099  13.532  0.1915 -0.1221 -0.2630
31205W        W47014  10.947   7.514   3.433 -0.0549  0.0327  0.3077
31206W        W47015  15.109   2.454  14.164 -0.1302  0.5006 -0.0801
31207W        W47016  12.601  12.285  11.478 -0.0065 -0.1973  0.2552
31208W        W47017   7.715  12.911  12.565 -0.0476  0.3537 -0.3641
31209W        W47018  12.325  11.909  11.670  0.1649 -0.0152  0.2115
31210W        W47019  16.140   0.276  12.231 -0.0542  0.0101 -0.1358
31211W        W47020   4.383   0.286   2.036  0.0398  0.0663  0.1429
31212W        W47021   8.379   2.217  11.686 -0.3063  0.0501  0.0268
31213W        W47022  18.031   4.595  11.890  0.1496 -0.3522 -0.0693
31214W        W47023   9.529  17.551  10.521 -0.2137 -0.1782 -0.0965
31215W        W47024   6.714   3.585   4.403  0.2049  0.0796 -0.0452
31216W        W47025  17.303  13.682  12.899 -0.0225 -0.0576 -0.2592
31217W        W47026  11.965  15.246   1.995 -0.3981 -0.1220  0.0018
31218W        W47027   2.569   3.411   4.680 -0.2117 -0.1088  0.1912
31219W        W47028   2.851   7.715  11.238 -0.1576 -0.1660  0.2226
31220W        W47029   0.736  17.742  11.909  0.0833 -0.2867  0.0987
31221W        W47030   8.307   0.068   2.384 -0.0022  0.1281  0.1301
31222W        W47031  15.172  13.970   0.539 -0.2670 -0.3301 -0.2621
31223W        W47032  14.045  10.336   5.769 -0.1324  0.1552  0.1026
31224W        W47033   8.718  18.066   5.831  0.1471  0.0618  0.0147
31225W        W47034  17.775   2.532   3.066 -0.0561  0.0069  0.1578
31226W        W47035   4.167  15.951   2.688 -0.0473  0.3778  0.2512
31227W        W47036  14.466   1.791   4.035  0.0410  0.1648  0.3399
31228W        W47037   3.475  11.906   0.215  0.2908 -0.2647 -0.0791
31229W        W47038   8.269   0.389   3.782  0.0489 -0.0981 -0.1255
31230W        W47039   9.314   5.950  14.614  0.0688 -0.1434  0.3466
31231W        W47040   0.434  14.880   5.927 -0.1733 -0.3869  0.0823
31232W        W47041  10.092  10.284   2.707 -0.1378  0.0308  0.0806
31233W        W47042  13.658   7.574  11.937  0.1424  0.1136 -0.1195
31234W        W47043  17.194   1.288   4.903 -0.1068  0.1956 -0.1811
31235W        W47044   7.728  17.387  11.791 -0.0961 -0.2933 -0.0578
31236W        W47045   0.081  11.109   5.126  0.1834  0.3490  0.1975
31237W        W47046  17.313  13.694  15.809  0.1914 -0.4378  0.5254
31238W        W47047   5.106   3.465  13.569 -0.0311  0.0339 -0.0220
31239W        W47048  15.066  13.497  11.710 -0.2661  0.3734 -0.0636
31240W        W47049   1.939   8.804   1.701  0.1298  0.0935 -0.2669
31241W        W47050   8.424   3.324  12.996  0.2115 -0.1657  0.1615
31242W        W47051   2.283   8.314   0.480 -0.0045  0.0781 -0.3164
31243W        W47052   7.698  12.762  15.042  0.1180 -0.0269  0.0027
31244W        W47053   2.393  16.672  14.330  0.0372  0.3906  0.0286
31245W        W47054   5.079   6.532  15.683 -0.2696  0.0549  0.3159
31246W        W47055   9.150  10.570  14.741 -0.2146 -0.3762  0.0623
31247W        W47056  16.143   0.082  13.089 -0.0371 -0.0907 -0.2764
31248W        W47057  13.094  13.141   3.866  0.2208 -0.1546  0.2551
31249W        W47058  14.985   4.468  11.477 -0.2985 -0.0990  0.0267
31250W        W47059   9.431   1.826   1.366  0.0995 -0.1371 -0.1084
31251W        W47060   4.057   6.977  10.802 -0.2320 -0.0653 -0.1569
31252W        W47061   1.456  12.655   3.222  0.0028 -0.0796 -0.0006
31253W        W47062  10.134   1.307   4.187  0.0002 -0.3472 -0.1359
31254W        W47063  18.179   5.070   4.033 -0.3718 -0.3035 -0.0042
31255W        W47064  17.132   7.930   3.554  0.0151 -0.1128  0.0740
31256W        W47065  16.617  12.181  13.299 -0.1176  0.0022 -0.0503
31257W        W47066  15.676   5.148  14.086 -0.0109 -0.1365 -0.0087
31258W        W47067   3.415   8.108   4.382 -0.0745  0.1470 -0.3584
31259W        W47068   3.385   3.189   0.873 -0.4441 -0.1940 -0.0109
31260W        W47069  10.335  10.360  10.838 -0.3158  0.3363  0.0202
31261W        W47070   2.357  14.878  14.094  0.0100  0.1242 -0.4678
31262W        W47071   0.364  15.508  15.650  0.0558 -0.2464 -0.1925
31263W        W47072   5.818   7.531  15.559  0.1455  0.0896 -0.2202
31264W        W47073   1.817  12.659  15.250  0.2474  0.0192 -0.1374
31265W        W47074   0.343  13.357   3.061 -0.0948 -0.1211 -0.1540
31266W        W47075  14.263  14.072  10.777 -0.0167 -0.2124 -0.1111
31267W        W47076  12.149   6.943   4.120  0.0892  0.0390  0.0462
31268W        W47077  17.511  12.491   4.046 -0.0849  0.1295 -0.1522
31269W        W47078   3.443  12.056  12.848 -0.0537  0.0357  0.2111
31270W        W47079  14.554  13.926  15.680 -0.1091 -0.0111  0.0860
31271W        W47080   6.108  12.289   2.122 -0.0926 -0.4312  0.1253
31272W        W47081   9.913   2.611  12.605  0.1527  0.1379  0.2197
31273W        W47082   1.225   3.386  15.186  0.0196 -0.3277  0.0358
31274W        W47083   3.340  11.189  14.068 -0.2797 -0.2436  0.3166
31275W        W47084  14.581   6.943   0.199 -0.3855 -0.1165 -0.1564
31276W        W47085   7.318   5.177   1.635  0.0588  0.0577  0.1180
31277W        W47086  18.051   8.740   3.538  0.1030  0.1740  0.1103
31278W        W47087   3.516   8.485   4.746 -0.0856  0.1324  0.2878
31279W        W47088  18.026  16.957   1.218 -0.0208 -0.2380 -0.2673
31280W        W47089   6.108  16.619  11.359  0.2234  0.1637 -0.1899
31281W        W47090  14.801  11.268   3.614 -0.0185 -0.0826  0.1551
31282W        W47091  14.715  11.829   5.058  0.2224 -0.2589  0.0710
31283W        W47092   7.628  17.617  14.885  0.0177 -0.4846  0.0946
31284W        W47093  15.764   3.383   1.298  0.1104 -0.0765  0.0915
31285W        W47094   1.373  16.189  11.855  0.0825 -0.2101 -0.3881
31286W        W47095   9.903  13.664   3.557  0.0482 -0.2539  0.0646
31287W        W47096   0.384  10.644  12.596  0.2308  0.0931  0.0770
31288W        W47097   8.345   2.251  15.907  0.1148 -0.2482 -0.0542
31289W        W47098   2.126   3.692  13.986  0.1199  0.3558 -0.1553
31290W        W47099   7.942  17.538   2.905  0.0438 -0.0566  0.0864
31291W        W47100   9.993  11.481   0.422 -0.0182  0.1831 -0.1490
31292W        W47101   7.494  14.528  11.031  0.0833  0.0867 -0.0340
31293W        W47102  15.967   2.226   3.635 -0.0050  0.1512 -0.0319
31294W        W47103   3.831   1.761   1.411 -0.0084 -0.1459 -0.1945
31295W        W47104   9.983  10.753   0.943 -0.0229 -0.1759 -0.4048
31296W        W47105  16.632   3.388  15.403  0.1066 -0.2714  0.1245
31297W        W47106   0.696   9.615   2.438 -0.0897  0.0083  0.0598
31298W        W47107   9.122  12.787  10.965 -0.1155  0.1674 -0.0545
31299W        W47108  18.133   6.029   2.510  0.0026 -0.1538 -0.3330
31300W        W47109   6.794   9.680   0.246 -0.0494  0.1788 -0.1160
31301W        W47110   4.558  14.488   2.005  0.0548 -0.0371  0.0068
31302W        W47111   0.661  10.691  14.092  0.1111 -0.2072 -0.1910
31303W        W47112  12.049   7.595   6.181 -0.1149  0.2091  0.1576
31304W        W47113   5.888   3.086  13.143  0.0353 -0.1652 -0.2282
31305W        W47114   1.898   2.940   5.366 -0.0178  0.2203 -0.1683
31306W        W47115   2.728   9.528  16.013  0.2561  0.0057 -0.1852
31307W        W47116  11.489   9.895  12.403  0.1600 -0.1107  0.1765
31308W        W47117   5.039  12.176  15.455 -0.1519  0.0935  0.0669
31309W        W47118   0.294  10.994   5.582  0.1520  0.1248  0.1025
31310W        W47119  13.228  16.705  11.812  0.1798 -0.0771 -0.3245
31311W        W47120  14.266   6.226   1.795 -0.3686  0.1487  0.2386
31312W        W47121  17.208  14.699   0.006  0.0438 -0.0876  0.1968
31313W        W47122   9.725  17.910   2.020 -0.1233  0.0489 -0.0761
31314W        W47123   3.335  12.477   3.697  0.0486 -0.0393 -0.1516
31315W        W47124   5.580   3.911   4.961  0.1750 -0.2074  0.2836
31316W        W47125  14.750  11.443  15.284  0.0680 -0.0916 -0.2429
31317W        W47126   1.157  14.353  13.194  0.0869 -0.1101  0.1043
31318W        W47127   1.286   5.425  10.621  0.2820  0.3955 -0.0817
31319W        W47128  12.017  12.456   0.810  0.0277 -0.4860  0.1201
31320W        W47129  10.181   8.589  11.299 -0.1660  0.3851 -0.1450
31321W        W47130  17.716   9.822   1.080  0.0869 -0.0154  0.2130
31322W        W47131   7.784  11.574  11.461  0.1275  0.4540  0.1330
31323W        W47132   8.299  18.141  13.401  0.2893 -0.1569 -0.0733
31324W        W47133   5.691   7.222   5.190 -0.3024 -0.0599  0.1203
31325W        W47134   4.627   6.559  15.994  0.1253  0.0304 -0.1341
31326W        W47135   3.172   5.460   3.513 -0.0147 -0.0605  0.1685
31327W        W47136  17.108   5.378   0.191 -0.2193 -0.0652  0.0445
31328W        W47137   4.229  17.871   0.787 -0.1977 -0.0600  0.0512
31329W        W47138  16.125  12.161  14.675  0.0737 -0.1079 -0.3533
31330W        W47139   8.951  11.962  15.782  0.3011 -0.2252  0.3241
31331W        W47140  15.197   4.350  11.020  0.2650  0.1939 -0.1055
31332W        W47141   3.269  14.784  12.579  0.1508  0.1922 -0.1344
31333W        W47142  11.086   7.533   2.053 -0.0760 -0.3075 -0.1030
31334W        W47143   7.615  15.940   4.118  0.2951  0.1548 -0.3552
31335W        W47144   7.314   3.433  12.535 -0.2608 -0.1096  0.1765
31336W        W47145  15.212   6.802  15.190  0.1882  0.0052  0.2218
31337W        W47146   1.683  17.141   1.270 -0.0074  0.0796 -0.0673
31338W        W47147  14.270   2.909  14.242  0.2116  0.1310 -0.2622
31339W        W47148  15.436  16.448   2.779 -0.3451  0.2310 -0.1381
31340W        W47149  13.602   3.750   3.971  0.3196  0.0163 -0.0141
31341W        W47150   5.930  10.055  15.914 -0.2125 -0.0120  0.1408
31342W        W47151  18.168   4.559   0.327  0.2741 -0.1566  0.1553
31343W        W47152  16.128   3.078   5.836  0.3573 -0.2173 -0.1552
31344W        W47153   3.925  14.743   0.474  0.0304  0.1116 -0.1790
31345W        W47154   7.513   3.196   4.415  0.1279 -0.0515  0.0370
31346W        W47155   1.021   5.613   2.236 -0.2398  0.1439 -0.1121
31347W        W47156  10.285  16.673   2.639  0.1115  0.2258 -0.0255
31348W        W47157  11.693  16.212  12.136  0.0165  0.3150  0.1194
31349W        W47158  17.182   2.946  12.761  0.3932 -0.2102 -0.1453
31350W        W47159   8.505   4.721   5.300  0.1519 -0.0000 -0.0239
31351W        W47160   1.480   8.685  12.383 -0.0580  0.2749  0.3575
31352W        W47161   6.998   0.776  12.966  0.1895  0.2457  0.1549
31353W        W47162  16.891   6.060   2.392  0.0389 -0.1870 -0.1045
31354W        W47163  14.255   2.751   4.043 -0.3012 -0.4454  0.0192
31355W        W47164   6.584   4.119   3.599 -0.1110  0.0840 -0.1575
31356W        W47165   3.678   9.032   2.770  0.0944 -0.1267  0.2449
31357W        W47166  14.102  11.710   3.031 -0.1685  0.3512 -0.0050
31358W        W47167  12.044  15.277   1.417 -0.0191 -0.0355  0.0172
31359W        W47168   4.707  15.931   2.659  0.3575  0.2586 -0.0772
31360W        W47169   1.516   9.759  13.515 -0.0375 -0.4133 -0.2200
31361W        W47170   4.322   1.722  11.378  0.1297 -0.0299 -0.1652
31362W        W47171  17.695   1.894   3.437  0.1468  0.0384 -0.2346
31363W        W47172  16.153  11.873  14.196 -0.0315  0.4351 -0.0130
31364W        W47173  17.832   8.005   2.889  0.2152 -0.1443  0.0520
31365W        W47174   6.545   7.856  10.991 -0.3141 -0.1190 -0.0188
31366W        W47175  13.923   8.062  14.362 -0.1950  0.1502 -0.0438
31367W        W47176   3.599  15.468   2.962  0.1471 -0.0265 -0.3432
31368W        W47177  14.419  14.148   0.019 -0.1172  0.3751  0.1341
31369W        W47178  17.566  13.562   0.654 -0.3265  0.1131 -0.2127
31370W        W47179   3.950   0.531   3.382  0.0094  0.1154 -0.1553
31371W        W47180   6.001   3.230  14.160  0.2572 -0.0847 -0.0097
31372W        W47181   3.827   1.832  15.049  0.3825 -0.2710  0.1124
31373W        W47182  11.008   6.017  10.297 -0.0240 -0.1633  0.4108
31374W        W47183   8.833  10.360   0.052 -0.0618 -0.0350 -0.0113
31375W        W47184  15.227   8.718  12.266  0.2819  0.0133 -0.0469
31376W        W47185  11.457  13.581   1.330  0.1067 -0.0535  0.3116
31377W        W47186  17.040   6.555   4.456 -0.0278 -0.1506 -0.1963
31378W        W47187   8.896  14.185   0.988  0.1390 -0.1212 -0.2846
31379W        W47188   7.036   6.975  14.426  0.0432  0.1075 -0.0473
31380W        W47189   1.624   3.790   5.024 -0.1876 -0.1261 -0.1713
31381W        W47190   2.055   1.420   2.088  0.2867 -0.0585 -0.1201
31382W        W47191   3.846  14.133   5.826  0.0914  0.1833  0.1540
31383W        W47192   9.287  17.288   2.507  0.0483 -0.0042 -0.1967
31384W        W47193   3.545   3.427  10.293  0.3409  0.0665  0.0801
31385W        W47194   2.292   8.509  12.880  0.0525 -0.0727  0.0604
31386W        W47195  10.860   7.781   0.389  0.0615 -0.3238  0.0569
31387W        W47196   2.014   5.726   3.917  0.0656  0.0051  0.1149
31388W        W47197   8.923   4.657   4.992  0.1575 -0.1241 -0.2374
31389W        W47198  15.407   4.511   5.000  0.0134 -0.0831  0.0617
31390W        W47199   0.078  11.473  12.717 -0.0087 -0.1898  0.4403
31391W        W47200  17.341  14.908  11.532  0.0444 -0.2523 -0.0298
31392W        W47201   4.372  14.312   5.128  0.1886 -0.4090 -0.0144
31393W        W47202   0.884   3.732  15.241  0.0782  0.0901  0.1458
31394W        W47203  15.163  14.261   5.004 -0.1046 -0.3335 -0.0463
31395W        W47204  13.849   2.293  13.056  0.1183  0.0802  0.1003
31396W        W47205   4.003   2.973  14.583  0.1075 -0.3449 -0.0923
31397W        W47206   5.452   2.199   1.470  0.1189 -0.0195  0.2922
31398W        W47207  15.771   3.371  15.503 -0.2665 -0.2263  0.0266
31399W        W47208  17.359  10.033  13.511 -0.1208  0.2046  0.1007
31400W        W47209   1.554   5.866   3.017 -0.2850 -0.0162  0.0129
31401W        W47210  10.526   8.618  12.562  0.0313 -0.1340  0.0808
31402W        W47211  16.936   9.688   4.137  0.4352 -0.0669  0.2578
31403W        W47212   5.231   6.126   3.802  0.0089 -0.0897  0.1401
31404W        W47213   4.734   9.281   0.237 -0.3204 -0.1799  0.0399
31405W        W47214   0.466   0.092  14.981  0.1138 -0.0017 -0.0427
31406W        W47215  17.057   6.974   4.070  0.3802 -0.0157  0.0568
31407W        W47216  14.404  13.254  10.404 -0.2042  0.0521  0.0846
31408W        W47217   2.019  12.446   5.000  0.0922  0.0834  0.1538
31409W        W47218   4.022  15.023   4.981 -0.1510  0.0362 -0.0357
31410W        W47219   2.251   3.331   3.742 -0.0659  0.3679 -0.2587
31411W        W47220  16.772   2.593   2.914 -0.0753 -0.2661  0.0543
31412W        W47221  10.141   6.096   1.741 -0.1576 -0.0201  0.4366
31413W        W47222   8.287   1.304   5.682  0.1913  0.1082  0.0508
31414W        W47223  17.392   9.345   3.640  0.0994  0.1008  0.1442
31415W        W47224   3.723   9.141  15.310 -0.3740  0.0184 -0.1018
31416W        W47225  17.428   5.945  11.480  0.2694 -0.3608  0.0211
31417W        W47226   0.378  12.521   2.564  0.0428  0.3291 -0.1566
31418W        W47227  10.421   7.772   3.299 -0.0162  0.2987 -0.2274
31419W        W47228  10.534   0.066  11.916  0.2477  0.2378 -0.0763
31420W        W47229  12.883   7.606  15.587 -0.1935 -0.0370 -0.0184
31421W        W47230  12.792   2.386  15.929  0.0806 -0.0788  0.2582
31422W        W47231   8.479  14.439   1.617  0.1894  0.1517 -0.0060
31423W        W47232   0.169  15.688   0.174 -0.3431  0.1098 -0.2360
31424W        W47233  12.923   4.483  10.092  0.1966  0.0076  0.2594
31425W        W47234   0.126  13.811   0.430 -0.0207  0.0923  0.2247
31426W        W47235   1.423   9.339  13.155 -0.1234  0.0193  0.1747
31427W        W47236  13.415   3.890   5.317  0.0836 -0.2015 -0.1588
31428W        W47237   7.090   5.508  15.478 -0.2030 -0.1258  0.0694
31429W        W47238   7.686  16.841   4.239 -0.0222 -0.2932  0.3138
31430W        W47239  13.606   4.471   1.634 -0.1684  0.0897 -0.1750
31431W        W47240  15.953   6.482   4.883  0.0619  0.0784 -0.2891
31432W        W47241  17.212  11.024  12.161 -0.2299  0.1132 -0.1702
31433W        W47242  14.349  10.365   4.335  0.0986  0.1629  0.1052
31434W        W47243   9.015  12.675  14.178 -0.1086 -0.0287  0.0947
31435W        W47244   7.469   5.844  11.460  0.0770 -0.0953 -0.1198
31436W        W47245  16.937   7.826   2.513 -0.3664  0.0960  0.1193
31437W        W47246  13.912  18.240   3.952 -0.1249  0.1757 -0.3149
31438W        W47247   3.535  16.613   3.784  0.2173 -0.4706  0.1976
31439W        W47248   4.373  15.475   2.736 -0.0145 -0.1018 -0.1378
31440W        W47249  16.778   2.000   3.656 -0.3316 -0.0328  0.0208
31441W        W47250   3.721   8.996   3.264  0.1813 -0.1542  0.2584
31442W        W47251   5.301  16.766   4.347  0.0468 -0.1524  0.0769
31443W        W47252   4.816   2.103  15.733 -0.3159  0.0808 -0.0707
31444W        W47253   0.518   4.345   0.009 -0.0467 -0.1754 -0.2270
31445W        W47254  17.812  15.159   4.214 -0.0656  0.0618  0.2486
31446W        W47255   4.166   1.198  10.665  0.1463 -0.0009 -0.7328
31447W        W47256   0.283   9.486  14.173 -0.0590  0.2417 -0.2356
31448W        W47257  14.993  16.220   2.906  0.2600 -0.3000 -0.0159
31449W        W47258  10.126   5.570   1.393  0.1199 -0.0451  0.1545
31450W        W47259  10.887   2.896   0.380  0.1091  0.0941  0.1896
31451W        W47260   9.332   4.454  13.534  0.1538  0.0983  0.0543
31452W        W47261   0.415   2.815   2.737  0.1519  0.0019  0.1059
31453W        W47262  14.961  18.062   4.226 -0.0824  0.0721  0.0434
31454W        W47263  12.006  11.175  13.452 -0.0469  0.0686 -0.0479
31455W        W47264  14.649   4.148  11.712 -0.5012 -0.0598 -0.1923
31456W        W47265   3.732   4.136  14.749 -0.0669 -0.0138 -0.0115
31457W        W47266  11.311  15.522  11.539 -0.1205  0.2189 -0.0050
31458W        W47267   4.593   5.216   0.926  0.2884  0.0060  0.0608
31459W        W47268   3.355   0.625  15.118  0.0179  0.1541 -0.1310
31460W        W47269  10.977  14.073   3.886  0.1871 -0.1193  0.1693
31461W        W47270   4.298   4.694  13.504 -0.0002  0.0942  0.2140
31462W        W47271   5.628   2.867   3.081  0.2393 -0.0701  0.3265
31463W        W47272   2.724  11.773  14.751  0.0828 -0.0257 -0.1339
31464W        W47273   5.874   7.705   3.600  0.0677  0.0517  0.2933
31465W        W47274   4.300   1.776   3.103  0.0356 -0.0885 -0.0770
31466W        W47275  11.556   1.028   5.329  0.0696  0.0718 -0.2296
31467W        W47276   1.041  17.654  14.544  0.3624 -0.0687  0.0323
31468W        W47277   8.229   6.913  13.403 -0.1344 -0.0196  0.1009
31469W        W47278   4.948  12.158   5.293  0.1420 -0.2245  0.0857
31470W        W47279  11.909  14.777  13.490 -0.0240  0.0247 -0.1634
31471W        W47280   8.221   7.724  11.064  0.2811 -0.1614  0.1254
31472W        W47281   5.790   3.790  15.697 -0.1096  0.0048 -0.1824
31473W        W47282  11.379  15.534  10.044  0.0668 -0.2333 -0.2175
31474W        W47283   1.675   3.250   5.014 -0.0782  0.1219 -0.0128
31475W        W47284   9.507  13.200  15.257 -0.0087 -0.1498 -0.0289
31476W        W47285   8.852   2.133   4.151 -0.0815  0.0641  0.0931
31477W        W47286   1.217   0.203  12.982  0.1076  0.1696 -0.1956
31478W        W47287   8.323  11.819   3.838 -0.2206  0.1799 -0.0647
31479W        W47288   4.467  17.968   1.374 -0.1130  0.1312 -0.1547
31480W        W47289  14.667   9.905  11.660 -0.1910 -0.0491  0.2767
31481W        W47290  14.831   6.879  15.551 -0.0960  0.0018  0.2747
31482W        W47291   2.971   0.742  13.951  0.0995 -0.0497 -0.0158
31483W        W47292   7.149  10.236  10.267 -0.1176 -0.0058  0.0582
31484W        W47293   6.363   1.196  13.069  0.3172  0.0001  0.2453
31485W        W47294   4.732  14.725  12.690  0.2612  0.1332 -0.0999
31486W        W47295   6.556  10.142   1.558 -0.0581  0.0056  0.0207
31487W        W47296   2.719  17.826  10.794  0.1625 -0.0026  0.2038
31488W        W47297  15.511   1.780   5.042  0.2533 -0.2837  0.1049
31489W        W47298   3.488  13.284  14.120 -0.1640  0.0684  0.0246
31490W        W47299   5.836   4.194   0.535  0.1626  0.0687  0.0667
31491W        W47300  15.600  12.001  14.208 -0.0132 -0.1794 -0.2204
31492W        W47301   6.751  15.058   4.308  0.1109 -0.1195 -0.0765
31493W        W47302   5.373   5.928  15.065 -0.1509  0.2755  0.2799
31494W        W47303  13.422   7.052  11.221 -0.2584 -0.1889  0.2256
31495W        W47304   0.279   2.667  11.525  0.2012 -0.0512 -0.2930
31496W        W47305   9.226   6.816   4.584 -0.1173  0.2028  0.1261
31497W        W47306   6.772  10.290  14.969  0.2523  0.1514 -0.2530
31498W        W47307   2.443   1.831  13.411  0.4762 -0.2652 -0.2003
31499W        W47308   0.048   4.517  15.922 -0.0900 -0.1260 -0.1988
31500W        W47309  11.013  12.874  15.365  0.0028 -0.2819 -0.1317
31501W        W47310   8.060  11.369   4.421  0.0810  0.1681  0.2545
31502W        W47311   9.990  14.124   0.106 -0.1255  0.1200 -0.2301
31503W        W47312  12.093   8.259  13.638 -0.0168 -0.1435 -0.4017
31504W        W47313  15.829   6.104   1.565  0.1979  0.1179  0.1589
31505W        W47314   5.551  10.179  11.153 -0.0873 -0.0190 -0.0626
31506W        W47315   9.921   2.429   3.494 -0.0297 -0.0777  0.1598
31507W        W47316  11.741   8.885  14.261  0.0227  0.2633  0.0682
31508W        W47317  10.520  11.440   9.812 -0.0501 -0.1012  0.1094
31509W        W47318   8.284   3.665   0.396  0.1707 -0.2194  0.0781
31510W        W47319   0.402   8.295   1.394 -0.0276 -0.1994 -0.1527
31511W        W47320   9.614   2.023   4.790  0.4718  0.2917 -0.1563
31512W        W47321   2.962   7.327  12.833  0.2330 -0.2516 -0.1544
31513W        W47322   9.758  12.371  12.321 -0.1610  0.2697 -0.0854
31514W        W47323  11.312   6.026   4.494  0.0484  0.1047  0.4393
31515W        W47324  15.043  17.584  12.185  0.1774  0.0329 -0.0494
31516W        W47325  11.401   9.240   4.360 -0.3935  0.0243 -0.1692
31517W        W47326   5.159  15.890   2.789 -0.1345  0.0883  0.2338
31518W        W47327  15.226  10.035   4.342  0.1292  0.0892 -0.0269
31519W        W47328  17.940   6.708  13.807  0.0417  0.3771 -0.0484
31520W        W47329  14.395   4.924  15.041 -0.1324  0.0949 -0.0941
31521W        W47330   3.986  11.596  13.231 -0.1093  0.0421  0.2369
31522W        W47331   1.329   6.382  15.412  0.2598  0.1689 -0.0319
31523W        W47332  17.406  14.232  15.777  0.0462  0.1209 -0.1263
31524W        W47333   6.926   7.664  15.804 -0.2580  0.1894  0.1170
31525W        W47334  15.330   3.845  13.519 -0.1617  0.1127  0.1705
31526W        W47335   1.166   5.130  15.102 -0.1291  0.0171 -0.0030
31527W        W47336  13.830   9.640  14.613  0.0805  0.1140  0.3755
31528W        W47337   2.025  15.676  13.502 -0.2314  0.5529 -0.0142
31529W        W47338   5.727  14.274   4.896  0.0867  0.0195 -0.0238
31530W        W47339   1.969   8.886  13.739 -0.2852  0.0633 -0.0746
31531W        W47340   9.843   2.647   0.777 -0.0566 -0.1954  0.1800
31532W        W47341  16.916   6.613   2.362 -0.0710  0.1513 -0.2211
31533W        W47342  13.670   7.534  11.420  0.3172  0.0215 -0.1943
31534W        W47343   2.693  17.139  12.743  0.0051  0.1057  0.1395
31535W        W47344   7.494   9.837  14.568  0.1837 -0.2667 -0.0389
31536W        W47345   7.793  10.818   2.209 -0.0425  0.1787  0.0905
31537W        W47346   2.027   6.315  12.501  0.0153  0.0268  0.0348
31538W        W47347  15.638  13.489   4.090  0.0496 -0.0733  0.0633
31539W        W47348   8.186   0.925   1.192  0.4775  0.0636 -0.0683
31540W        W47349   0.122  16.476   3.961 -0.2116  0.2290 -0.1423
31541W        W47350   9.309  14.040  15.688  0.0524  0.0984  0.0458
31542W        W47351  16.818  11.552  15.846  0.2856  0.0468 -0.1145
31543W        W47352   3.779  10.736  11.605 -0.1187 -0.2784 -0.0162
31544W        W47353  10.505   8.946   3.508 -0.2441  0.2821  0.2055
31545W        W47354  10.312  14.708  12.474 -0.1169 -0.0141  0.1570
31546W        W47355  17.974  15.872   2.263 -0.3574 -0.0834  0.0633
31547W        W47356   5.516   3.614  11.679 -0.1012 -0.0155  0.0406
31548W        W47357  17.020   9.501   3.357 -0.0424 -0.1040 -0.0811
31549W        W47358  16.641   5.718   4.269 -0.1998  0.0995 -0.0395
31550W        W47359   8.819  16.884  13.940 -0.1198 -0.2705  0.1048
31551W        W47360   1.411   6.437   1.495 -0.3382 -0.0722 -0.1901
31552W        W47361   5.537  14.136   3.425 -0.1024  0.1587 -0.0520
31553W        W47362   3.751  13.368   3.472 -0.2050  0.1186  0.2988
31554W        W47363   5.991  10.656  14.024  0.3071 -0.2022 -0.0938
31555W        W47364   9.375   1.329  14.378  0.2202 -0.1507 -0.0481
31556W        W47365  11.907   7.650  15.713  0.1259  0.1486  0.0685
31557W        W47366   1.225   2.457  15.814 -0.1515 -0.1517  0.1132
31558W        W47367   2.436   7.623   5.055 -0.1897  0.1186 -0.3036
31559W        W47368   1.062  10.986  15.371  0.0000  0.1697 -0.1708
31560W        W47369  13.320  16.535  13.222 -0.2006 -0.0637  0.0545
31561W        W47370  10.665  15.331   0.699  0.5387 -0.1767  0.1477
31562W        W47371  13.039  13.659   0.954 -0.1924 -0.2678 -0.0816
31563W        W47372  16.690  15.496  12.884  0.0828  0.0209 -0.1626
31564W        W47373  12.565   3.862  14.701 -0.0030 -0.1725  0.1845
31565W        W47374  14.023  14.697  12.486 -0.1705  0.2859  0.2865
31566W        W47375  12.703   4.917  11.819  0.1005 -0.0252 -0.1547
31567W        W47376   1.643  17.596  15.233  0.1224 -0.1661 -0.3220
31568W        W47377   5.420   5.475  12.925  0.0694 -0.0267  0.0859
31569W        W47378  10.217   9.165   2.752 -0.0935  0.3726 -0.1174
31570W        W47379  17.818   6.350  12.745  0.0830  0.0403  0.2590
31571W        W47380  17.544  15.124  15.834  0.1121 -0.0126  0.1353
31572W        W47381   5.952  12.528  11.650  0.1236  0.0660  0.2087
31573W        W47382  16.160   4.393   3.081  0.2879 -0.3828 -0.0374
31574W        W47383  14.375   1.471  13.436  0.2322 -0.0311  0.1617
31575W        W47384  11.834  10.805  16.013 -0.0258 -0.2025 -0.0093
31576W        W47385   4.159  17.364  10.997  0.0336 -0.1632 -0.0248
31577W        W47386   4.052  10.928  13.856  0.1243  0.1527 -0.1965
31578W        W47387   9.582  16.257  12.008 -0.1159  0.0651 -0.1378
31579W        W47388   8.980  14.328  12.728  0.0530  0.0112 -0.2070
31580W        W47389  16.585  12.772  15.121 -0.0716  0.2677  0.2800
31581W        W47390   5.476  13.770   3.775 -0.1796 -0.3022 -0.0308
31582W        W47391  13.128  13.270  14.145  0.0851 -0.1388  0.0307
31583W        W47392   6.485   8.804  12.572 -0.0237  0.0064  0.4328
31584W        W47393  15.196  16.434   0.277  0.0425 -0.1821  0.1063
31585W        W47394  14.490  17.216  11.425  0.0144 -0.0047 -0.3189
31586W        W47395   9.279   6.049   1.348 -0.0249 -0.1487  0.3554
31587W        W47396  11.539  17.270   2.578 -0.1840 -0.2359  0.0712
31588W        W47397  17.311  15.991  12.699 -0.0960  0.0750 -0.0994
31589W        W47398   1.088   3.267   3.989 -0.0116  0.2397 -0.1081
31590W        W47399  10.749   8.324  12.946 -0.0979 -0.0263  0.1568
31591W        W47400   4.592  15.612  15.430  0.0948  0.0623  0.0550
31592W        W47401   0.747   5.024   4.346 -0.2953  0.2041 -0.4821
31593W        W47402   1.075  14.962   0.073  0.0308 -0.0973  0.0258
31594W        W47403  16.290  14.323   0.500 -0.0504  0.1769  0.0942
31595W        W47404   6.027   0.802   2.121 -0.1983 -0.0743 -0.0171
31596W        W47405   4.778  17.335  13.479 -0.0024 -0.4260 -0.0873
31597W        W47406   8.806   5.797   3.221 -0.0242  0.1027  0.0959
31598W        W47407   6.903   6.482  14.463 -0.1889 -0.1466 -0.1838
31599W        W47408   4.334   6.910  13.641 -0.0330 -0.1124  0.1404
31600W        W47409   3.564   5.223   4.815 -0.1164  0.3080  0.0711
31601W        W47410   7.338  14.367   3.242  0.1144  0.0116  0.1994
31602W        W47411   4.592   8.183   1.681  0.1551  0.1111 -0.0536
31603W        W47412   4.606   7.170   4.356 -0.0481  0.1670 -0.2225
31604W        W47413   4.480  15.659  11.226  0.0718  0.0334  0.2382
31605W        W47414   1.378   6.818   5.209  0.2333 -0.0884 -0.0581
31606W        W47415   3.531  17.131   0.368  0.0444  0.1336  0.1706
31607W        W47416  13.639   3.442  10.507  0.2099 -0.1342  0.1685
31608W        W47417   8.199  11.566   0.261  0.0673  0.2308  0.3667
31609W        W47418   9.415  12.654  15.546  0.1878  0.0700  0.1568
31610W        W47419   9.621   7.383  12.931  0.1324  0.1869  0.1994
31611W        W47420  14.646   4.426   2.754 -0.0899  0.1992 -0.0258
31612W        W47421   5.096  14.437  10.494  0.1811 -0.0054  0.1173
31613W        W47422  13.777  12.479   1.943  0.1255  0.1067  0.0713
31614W        W47423   9.021  16.665  11.859  0.0364 -0.0756  0.0344
31615W        W47424   9.763  16.147  13.848  0.0611 -0.2172 -0.1205
31616W        W47425   6.678  14.391  15.655  0.1235 -0.0611 -0.2119
31617W        W47426  16.055  15.345   1.850 -0.2437 -0.1625  0.2030
31618W        W47427  12.222   0.794  12.220 -0.1634 -0.0743 -0.1049
31619W        W47428  13.050   5.686   1.521 -0.3629 -0.0599 -0.3414
31620W        W47429   2.516  14.455   1.784 -0.2488 -0.1187 -0.1271
31621W        W47430  11.063   7.560  11.533 -0.1314 -0.0992  0.1752
31622W        W47431   9.514   5.419   1.916 -0.0116  0.0945 -0.0849
31623W        W47432  16.288  17.425   0.599 -0.1119 -0.0045 -0.0479
31624W        W47433   8.225   6.341  11.592  0.1195 -0.1239 -0.0282
31625W        W47434  17.361   3.038   5.045 -0.0210  0.1164 -0.0228
31626W        W47435  10.191   2.626   3.869 -0.4433 -0.0149  0.2300
31627W        W47436   9.559   3.109  13.636  0.1447 -0.0331 -0.0338
31628W        W47437  13.360   6.645  13.118  0.0280  0.0705 -0.0450
31629W        W47438  10.119  10.312  15.385 -0.0162  0.0229  0.0467
31630W        W47439  14.795  16.233   1.449  0.1017 -0.0766  0.5522
31631W        W47440   2.850   7.177   2.939 -0.0712  0.3361 -0.1918
31632W        W47441   0.925   2.818   1.618  0.4471  0.3422  0.1096
31633W        W47442   5.309   2.423  11.327 -0.0052  0.1435 -0.0780
31634W        W47443   0.495  11.413  13.536  0.1659 -0.0435 -0.0786
31635W        W47444   5.656   9.040  12.202  0.0459  0.0912  0.2667
31636W        W47445  11.510  15.263   0.907  0.2580  0.1790  0.1222
31637W        W47446   3.423  10.770  10.730  0.1774  0.2596 -0.2676
31638W        W47447   4.076  14.529  14.316  0.2791  0.0716  0.0802
31639W        W47448   5.785   8.910  15.020 -0.1302  0.1719  0.0904
31640W        W47449   5.738  10.007  12.187  0.0061  0.0540  0.3294
31641W        W47450   9.724   6.386   5.229  0.0903 -0.1321  0.2308
31642W        W47451   6.437   5.573  13.477  0.1147 -0.0631  0.0914
31643W        W47452   0.613   9.292   5.380  0.0812  0.0139  0.0564
31644W        W47453  13.787  13.692   2.154  0.3794 -0.2262  0.1463
31645W        W47454  14.605   4.657   4.103  0.1076  0.1071  0.0226
31646W        W47455   4.294   1.762   1.589 -0.1505  0.2877 -0.1410
31647W        W47456  12.827  11.296   1.935 -0.1556 -0.2034 -0.1448
31648W        W47457  13.389  14.306   3.925 -0.0171  0.3555 -0.1903
31649W        W47458  15.783   2.431   2.839 -0.2022 -0.2125 -0.3630
31650W        W47459   3.328   2.878   4.455 -0.1734  0.3295 -0.1713
31651W        W47460  11.781   2.470   6.013 -0.1856  0.0797  0.2476
31652W        W47461   9.828   6.999  11.555  0.2159  0.0621  0.4645
31653W        W47462  14.333   4.804  11.940  0.2908 -0.2394  0.2440
31654W        W47463  16.918  17.487   4.717  0.0129  0.2102  0.2871
31655W        W47464   2.880  11.949   5.477 -0.0539 -0.1492 -0.1298
31656W        W47465   5.000  11.651  14.216 -0.0486 -0.1445  0.0321
31657W        W47466   4.479   7.920   3.053 -0.1381  0.1532  0.0840
31658W        W47467  17.830  12.477  15.153  0.0469  0.0400  0.1438
31659W        W47468  15.743  12.256  15.031  0.1582  0.2534 -0.0307
31660W        W47469  17.259   9.838   1.970 -0.1201  0.3298  0.2525
31661W        W47470   2.939   3.477   2.555  0.0272 -0.1516 -0.2091
31662W        W47471  14.084   6.225  11.993  0.0925  0.2235  0.2005
31663W        W47472  13.694  11.818  12.384  0.0123 -0.0796 -0.0905
31664W        W47473   7.065   9.005   1.037  0.2112 -0.0555  0.2953
31665W        W47474  13.101   2.521   0.252  0.2384  0.0857 -0.2818
31666W        W47475   5.583   5.163   4.063  0.2762 -0.0267 -0.0877
31667W        W47476  11.537   7.081   3.008  0.0016  0.0242  0.1513
31668W        W47477   3.269  11.422   3.507 -0.2028  0.0587  0.0390
31669W        W47478  12.821   3.427  11.512 -0.0714 -0.0842  0.1658
31670W        W47479   0.635  18.249  11.688 -0.0391 -0.2141 -0.2659
31671W        W47480  11.166  14.716  12.156  0.0779 -0.1299  0.2998
31672W        W47481  11.023   1.819  11.005  0.0216 -0.1547 -0.3189
31673W        W47482  10.551   5.418   1.131 -0.0652  0.0790  0.0855
31674W        W47483   3.962  10.283  14.884  0.1763 -0.1396  0.4826
31675W        W47484   6.235   8.609  14.551  0.0144 -0.2187 -0.1864
31676W        W47485  13.271  12.769   4.174  0.1421  0.0600 -0.1181
31677W        W47486   0.059  15.640   3.533 -0.2367  0.0709  0.0326
31678W        W47487  17.667  15.687   1.035  0.0820  0.0194 -0.3813
31679W        W47488   3.106  15.863  11.184  0.1179 -0.2636  0.0641
31680W        W47489  17.840  14.183   0.843 -0.2197  0.0251 -0.0579
31681W        W47490  14.160  16.918   4.213  0.0767  0.0667  0.0973
31682W        W47491  10.830   6.131   5.427 -0.0181 -0.2054  0.1453
31683W        W47492   0.058   6.488   5.113  0.1184  0.2016 -0.0507
31684W        W47493   4.987  11.291  15.267  0.5015 -0.0078 -0.0654
31685W        W47494   0.428   3.725   1.054 -0.3271 -0.1533 -0.1028
31686W        W47495   7.603   6.543   1.608  0.2226  0.0698 -0.1649
31687W        W47496   1.570   3.457   4.573  0.0263  0.1931  0.2962
31688W        W47497  13.815  10.289  15.250  0.0536 -0.0452 -0.2653
31689W        W47498   1.233  17.245  13.685  0.0750  0.0868 -0.0730
31690W        W47499  13.516   6.987   0.953 -0.0622 -0.4036  0.1663
31691W        W47500  15.649   5.284   2.805 -0.0799 -0.0918 -0.0485
31692W        W47501  10.357   6.833  15.526 -0.2058 -0.0895 -0.2350
31693W        W47502   1.542   2.546   1.026  0.0226  0.0795 -0.2384
31694W        W47503  17.461   4.209   4.755  0.2212 -0.1733  0.0223
31695W        W47504  12.922  15.679  15.347  0.0358 -0.0805 -0.0117
31696W        W47505  11.382   9.223  10.959 -0.3421  0.1178 -0.1049
31697W        W47506   5.369   8.229  11.643 -0.0072 -0.0721 -0.1121
31698W        W47507  14.164   9.809   4.355  0.0108 -0.0500  0.0990
31699W        W47508   4.359   8.705   3.472 -0.1377 -0.0670  0.1640
31700W        W47509  16.417   9.298  12.063  0.2192  0.2021  0.2114
31701W        W47510   6.659   8.117   4.813 -0.1911  0.1188 -0.1365
31702W        W47511   2.794   5.222   1.125  0.0318  0.0617  0.1076
31703W        W47512   7.366  15.742   3.634 -0.1854  0.1519  0.0198
31704W        W47513  11.419  11.372  11.470 -0.0209  0.3286  0.1884
31705W        W47514   5.061   4.192  13.857 -0.1263  0.0775  0.1835
31706W        W47515   7.460  14.597  13.640  0.1535 -0.0511 -0.2142
31707W        W47516   4.629  10.428  15.818  0.2190  0.1932 -0.0207
31708W        W47517  15.972   4.317   4.768 -0.1152  0.4970  0.0148
31709W        W47518   8.313  14.577   0.196 -0.2723  0.2322  0.4363
31710W        W47519   2.244   6.935  11.246  0.1651 -0.2551 -0.2553
31711W        W47520  12.771  10.953  11.932  0.1887  0.0187  0.1369
31712W        W47521   1.751   2.428   0.583  0.1949  0.1144 -0.1799
31713W        W47522   5.821   5.525   0.368 -0.1052  0.0751  0.3303
31714W        W47523   4.775  16.369   2.332  0.3904 -0.1975  0.1163
31715W        W47524   9.834  11.633  12.779  0.0717 -0.0168  0.3529
31716W        W47525  16.221  10.161   5.077 -0.1246  0.2681 -0.2211
31717W        W47526   7.882   1.547   3.397 -0.0236 -0.0824 -0.0893
31718W        W47527  14.100  16.883  11.163  0.0898 -0.2227  0.2308
31719W        W47528   5.303  12.623  13.716 -0.3734  0.2621 -0.0492
31720W        W47529  12.583   2.603   1.839 -0.0758  0.1233  0.0531
31721W        W47530   7.873  10.860   5.743  0.0026 -0.1752 -0.0671
31722W        W47531  15.064   2.778   1.553  0.0355 -0.1030  0.1987
31723W        W47532  18.045  12.814   4.941 -0.3184  0.0536  0.0236
31724W        W47533   2.664  15.147  11.530  0.0075  0.2895 -0.2043
31725W        W47534  10.482   6.178  14.800  0.0799 -0.1062  0.1577
31726W        W47535  12.996  12.544  13.885 -0.1387  0.0372 -0.1138
31727W        W47536   4.486   2.396  16.019 -0.3334 -0.1084  0.4295
31728W        W47537  15.987  17.243  13.814  0.0527 -0.0912  0.0196
31729W        W47538   3.338   3.386  11.752 -0.1221  0.1805  0.1243
31730W        W47539  11.149   4.249   0.588  0.1534  0.2362 -0.2678
31731W        W47540   2.289   8.327  10.943 -0.0191  0.1516  0.1603
31732W        W47541   3.201   5.923   1.309  0.0631 -0.0053  0.0667
31733W        W47542   6.465   4.672   1.317 -0.2494  0.0629 -0.1481
31734W        W47543  12.664  10.706   5.129  0.0649 -0.0341  0.0932
31735W        W47544  15.742  17.465  14.365 -0.2558  0.1328  0.3841
31736W        W47545   9.105  12.974   3.449  0.0024  0.0335  0.2264
31737W        W47546   8.898   9.174   0.636  0.1415  0.2092  0.4146
31738W        W47547   6.801   5.414   3.949  0.2181  0.0440  0.0364
31739W        W47548   8.589  11.212  11.209 -0.0725  0.2323  0.1166
31740W        W47549   0.282  14.803   5.435  0.0523  0.0515  0.0395
31741W        W47550  13.828   6.695  13.088 -0.2590 -0.1878 -0.0657
31742W        W47551   2.890  14.663   3.121 -0.0095  0.0578  0.1316
31743W        W47552   4.496  13.222  13.913 -0.0494  0.2222  0.2675
31744W        W47553  15.861  17.059   3.447  0.0927  0.1029  0.0199
31745W        W47554  12.676   6.375   4.989 -0.2691  0.1784 -0.1309
31746W        W47555   0.500   6.156   1.651 -0.1398 -0.2938  0.0356
31747W        W47556  10.291  11.604   1.163  0.1857 -0.0658  0.1747
31748W        W47557  10.134   3.077  12.517 -0.0757 -0.1216 -0.1173
31749W        W47558   3.258   7.902  10.984  0.3745 -0.2106  0.2207
31750W        W47559  18.247   2.617  15.482  0.3050  0.0385 -0.1869
31751W        W47560  12.420   1.955  12.428  0.0239  0.0307  0.2856
31752W        W47561   0.659   4.019   1.954  0.0378  0.2989  0.3460
31753W        W47562   8.394  15.027  14.963 -0.2008  0.2503  0.1125
31754W        W47563   7.546   0.424   5.564 -0.0435  0.1171  0.2951
31755W        W47564  11.873   2.979   4.188  0.1846 -0.2173 -0.3878
31756W        W47565   2.589   5.542   5.006  0.2082 -0.0165 -0.0874
31757W        W47566   5.891  16.007  12.577 -0.1803 -0.1525  0.1581
31758W        W47567  12.879   7.907   2.872 -0.1711 -0.0313 -0.0215
31759W        W47568   9.296   7.700   4.950  0.3356  0.5030 -0.0165
31760W        W47569  11.617  17.530   3.565  0.2231  0.1170  0.0738
31761W        W47570   9.621  14.304   0.974  0.1129  0.0342 -0.2080
31762W        W47571  12.971  17.609  11.938  0.0414 -0.1452 -0.0888
31763W        W47572   0.380   3.257   5.636  0.0857  0.0355 -0.1103
31764W        W47573   8.725  17.535  11.262  0.1474 -0.2205  0.0225
31765W        W47574   5.524  17.723  13.151  0.0730 -0.1161 -0.1490
31766W        W47575   9.888   3.545  14.747 -0.0037  0.2183  0.2312
31767W        W47576  17.460   3.066   2.200 -0.0825 -0.0926  0.0712
31768W        W47577  10.661   2.862   4.105 -0.0013 -0.1847 -0.1778
31769W        W47578  17.772  10.936   2.576 -0.2144  0.1245  0.2661
31770W        W47579  16.698   1.029   4.965 -0.2192 -0.0009  0.1195
31771W        W47580  11.963   2.661  14.519  0.1398 -0.1119 -0.0320
31772W        W47581   0.890   3.701   1.133  0.0202  0.0131 -0.3357
31773W        W47582   8.141  11.284  15.489  0.1939 -0.1133  0.1506
31774W        W47583  15.738  16.499   0.259  0.0098 -0.2651 -0.1100
31775W        W47584  16.608   2.076   3.051 -0.4344 -0.1595 -0.1612
31776W        W47585  10.782  16.830  12.524  0.1255 -0.2095 -0.1519
31777W        W47586  13.758   3.829   1.089  0.0206 -0.1002 -0.0248
31778W        W47587  18.126  13.698  13.644 -0.3955 -0.0141  0.0242
31779W        W47588  12.408  11.374   0.262 -0.1111  0.1244 -0.3251
31780W        W47589   8.614  12.990   4.700 -0.0080  0.0008 -0.1058
31781W        W47590  16.333   0.984   0.361 -0.0496  0.0030  0.0560
31782W        W47591   9.623   6.464  13.578  0.0854  0.0965  0.2380
31783W        W47592   4.172   3.241   4.863 -0.3647  0.1306  0.2217
31784W        W47593  12.182  12.708   3.412  0.2710 -0.2209 -0.2067
31785W        W47594  11.344  11.136   0.550  0.3963  0.2163 -0.2438
31786W        W47595   3.987   7.752   3.716  0.0785  0.1795 -0.2262
31787W        W47596   9.730  11.785   0.905 -0.1299 -0.1094 -0.1296
31788W        W47597   8.457   5.231  12.107  0.0581 -0.2787 -0.2543
31789W        W47598  11.425   0.820  12.496 -0.2415 -0.0828 -0.0647
31790W        W47599   2.523  12.765   4.232  0.1503  0.2607 -0.1745
31791W        W47600  10.765  16.200   1.086 -0.2875  0.2632 -0.0565
31792W        W47601  13.484   3.149   4.573 -0.0362 -0.2804  0.2701
31793W        W47602   9.553   4.676   3.908 -0.2327 -0.1634 -0.2224
31794W        W47603   5.340   7.933   4.986 -0.2150  0.1382  0.0948
31795W        W47604  10.902  11.477  11.621 -0.0394 -0.1365  0.0911
31796W        W47605   8.377   8.439   1.636  0.1096 -0.2469  0.1008
31797W        W47606  12.466   0.694   3.434  0.2951 -0.1391  0.2884
31798W        W47607  14.320   3.583   5.267  0.0352  0.0449 -0.0549
31799W        W47608  18.120  13.434   2.141  0.0439 -0.1569 -0.1272
31800W        W47609  12.401   6.189  12.212  0.0582  0.0856  0.0443
31801W        W47610   5.875  10.810   2.300  0.0905  0.2550 -0.1466
31802W        W47611  13.828  15.310   2.987  0.0815  0.0906 -0.1667
31803W        W47612   9.067   1.603  13.880  0.3244 -0.0167 -0.1246
31804W        W47613   6.767  17.051   2.182 -0.0710  0.1808 -0.2071
31805W        W47614   3.253   1.223   3.391  0.1645  0.0225 -0.0007
31806W        W47615   0.099  11.003   0.258 -0.1333  0.0315  0.0948
31807W        W47616   3.001   3.294  10.270 -0.0253 -0.2394 -0.1007
31808W        W47617  11.600  15.176  14.405 -0.1987  0.2716 -0.2897
31809W        W47618   0.021  12.900   0.376  0.1960 -0.0603 -0.0628
31810W        W47619  15.602   6.534  13.272 -0.0380  0.2983  0.2665
31811W        W47620  14.426  11.191   1.318 -0.0264  0.0777 -0.1303
31812W        W47621   9.511   8.624  14.815  0.0632 -0.0534  0.1974
31813W        W47622  12.491   1.036  15.955 -0.4351 -0.0275 -0.3803
31814W        W47623  11.594  13.918   5.154  0.0032 -0.3145  0.0164
31815W        W47624  17.744   0.343  14.134  0.2726 -0.3119 -0.1807
31816W        W47625   3.414   2.001  12.210  0.0634 -0.0564 -0.2259
31817W        W47626   4.818  14.416  11.796 -0.1999 -0.0420  0.0838
31818W        W47627  10.957   1.492   1.404 -0.1200  0.0330  0.1405
31819W        W47628   8.738   2.030  11.423  0.1451  0.1459  0.0606
31820W        W47629  10.299  12.794  13.143  0.4561  0.3711  0.2676
31821W        W47630  15.171  15.057  11.617 -0.4436 -0.0234  0.1202
31822W        W47631  15.548   9.243   2.716 -0.0764 -0.1306  0.1396
31823W        W47632  14.477   7.648   5.338 -0.0649  0.1850 -0.0585
31824W        W47633  13.697   1.080  12.727 -0.0041  0.1430  0.1457
31825W        W47634  10.389   3.563   0.116 -0.2180  0.0611 -0.0398
31826W        W47635   9.430  15.942  11.035  0.0428  0.0567  0.1329
31827W        W47636  12.108  16.064   1.190 -0.2418  0.3206 -0.1928
31828W        W47637  16.968   8.720   1.439 -0.1010 -0.0463  0.1014
31829W        W47638   0.273  11.981  12.759 -0.0824  0.0486 -0.0810
31830W        W47639  18.215  15.256   5.335 -0.2105  0.1073 -0.1226
31831W        W47640  13.228  12.442   1.959  0.0217 -0.2629 -0.1055
31832W        W47641  10.126   1.419   1.506  0.0552  0.2117 -0.1694
31833W        W47642   1.362   6.054  13.258  0.0540 -0.0092 -0.2076
31834W        W47643   3.816  12.496   4.548 -0.0478 -0.2566 -0.1554
31835W        W47644  13.676  15.370  15.958 -0.2088 -0.0670 -0.1325
31836W        W47645   2.666   0.847   4.787 -0.0704 -0.0180 -0.2640
31837W        W47646  15.373   7.458   4.363  0.1740  0.0631  0.1024
31838W        W47647   2.088   4.478   4.454 -0.1195 -0.0101 -0.1891
31839W        W47648   5.473   7.553   5.476 -0.0422  0.0437  0.1132
31840W        W47649  13.445   9.730  12.406 -0.2674 -0.1631 -0.0755
31841W        W47650   2.592   4.703   0.481  0.0098 -0.1054  0.1957
31842W        W47651  14.047  12.675   5.424 -0.0937 -0.1406  0.0135
31843W        W47652  15.713  14.033  15.044 -0.1977 -0.1334  0.3690
31844W        W47653   1.525   1.998   1.281  0.0063  0.0393  0.1726
31845W        W47654   1.102  11.964   2.680 -0.2459  0.3121 -0.3499
31846W        W47655   9.429  13.582   1.620 -0.0519 -0.3040 -0.0321
31847W        W47656   6.336   6.935  15.990 -0.0754 -0.1681 -0.1713
31848W        W47657   5.528  10.535   2.928 -0.1916 -0.0073  0.0991
31849W        W47658   9.227  11.308   3.269 -0.2718 -0.1470 -0.0046
31850W        W47659  14.484  15.470  13.401 -0.0044  0.2171 -0.1912
31851W        W47660  10.192   7.600   1.635 -0.1062  0.2475 -0.1202
31852W        W47661  16.473  16.536  15.519  0.0256  0.1282  0.1568
31853W        W47662   6.766  13.898   3.877  0.2146  0.0836 -0.0938
31854W        W47663  14.615  10.747  10.974 -0.0470  0.1297 -0.1857
31855W        W47664  12.265  17.052  11.683 -0.3681  0.2274  0.0061
31856W        W47665  13.506   1.846   5.458  0.2231  0.0849 -0.2266
31857W        W47666  13.117  13.976   1.732 -0.3095  0.0663 -0.0673
31858W        W47667  14.136   0.706   5.235 -0.2450  0.2081 -0.0267
31859W        W47668  12.002  13.330  13.307 -0.0351 -0.2039  0.1760
31860W        W47669  14.277  15.526  11.001 -0.1566  0.1477 -0.0755
31861W        W47670   0.299   0.656  13.716  0.1138 -0.1856  0.2151
31862W        W47671  13.020  11.785   1.910 -0.1130  0.2009  0.2931
31863W        W47672   7.838  17.108  11.351 -0.0369 -0.2949 -0.2809
31864W        W47673   1.441  11.068  13.180 -0.0695 -0.1105  0.1139
31865W        W47674  14.301  11.282   0.825  0.1311 -0.0168 -0.0272
31866W        W47675   3.935   1.182   5.397 -0.0614 -0.0330 -0.1586
31867W        W47676   1.786   3.683   1.184  0.1479  0.0761  0.1810
31868W        W47677  11.191  13.295   5.667  0.0012 -0.1237  0.0596
31869W        W47678  16.726   7.580  14.766  0.2187  0.0450 -0.1556
31870W        W47679   6.111  14.783  13.047 -0.3683  0.1395  0.0511
31871W        W47680   5.155   4.682  10.425  0.0072 -0.1121  0.0039
31872W        W47681  16.320   1.653  16.028 -0.0893 -0.0359 -0.1380
31873W        W47682   7.424  14.328   4.610  0.0566  0.2013 -0.1695
31874W        W47683  12.703  16.784  14.424 -0.1183 -0.0485 -0.0217
31875W        W47684   1.296  12.008   5.525 -0.2097 -0.3144 -0.1218
31876W        W47685   8.460   2.818   3.656  0.1440  0.0829 -0.2063
31877W        W47686   9.604  12.613   4.706 -0.1839 -0.2214  0.2687
31878W        W47687   3.349  15.120  12.926  0.2922  0.1594 -0.0973
31879W        W47688   1.157   9.536  14.423 -0.2110 -0.1018 -0.1266
31880W        W47689   9.049  17.973   3.807  0.1538  0.1530  0.1673
31881W        W47690  16.886   1.427  11.269 -0.0015  0.1610  0.1821
31882W        W47691   7.013   1.681   2.388 -0.1609 -0.0355  0.1520
31883W        W47692   0.655   7.463  12.637  0.0145  0.0749  0.1237
31884W        W47693   2.746   5.672   4.245  0.3081 -0.3815 -0.1499
31885W        W47694  15.339  17.234  12.046  0.0373  0.0632 -0.5229
31886W        W47695   0.069   1.965   3.568 -0.2852 -0.2491 -0.0284
31887W        W47696   9.067  12.640   0.231  0.2697  0.0055  0.1039
31888W        W47697  11.317   6.915  13.106  0.2333 -0.0314  0.0869
31889W        W47698   5.759   8.399  13.117 -0.2675  0.0470  0.2282
31890W        W47699  11.346   9.947   1.210 -0.1153  0.2093 -0.0582
31891W        W47700   0.528   5.441  15.852 -0.1678  0.1324 -0.1182
31892W        W47701  15.272  10.645  14.577 -0.0046 -0.0719  0.0245
31893W        W47702  16.555  13.717  11.752  0.0838 -0.0655 -0.4726
31894W        W47703   4.378   8.104   9.975  0.1031  0.1763  0.0415
31895W        W47704   2.729   8.226   5.242 -0.0584  0.1476 -0.0705
31896W        W47705  13.526   8.780   4.332 -0.2302  0.0360 -0.1186
31897W        W47706   2.175   4.657   5.370 -0.0943 -0.1772 -0.0055
31898W        W47707  16.925   9.477  11.216  0.1078 -0.0858  0.0235
31899W        W47708  12.116  14.696  12.942  0.2875  0.1100  0.0687
31900W        W47709   4.539   6.773  10.365  0.1500  0.1924 -0.0608
31901W        W47710   2.843  10.059  15.050 -0.0657 -0.0518 -0.1934
31902W        W47711   9.958  11.086  15.996  0.0078  0.1144 -0.2501
31903W        W47712   1.803   0.934   1.355  0.2208 -0.0980  0.0553
31904W        W47713   1.323   8.499  11.453 -0.1429 -0.4019 -0.0368
31905W        W47714  11.589   8.253   1.850  0.1074  0.1463 -0.2483
31906W        W47715  16.561  17.358  14.993 -0.1384  0.0852 -0.2363
31907W        W47716  13.249  14.570   2.456  0.1464 -0.0049 -0.2022
31908W        W47717  12.679  17.764   1.698  0.0702  0.0381  0.0077
31909W        W47718  11.847   8.364  11.506 -0.3831 -0.3313  0.1311
31910W        W47719   6.460  16.944   5.529 -0.3198 -0.1276 -0.0268
31911W        W47720   3.911  17.732  13.842 -0.1958  0.2105 -0.2676
31912W        W47721  17.071   8.493  14.085  0.0421  0.0973 -0.1633
31913W        W47722   2.047  17.329   1.710 -0.0349 -0.2526  0.0071
31914W        W47723  14.243   8.987  14.527  0.1033  0.1806 -0.0547
31915W        W47724   9.153  10.578   1.291  0.6017 -0.2884 -0.1657
31916W        W47725  15.318  17.124   1.453 -0.0474 -0.1824  0.0628
31917W        W47726   6.368  17.708   3.610  0.0134  0.0180 -0.1776
31918W        W47727  13.899  17.251   3.204  0.2137 -0.0828 -0.0390
31919W        W47728   3.965   0.228   5.363 -0.1003  0.1509 -0.0936
31920W        W47729  12.905  16.641   5.369  0.0293  0.3349 -0.0718
31921W        W47730  15.331   0.555   3.740 -0.1436  0.2485 -0.0358
31922W        W47731  10.698  11.682   1.584 -0.0600  0.1495 -0.2190
31923W        W47732  10.712   2.670  14.245 -0.1988 -0.2080  0.0828
31924W        W47733  10.419   0.486   2.158 -0.1054  0.0005  0.0251
31925W        W47734  16.381   9.830  14.692 -0.1336  0.0224 -0.0837
31926W        W47735   6.931   8.540   0.984 -0.0140  0.3711  0.1026
31927W        W47736   7.277   3.705   0.904  0.2385 -0.0468  0.1963
31928W        W47737  14.491  12.797  14.935  0.0973  0.2195  0.1381
31929W        W47738  15.269  16.060  11.315 -0.1362 -0.2794  0.0957
31930W        W47739  17.263   5.855   2.072  0.0580  0.1535 -0.1318
31931W        W47740   1.121   6.069   2.447 -0.1488  0.4190 -0.0605
31932W        W47741  14.750  10.970   4.070  0.1052  0.0909  0.0270
31933W        W47742   1.671   8.810   4.910 -0.3260 -0.1086  0.1398
31934W        W47743  11.738   4.302  15.174  0.0391  0.0042  0.1212
31935W        W47744  16.469  11.011  15.241 -0.0933 -0.1202  0.1617
31936W        W47745  11.617   9.905  13.368  0.3109  0.2309 -0.0548
31937W        W47746   2.675   4.850  11.911 -0.2623 -0.0909  0.3407
31938W        W47747   6.916  16.517   4.400 -0.3740  0.0094  0.0126
31939W        W47748   3.962   2.250  14.761 -0.2816  0.1187  0.0967
31940W        W47749   3.038  15.313  12.651 -0.2779 -0.0681  0.1853
31941W        W47750   5.028   1.457  14.956  0.2467  0.2251 -0.1147
31942W        W47751  13.933   8.602   1.938 -0.0601 -0.2392  0.0344
31943W        W47752   3.211  17.790  10.848 -0.0110 -0.2625  0.0072
31944W        W47753   3.724   0.261  10.325  0.2183 -0.0795 -0.2222
31945W        W47754  16.403   1.036   5.890  0.1719  0.1489 -0.0473
31946W        W47755  11.660  15.591   3.030 -0.0123  0.3377 -0.3171
31947W        W47756  15.342  14.200  12.082  0.0484  0.3534 -0.2394
31948W        W47757  16.220  10.850   4.540  0.1910 -0.0150 -0.1078
31949W        W47758   7.131   9.466  13.341  0.0583 -0.2182 -0.0968
31950W        W47759   0.892  13.624  13.518  0.0350  0.0843  0.2597
31951W        W47760  11.648  13.574  13.048 -0.2081 -0.1796 -0.2109
31952W        W47761  12.374  16.740   5.342 -0.0996 -0.1279  0.1029
31953W        W47762   9.352   5.777   3.171  0.2699  0.1200 -0.2426
31954W        W47763   8.264  15.476  15.021  0.2756 -0.0275  0.1970
31955W        W47764   9.834   0.595  15.802 -0.1251  0.0117  0.0740
31956W        W47765   9.232  11.949   0.872 -0.2882  0.0198 -0.0919
31957W        W47766   3.317  16.787   3.132 -0.1375  0.2542 -0.2555
31958W        W47767   4.655  10.090   3.617 -0.0970  0.1992 -0.1046
31959W        W47768   7.891  13.956   4.813  0.1988  0.1317 -0.1379
31960W        W47769   6.203  17.833  13.498 -0.1109  0.1220 -0.0599
31961W        W47770  16.198  16.195  12.274 -0.0916 -0.0591  0.0372
31962W        W47771   3.434  16.593  14.385  0.1229 -0.1554 -0.1343
31963W        W47772   7.644   7.431  10.376  0.0672 -0.1498 -0.1648
31964W        W47773  15.792   7.317   1.388 -0.3952  0.1060 -0.0349
31965W        W47774   3.643   2.474   4.618 -0.2208 -0.1921  0.4117
31966W        W47775  13.454   3.861   0.472 -0.2963  0.0489  0.1136
31967W        W47776  12.275  17.407   1.524  0.2151 -0.1068  0.2319
31968W        W47777  15.782   0.504   1.140 -0.0427  0.0790 -0.1074
31969W        W47778   1.084   6.027   5.534 -0.0973 -0.0687 -0.2221
31970W        W47779  10.589  14.105  12.292 -0.0702 -0.0110 -0.1086
31971W        W47780   9.211  16.512   5.578 -0.0026 -0.0631  0.1669
31972W        W47781  10.321   1.360  10.409 -0.0170  0.0475  0.0504
31973W        W47782   3.491   2.508  14.518 -0.1957 -0.0095 -0.0595
31974W        W47783  17.632  16.160   2.936  0.2170  0.2065  0.1074
31975W        W47784   5.636  12.994  10.513 -0.1947  0.2203  0.1026
31976W        W47785  18.139  17.372   3.479  0.0406 -0.0911  0.0554
31977W        W47786   3.951   9.731  14.236  0.0087  0.2452 -0.1450
31978W        W47787   4.932   8.243  13.163 -0.0626 -0.0033  0.0488
31979W        W47788  11.265   3.736   0.393 -0.2271  0.1144  0.1282
31980W        W47789  14.570   9.054   2.818 -0.0776  0.0216 -0.0097
31981W        W47790  16.753   1.928  11.303 -0.0940 -0.0223 -0.0350
31982W        W47791  15.413   7.607  15.279  0.0960  0.1110 -0.1126
31983W        W47792   9.583   2.128  15.269  0.0378  0.1649  0.0996
31984W        W47793  16.475   5.712  13.927  0.1302  0.1113 -0.2158
31985W        W47794   2.115  13.945   3.141  0.0208  0.2053  0.0511
31986W        W47795  11.286  13.603  11.455  0.0033  0.0362  0.0980
31987W        W47796  17.939  10.169  14.412 -0.1999 -0.0221 -0.0984
31988W        W47797   2.527  15.868   0.504  0.1531 -0.1370 -0.5505
31989W        W47798  16.892  14.311   3.660  0.0774 -0.0824 -0.0161
31990W        W47799   3.851   6.735   3.007 -0.2293 -0.0956  0.1859
31991W        W47800  12.972   9.590  11.417  0.1719 -0.0308  0.1088
31992W        W47801   2.467   9.629  13.091  0.0077 -0.2541  0.0213
31993W        W47802  13.917  14.585  14.001 -0.0362  0.0451 -0.1379
31994W        W47803   6.778   2.562  10.957  0.4789 -0.1821  0.0361
31995W        W47804   9.114   9.324  11.298 -0.2749 -0.0134  0.0154
31996W        W47805   6.857   8.611   4.740  0.0136  0.0166  0.1596
31997W        W47806  14.072   0.489   3.452 -0.0847 -0.3245  0.0414
31998W        W47807   5.733   3.128   1.081 -0.1565  0.0880  0.1990
31999W        W47808  11.417  15.849   3.938  0.0888  0.1829 -0.1176
32000W        W47809   0.525  15.094  15.364 -0.3044 -0.1420 -0.2699
32001W        W47810   8.196  13.546   3.348  0.0396  0.5247  0.0610
32002W        W47811   7.001  12.326  12.933  0.1687  0.0146 -0.0734
32003W        W47812   4.243  12.224  14.324  0.2502 -0.0063  0.3352
32004W        W47813   7.442   6.378  14.534  0.0431  0.2287  0.1418
32005W        W47814  14.683  14.199  13.790 -0.0568 -0.1338 -0.0457
32006W        W47815   0.856   4.660   2.723 -0.0524 -0.0193  0.1505
32007W        W47816  17.179   8.745   2.395  0.1207  0.1213 -0.1029
32008W        W47817   2.392  17.383  11.331 -0.1063  0.2793  0.0961
32009W        W47818   0.783   3.730   4.930 -0.2238 -0.0857 -0.1312
32010W        W47819  13.922  13.606  13.038 -0.2438 -0.0020  0.1135
32011W        W47820  13.311  16.659   3.063 -0.3604  0.0104  0.1487
32012W        W47821  14.546  15.791  15.805  0.0560 -0.1545 -0.1352
32013W        W47822  15.573   7.221  12.870 -0.0601 -0.1071  0.0964
32014W        W47823  11.460   5.174  14.936 -0.1088  0.1428 -0.0451
32015W        W47824  14.608   6.505   3.502  0.0812 -0.3099  0.3297
32016W        W47825   8.247   9.325   3.772 -0.2525  0.0430  0.1203
32017W        W47826   1.513  15.663   1.551 -0.1022  0.1143  0.0365
32018W        W47827   2.842  16.805   5.420  0.0266  0.1743  0.0205
32019W        W47828   8.125   4.458  11.677  0.3380 -0.1839 -0.1574
32020W        W47829  12.433   5.087  12.242  0.0272  0.0458 -0.2025
32021W        W47830   6.619   5.955   1.456  0.0386  0.0598  0.1522
32022W        W47831   4.213  16.986   0.481 -0.1159 -0.1436 -0.1131
32023W        W47832   5.639   2.917   4.722 -0.0920 -0.0624 -0.3059
32024W        W47833   5.487  15.495   2.968 -0.0807  0.1445 -0.2913
32025W        W47834   0.488   6.220   0.340  0.0557  0.0482 -0.2177
32026W        W47835   7.204  17.761   5.674 -0.0943 -0.0873 -0.2168
32027W        W47836  17.802  17.778   1.103  0.0612 -0.2554 -0.2784
32028W        W47837  14.998   2.959   5.144 -0.1499  0.2806 -0.0507
32029W        W47838  16.927  10.834  12.956  0.0806 -0.0135 -0.0533
32030W        W47839  11.292  14.491   4.094 -0.0257 -0.0207  0.0300
32031W        W47840   0.959  12.797   2.950  0.0678  0.2469  0.0992
32032W        W47841  15.752   4.954   1.242 -0.0588 -0.1097  0.2353
32033W        W47842  15.190  12.290   4.412 -0.0818  0.1444 -0.2021
32034W        W47843  14.656   7.177  12.713 -0.3112  0.0451  0.0686
32035W        W47844  15.423  11.242   1.822 -0.2502 -0.2312 -0.1552
32036W        W47845   2.501   3.603  15.980 -0.3206  0.0069 -0.0933
32037W        W47846  13.309  17.405  16.066 -0.1460  0.0154 -0.0969
32038W        W47847  12.678   3.982  14.094 -0.3498  0.0128 -0.0704
32039W        W47848  11.169   2.478   2.479 -0.2040  0.2513 -0.1451
32040W        W47849   5.398   7.838   1.744 -0.0238  0.1337 -0.1985
32041W        W47850  13.271   1.712  14.665  0.0269  0.1644  0.3645
32042W        W47851   1.843   6.726   5.401  0.3136  0.0773  0.0453
32043W        W47852   0.386   3.569  12.878 -0.1254  0.1075  0.1551
32044W        W47853   4.279  12.714   3.229  0.0237  0.0929 -0.1907
32045W        W47854  14.844  13.485  15.979 -0.1131 -0.1148  0.1374
32046W        W47855   0.688  11.185  13.943 -0.1171 -0.1096 -0.0369
32047W        W47856  10.406  13.902  11.752 -0.1702 -0.3692  0.1449
32048W        W47857   5.303   5.637  10.534 -0.0175 -0.1702 -0.0425
32049W        W47858   5.100   8.053   0.754  0.1617  0.0777 -0.2264
32050W        W47859  17.525  17.271   3.574 -0.0248  0.1768  0.0269
32051W        W47860  13.133   2.869   3.654 -0.0891 -0.1306  0.0341
32052W        W47861  18.216   9.702  11.933 -0.0062  0.1554  0.0197
32053W        W47862   2.669   4.890  13.003  0.2380 -0.0556 -0.1503
32054W        W47863  10.798   6.901  13.324  0.0995 -0.4183  0.2105
32055W        W47864  14.111   3.265  14.799 -0.0550  0.0623  0.0402
32056W        W47865   0.042  15.194   4.386 -0.2859 -0.2981 -0.0946
32057W        W47866   6.384   5.001  12.534  0.0905 -0.1812 -0.1452
32058W        W47867   3.607  12.059   4.387 -0.4078 -0.1222  0.3608
32059W        W47868  17.701  13.939   3.349 -0.3229  0.2714 -0.1138
32060W        W47869   4.317  14.094   3.639  0.1211  0.3290  0.1752
32061W        W47870  10.523  17.241  12.355 -0.2644  0.1771  0.0158
32062W        W47871   8.790   5.361  13.368  0.0102 -0.0633  0.1267
32063W        W47872  11.660   2.419  11.991 -0.0927  0.4071 -0.0712
32064W        W47873   4.523   7.932   4.932  0.1698  0.0927 -0.0871
32065W        W47874   9.189   2.242   4.606 -0.0892 -0.1597 -0.0604
32066W        W47875  12.461   1.117  13.221 -0.0764 -0.1114 -0.2289
32067W        W47876   3.412  11.473   6.064 -0.0996  0.0625  0.2358
32068W        W47877  11.925   6.293   3.136 -0.0189  0.1029 -0.0883
32069W        W47878   4.656   1.732   4.606  0.1819 -0.0164  0.0854
32070W        W47879  15.682   4.743  12.214  0.0144 -0.1191 -0.2209
32071W        W47880  17.533  12.534   2.563  0.3279 -0.0258  0.1968
32072W        W47881   1.334   1.689   3.053 -0.1862 -0.1036 -0.1615
32073W        W47882  18.239   4.645  13.096 -0.0847  0.0095  0.0119
32074W        W47883  16.086   2.656  11.979  0.2944 -0.1430 -0.2967
32075W        W47884  14.495  12.184   3.881 -0.0832 -0.0053  0.0733
32076W        W47885   5.131  14.925  12.558  0.0554  0.1451 -0.1233
32077W        W47886  11.478  17.682   3.060 -0.1266  0.3341 -0.2525
32078W        W47887   7.788  14.101  11.961  0.2864 -0.1156  0.0365
32079W        W47888   5.756  16.252  11.363  0.1664 -0.1593 -0.0178
32080W        W47889   4.148   9.298  15.156  0.1300  0.0447  0.0088
32081W        W47890  16.488   3.918   1.755 -0.5881 -0.1590 -0.2352
32082W        W47891   1.895  12.801   2.503  0.2728 -0.1434 -0.1196
32083W        W47892   9.901   3.397   3.880  0.4960  0.3055 -0.0572
32084W        W47893  15.474   4.233  11.498 -0.0587 -0.0524 -0.0699
32085W        W47894   5.052  15.655  12.983  0.0159 -0.0798 -0.1826
32086W        W47895  11.540   6.083   3.965 -0.0041 -0.4309 -0.2568
32087W        W47896   7.434  13.156   0.654  0.1619  0.3100  0.2738
32088W        W47897   1.431  18.186   4.742  0.1008  0.1404  0.2163
32089W        W47898   8.932   3.263  13.854 -0.0451 -0.0159 -0.3065
32090W        W47899  16.294  15.016   4.589  0.2495  0.2303  0.0430
32091W        W47900   8.861  13.018  12.009 -0.1266 -0.1690 -0.4106
32092W        W47901  12.099   0.018   5.324 -0.1346  0.0464  0.1066
32093W        W47902  10.893  14.341  14.341 -0.0453  0.1684 -0.1136
32094W        W47903   6.574   3.007  15.408  0.0635  0.1065 -0.0184
32095W        W47904  13.008   3.383  15.758 -0.1810  0.0285  0.0633
32096W        W47905   3.862  15.540   1.458 -0.1005  0.1433 -0.1977
32097W        W47906   1.837  12.108   1.991  0.1080  0.1316 -0.0071
32098W        W47907   5.363   1.027   0.848 -0.1524  0.1524  0.4146
32099W        W47908  10.954   0.917   3.832  0.1807 -0.0487  0.1463
32100W        W47909  17.667   8.083  15.280 -0.2927 -0.0592  0.0451
32101W        W47910  11.865   6.210  14.971 -0.1236  0.0959 -0.2004
32102W        W47911   6.593  15.244  10.530  0.2596  0.2696 -0.0465
32103W        W47912  13.541  11.699  12.836  0.0161 -0.0169 -0.2407
32104W        W47913  12.277   3.273  13.223  0.2511  0.4391 -0.0818
32105W        W47914   1.582  13.121  10.015 -0.0368 -0.1771 -0.0965
32106W        W47915   3.595   9.500  13.537 -0.0257 -0.2837 -0.0420
32107W        W47916   8.497  10.831  11.606  0.1153 -0.2174 -0.0322
32108W        W47917   9.440  17.502  15.175  0.2554 -0.1310  0.2388
32109W        W47918  12.375   2.272   4.644  0.1737  0.1062  0.3882
32110W        W47919   5.146  11.621  14.938  0.0123 -0.0928 -0.1393
32111W        W47920   6.716  15.165   2.401 -0.0937 -0.0705  0.0358
32112W        W47921  10.970  14.807   1.923  0.0147  0.1443 -0.2166
32113W        W47922   2.404   4.976   0.880  0.2883 -0.3379  0.0899
32114W        W47923   8.840  17.051   2.907  0.2169  0.0761  0.0773
32115W        W47924   5.408   9.396   1.345 -0.0613 -0.1894 -0.1296
32116W        W47925  11.855  16.088  13.279  0.1168 -0.0970 -0.0291
32117W        W47926  14.519  14.698   2.763 -0.1603 -0.2330 -0.1669
32118W        W47927   4.522  16.387  12.856  0.0060  0.0523  0.1768
32119W        W47928  10.370  18.034   5.269 -0.2452 -0.2998 -0.0460
32120W        W47929   3.858   5.928  12.767 -0.0656  0.0113 -0.1466
32121W        W47930  14.380   2.958   3.235 -0.1567  0.1172 -0.2128
32122W        W47931   0.873  10.371   1.389  0.4455  0.1916 -0.0440
32123W        W47932  10.246  15.400  12.359 -0.1412  0.1109 -0.1019
32124W        W47933  13.893  10.836  15.171  0.1730 -0.0898  0.1273
32125W        W47934  10.497  17.894  12.430  0.2284  0.0115  0.3264
32126W        W47935   4.257   3.484  11.561  0.1197 -0.0990  0.0683
32127W        W47936   2.014   4.728  15.008 -0.0811 -0.2095 -0.1258
32128W        W47937   7.304   9.345  11.725 -0.3259 -0.3357 -0.4766
32129W        W47938  14.969  16.824   1.771  0.0364 -0.0185  0.2299
32130W        W47939   1.903  14.312   1.065 -0.0375 -0.1064 -0.2792
32131W        W47940  12.403  17.729  11.116 -0.1079 -0.0409 -0.4799
32132W        W47941   4.432   7.838  15.727  0.0165 -0.0823  0.4342
32133W        W47942   4.539   7.818   2.454 -0.0408  0.0406  0.0544
32134W        W47943   7.170  12.945   4.570 -0.1443  0.0537  0.3437
32135W        W47944   3.719   7.779  13.236 -0.1516 -0.0902 -0.2087
32136W        W47945   9.966   5.047  16.024  0.0252 -0.2021  0.1573
32137W        W47946  17.093  18.169   5.483 -0.2121 -0.0179  0.0909
32138W        W47947  18.253   6.950  12.255 -0.1202  0.0348 -0.1189
32139W        W47948   7.044   2.986   4.793 -0.1631 -0.0819 -0.0377
32140W        W47949  12.813   9.369  14.414 -0.2126 -0.1840  0.0263
32141W        W47950  17.055   7.142  13.430  0.3119  0.1877 -0.1846
32142W        W47951   9.938  17.047   4.048  0.2744 -0.1879  0.3158
32143W        W47952  14.758  17.603  11.750 -0.2263  0.2588  0.0122
32144W        W47953   0.568   3.856  14.715 -0.2373 -0.0869  0.2757
32145W        W47954  10.470   0.767   3.447  0.0394 -0.0846  0.0510
32146W        W47955   6.931  16.621   2.018 -0.1738  0.3853 -0.0402
32147W        W47956   0.533   2.589  12.013 -0.1897  0.1602 -0.1739
32148W        W47957  14.949  10.724   1.246 -0.2603  0.0007  0.1027
32149W        W47958  11.020  12.814   4.872  0.1210 -0.0205 -0.0058
32150W        W47959   5.979   3.333   3.825  0.0380  0.0321  0.0406
32151W        W47960  14.606   8.228  12.977 -0.0766  0.2107  0.1350
32152W        W47961   2.684  10.474   1.420  0.1971 -0.2763  0.2830
32153W        W47962  18.194  11.255   4.577  0.0359  0.0845 -0.2111
32154W        W47963   1.378   9.984  14.388  0.0564  0.0538  0.1746
32155W        W47964  14.757  13.264   0.687 -0.1376  0.0718  0.0351
32156W        W47965  12.893  15.292   0.043  0.2056  0.2325  0.4722
32157W        W47966  15.964   1.624   5.273 -0.0085  0.0799  0.1143
32158W        W47967   7.987   2.161  12.563  0.0509 -0.0354  0.1854
32159W        W47968  16.015  16.059   0.656 -0.0864 -0.2672 -0.1735
32160W        W47969  10.002   1.299   2.698 -0.3613  0.0451  0.0548
32161W        W47970   9.877   6.950   2.311  0.0175  0.0021  0.1417
32162W        W47971  16.321   9.929   4.152 -0.2458 -0.1480 -0.0773
32163W        W47972   0.527   0.108   4.326  0.1012  0.2023 -0.0127
32164W        W47973   2.560   3.778   5.075 -0.3023  0.1607 -0.0522
32165W        W47974   2.592  10.485  14.559 -0.1623 -0.2596  0.0642
32166W        W47975   0.850   4.022  11.404 -0.0188  0.1295 -0.1943
32167W        W47976   4.458  17.254   2.370 -0.1264  0.3272 -0.1764
32168W        W47977   3.727   6.301  10.408  0.1614 -0.0777  0.1034
32169W        W47978  10.513   4.282  14.944 -0.0467 -0.0227 -0.1528
32170W        W47979  12.066   1.967  13.948  0.2789 -0.2501  0.2154
32171W        W47980  13.002  14.000  10.850  0.0283  0.2483 -0.1614
32172W        W47981   9.956  13.594   0.402  0.0577  0.1553  0.0643
32173W        W47982   1.967  10.104  11.255  0.1545 -0.0631 -0.2752
32174W        W47983   1.883  12.770  15.713  0.0114 -0.2465 -0.0212
32175W        W47984   5.677  12.098   4.685  0.2878 -0.1492 -0.2548
32176W        W47985  12.120   2.408   2.662 -0.3852  0.1420 -0.0031
32177W        W47986  13.912   7.085  11.704  0.1819 -0.0670 -0.0972
32178W        W47987   8.555  16.694   1.610  0.2654  0.3263  0.1356
32179W        W47988   5.069   3.838  11.818 -0.0915  0.0232  0.0379
32180W        W47989  15.118   7.883   5.275 -0.1785  0.1972  0.3077
32181W        W47990   8.590  13.910  12.129  0.0292  0.0668 -0.0562
32182W        W47991   9.725   0.679  15.147 -0.2099 -0.1118 -0.0384
32183W        W47992   2.621  14.167   5.110  0.0370  0.1346 -0.1133
32184W        W47993   7.429   5.818  13.751 -0.0417  0.0803 -0.0504
32185W        W47994   5.627  11.130  13.804 -0.0676 -0.0137  0.2767
32186W        W47995   8.394  15.059   0.485  0.0224 -0.0121 -0.1458
32187W        W47996   5.423   4.302  11.144  0.0787  0.1741  0.2906
32188W        W47997   4.787   9.021   5.052 -0.3624 -0.0694  0.1687
32189W        W47998   1.288   4.435   2.874 -0.1063  0.1797 -0.0770
32190W        W47999  15.689  13.370  13.986 -0.1523 -0.2447 -0.1301
32191W        W48000  12.687   8.334   3.191  0.0727 -0.0649 -0.0584
32192W        W48001  11.219  10.848  13.075  0.2972 -0.0562  0.2966
32193W        W48002  14.413   5.007  15.635  0.2034 -0.0703  0.2013
32194W        W48003   5.682  10.177   3.283  0.1093  0.0770 -0.0019
32195W        W48004  10.710  13.584   4.040  0.2468 -0.2284 -0.1358
32196W        W48005   0.144  14.146   0.101  0.0658 -0.2793  0.2338
32197W        W48006   0.448  18.134   1.421  0.0797  0.4729 -0.0893
32198W        W48007   6.430  13.965  11.618 -0.1064  0.1653  0.0772
32199W        W48008  13.637   3.041   5.704 -0.1501 -0.1869 -0.2248
32200W        W48009  15.942  10.896   2.989 -0.0150 -0.2885  0.1149
32201W        W48010  16.163   9.648  15.200 -0.1632  0.0812 -0.1264
32202W        W48011   3.452  12.561  11.232  0.0066 -0.0396  0.1016
32203W        W48012  12.223   0.199   3.751 -0.2426  0.0502  0.0879
32204W        W48013  13.375   4.974  13.699  0.0582  0.0324 -0.1052
32205W        W48014   7.474  14.534   3.796  0.1923 -0.0981  0.0706
32206W        W48015   2.904  15.799  12.244  0.0176 -0.0211  0.1164
32207W        W48016  12.224   0.390   0.523 -0.0378  0.0572 -0.1648
32208W        W48017   9.435  10.583  12.416 -0.2195  0.0648 -0.0105
32209W        W48018   0.605  15.854   2.702  0.2196  0.3275  0.0436
32210W        W48019   1.530   1.302   5.046 -0.1440 -0.0889  0.0661
32211W        W48020  17.678  12.706   0.015  0.4167 -0.0139  0.2073
32212W        W48021  14.789  16.318  11.207  0.0503  0.3332 -0.1135
32213W        W48022   4.714  11.467   4.044  0.1248 -0.1120  0.2259
32214W        W48023  10.161   6.625  11.362  0.0071  0.0073 -0.1401
32215W        W48024   3.949  12.538  11.193 -0.0470 -0.0451  0.0455
32216W        W48025   1.098   7.769  13.331  0.1602  0.0254 -0.0490
32217W        W48026   5.625   2.592   3.489  0.2885  0.0385  0.0116
32218W        W48027   5.927   6.698  11.773 -0.1839  0.1697 -0.0602
32219W        W48028   5.382  11.714  11.644 -0.0394 -0.2337  0.1582
32220W        W48029  16.415   2.390   3.431  0.0044 -0.1298 -0.0600
32221W        W48030  15.471   4.044   4.053  0.1953  0.0879  0.1210
32222W        W48031   0.423   3.547  15.875 -0.1491 -0.0928 -0.2642
32223W        W48032  11.650   8.795   2.257 -0.1519  0.1489 -0.0467
32224W        W48033  14.862  11.569  11.921  0.0104  0.2268  0.1943
32225W        W48034  13.326   4.342  13.085 -0.1222 -0.3408  0.0041
32226W        W48035   5.591   6.909  13.478  0.0961  0.1991 -0.2544
32227W        W48036  16.891   1.180  13.643 -0.3654 -0.1211  0.1663
32228W        W48037  17.784   8.367  14.101  0.1452  0.0429 -0.1463
32229W        W48038  10.318   7.633   0.165  0.0431 -0.1261 -0.0968
32230W        W48039   8.684  18.218   3.311 -0.1094  0.1575 -0.0603
32231W        W48040   6.348   3.091  13.801 -0.0044  0.0189  0.2688
32232W        W48041   4.796   7.296   1.503  0.0712  0.4328 -0.0863
32233W        W48042  11.168   5.099   1.042  0.0859  0.4578  0.0614
32234W        W48043  13.831   2.198  12.132  0.0865 -0.0625 -0.1314
32235W        W48044   7.208  10.461  14.730 -0.0238  0.0099  0.3152
32236W        W48045  17.994  13.012  10.640  0.1146  0.3252  0.0231
32237W        W48046  11.904   2.362  13.608 -0.1399 -0.2565 -0.0708
32238W        W48047   0.212   9.655  10.686 -0.0579 -0.0525  0.0894
32239W        W48048   9.323   4.481   4.726 -0.0000 -0.0762 -0.1840
32240W        W48049  10.551  17.577   5.362 -0.0402  0.1718  0.4341
32241W        W48050   4.139  13.526  11.682  0.1154 -0.1128  0.0207
32242W        W48051   0.023   0.932   1.442 -0.0992 -0.2543 -0.0336
32243W        W48052  17.165  13.354  14.980  0.0429 -0.1270 -0.1221
32244W        W48053   1.651   4.334  12.146 -0.1405 -0.3210  0.1371
32245W        W48054   3.812  14.696   3.053 -0.2335  0.4221  0.2879
32246W        W48055  12.251   7.365  10.733  0.1057 -0.1024 -0.0351
32247W        W48056   2.145  18.240  13.425  0.1866  0.3736 -0.3423
32248W        W48057   9.325   0.626  13.677  0.3831 -0.0585  0.0802
32249W        W48058   1.019   9.788  13.314 -0.1259  0.1671 -0.2331
32250W        W48059  13.685   6.689   2.357  0.0911 -0.0623 -0.4436
32251W        W48060  16.471  14.147  14.165 -0.3032  0.0186 -0.3857
32252W        W48061   7.892   0.623  13.900  0.1965  0.2485  0.0917
32253W        W48062   7.133  18.212  16.021  0.0245  0.1998  0.3647
32254W        W48063   6.804   3.492  11.319  0.1632  0.0899  0.2769
32255W        W48064   6.074   5.241   4.187  0.2529 -0.3364  0.0356
32256W        W48065  11.683  15.236  11.352  0.2045  0.0601  0.1171
32257W        W48066   6.786   0.212   3.667  0.3783 -0.1287 -0.0143
32258W        W48067  12.603   2.491  12.061 -0.2407 -0.0640  0.1659
32259W        W48068  13.590   0.720   1.060 -0.0089 -0.3415  0.0125
32260W        W48069  14.217   5.500  12.497 -0.0819 -0.2339 -0.3597
32261W        W48070   9.757   1.247   3.833  0.1186 -0.0990  0.0220
32262W        W48071   6.802  15.500  12.520 -0.1348  0.0327  0.1420
32263W        W48072   4.389  16.414   2.689  0.3893 -0.1978  0.0275
32264W        W48073   4.571  17.796   5.243 -0.0266  0.0050  0.0482
32265W        W48074   0.113   3.334  10.916  0.0157 -0.0323 -0.1113
32266W        W48075   3.897   3.082   0.837 -0.3811  0.1443 -0.1512
32267W        W48076  14.049   0.395   4.170 -0.2858  0.0986 -0.1826
32268W        W48077  15.182   1.495   5.289  0.2055 -0.0223  0.1439
32269W        W48078  16.635  13.174  11.105  0.3269 -0.0531  0.1283
32270W        W48079   4.915  11.157   0.942 -0.0754 -0.2760 -0.0393
32271W        W48080  16.966  12.197   4.537 -0.2393 -0.0995  0.3448
32272W        W48081   0.912  18.190   2.293  0.0272  0.0172  0.2581
32273W        W48082  17.238  11.791  14.742  0.2866 -0.1138 -0.2673
32274W        W48083  13.484  15.354  14.517  0.2519 -0.2577  0.0817
32275W        W48084   6.913  18.266   1.987 -0.0271  0.1149  0.1369
32276W        W48085   3.015   8.247  15.371 -0.1218 -0.2454 -0.0037
32277W        W48086   6.854  11.801  14.701  0.0909 -0.1071 -0.1403
32278W        W48087  12.326  11.710   3.735  0.2132  0.1246  0.1419
32279W        W48088   6.956   9.353  11.374  0.2748 -0.1646 -0.0447
32280W        W48089  10.025  11.860   4.830  0.0780 -0.0146  0.1058
32281W        W48090   6.127  11.206  12.996 -0.0096 -0.2218 -0.0022
32282W        W48091  12.456   4.026  12.817  0.0224  0.5964  0.2021
32283W        W48092  11.110   8.249  10.452  0.0943 -0.0405  0.0662
32284W        W48093  16.362  12.230   5.776 -0.0376  0.0533  0.1035
32285W        W48094   9.326   4.797   0.747 -0.0351  0.1521  0.2049
32286W        W48095  10.234   4.393  12.576  0.1061  0.0149 -0.2579
32287W        W48096   5.338  15.282  11.591 -0.0680 -0.0935 -0.2993
32288W        W48097   6.073   5.710   3.985  0.2709 -0.1089 -0.0258
32289W        W48098   4.862  11.723   0.628 -0.0589 -0.0450  0.2070
32290W        W48099   6.655  17.438   5.657 -0.3186  0.0314  0.0358
32291W        W48100   7.323   8.706   0.652  0.0240 -0.0608 -0.1410
32292W        W48101   0.298   0.761  14.172  0.1068 -0.0498  0.0371
32293W        W48102   2.995   6.721   2.673 -0.0204  0.3061  0.1659
32294W        W48103  17.388   8.460   4.067  0.0606  0.2698  0.2010
32295W        W48104   5.000   2.522  14.838  0.2087  0.1536  0.0321
32296W        W48105   5.457  10.515   0.532  0.1377 -0.2411  0.1370
32297W        W48106   1.376  16.168   4.709  0.1180  0.0434 -0.0303
32298W        W48107  15.588  14.958  12.276 -0.1392  0.1527 -0.1340
32299W        W48108   0.105  13.034  12.809  0.0483  0.3422 -0.0991
32300W        W48109  12.722   3.029   2.334  0.0954 -0.0425 -0.1317
32301W        W48110   1.013  16.527   2.880 -0.1417 -0.0777 -0.2038
32302W        W48111  15.135   5.803  15.967 -0.0956  0.0320 -0.0258
32303W        W48112  15.533   6.666  12.811 -0.1403 -0.1267  0.1448
32304W        W48113  16.618  15.283   4.848 -0.1210 -0.3573  0.0424
32305W        W48114   9.139   7.495   4.065 -0.2579  0.0920 -0.2085
32306W        W48115   7.052   0.440   1.771  0.1361  0.1474  0.2125
32307W        W48116   7.335  17.192  16.050 -0.0892  0.0996 -0.1153
32308W        W48117   4.731   6.333   2.585  0.0177 -0.0845  0.1421
32309W        W48118  17.576  16.809   1.189 -0.1991  0.0835  0.2637
32310W        W48119   2.063   2.011   3.518  0.0480  0.2279  0.5038
32311W        W48120  13.135   1.624  13.132  0.2846 -0.0563  0.0087
32312W        W48121   6.083   2.324  13.595 -0.2581  0.0934  0.0534
32313W        W48122  13.025  12.704   1.480 -0.1115  0.1714 -0.0850
32314W        W48123  13.811  10.866  10.414  0.1172  0.2367  0.1447
32315W        W48124   0.751   8.126   3.622  0.2937  0.0998  0.1224
32316W        W48125  16.173  14.253  11.544 -0.2248  0.3651  0.0269
32317W        W48126  18.156  16.852   3.788  0.0557  0.0213 -0.0299
32318W        W48127   3.622   7.032   2.072  0.0493  0.0733  0.0419
32319W        W48128   2.799  16.372   5.140 -0.2797 -0.0153  0.1639
32320W        W48129  13.985  13.187   0.065 -0.0136  0.0129  0.0419
32321W        W48130  16.918  11.995  15.082  0.3410 -0.2867 -0.1349
32322W        W48131   9.812   3.560   2.301 -0.0194  0.0992 -0.2521
32323W        W48132  13.360   2.059  15.199  0.2972  0.0342  0.0724
32324W        W48133   5.372   7.023   5.565 -0.3494  0.1218 -0.0348
32325W        W48134   9.067   6.400   4.319 -0.0457  0.0041 -0.4007
32326W        W48135   2.951   6.284  15.844 -0.1565 -0.2591 -0.0970
32327W        W48136  14.570  14.197   1.514  0.1137 -0.0004  0.2382
32328W        W48137   6.405  14.424  11.131 -0.1233 -0.2888  0.1427
32329W        W48138   0.021   5.193  11.444  0.0184 -0.1458 -0.3043
32330W        W48139  10.853  18.028   5.198 -0.3203 -0.1602 -0.0716
32331W        W48140   2.840   4.204   4.886 -0.2607 -0.2271  0.0408
32332W        W48141   9.193  15.200  13.973 -0.2992  0.0744 -0.3850
32333W        W48142   2.337   2.938   1.488  0.2713  0.0582  0.1264
32334W        W48143  12.128  12.927   4.179 -0.0844  0.0431  0.2030
32335W        W48144   1.467   9.274   4.757 -0.0102 -0.1449  0.0520
32336W        W48145   4.367   1.912   2.641 -0.2153  0.0621  0.2768
32337W        W48146  13.312   6.783   1.347  0.0036  0.0562 -0.0496
32338W        W48147   2.152   0.723  11.664  0.1251  0.2134  0.1486
32339W        W48148   8.044  16.737  14.381  0.2206  0.2205  0.0709
32340W        W48149  15.219  10.522  15.101  0.3905  0.4718  0.1573
32341W        W48150   5.141   4.030  14.957  0.2091 -0.0191 -0.0720
32342W        W48151  14.602   2.775  15.343  0.0631  0.0877 -0.3201
32343W        W48152  18.253  17.546   5.251 -0.1698  0.2694 -0.3217
32344W        W48153   2.783  10.727   0.606 -0.0225  0.1650 -0.1651
32345W        W48154  13.894   0.396   2.388 -0.0834  0.0389  0.1741
32346W        W48155  11.003   2.359   0.309  0.2541 -0.0566 -0.1684
32347W        W48156   8.635  16.148  14.911  0.2741 -0.0761  0.0887
32348W        W48157   9.770  12.721  15.155 -0.2336  0.2030  0.1682
32349W        W48158  13.059   8.355  13.226 -0.1295 -0.0555 -0.3346
32350W        W48159  13.000   0.802   5.749  0.4665  0.1764  0.3323
32351W        W48160   2.062  13.609  15.589  0.0629 -0.0500  0.0196
32352W        W48161   4.855   7.747  10.482  0.1674 -0.1992 -0.0810
32353W        W48162  10.055  13.167  10.007  0.1107 -0.2070  0.1153
32354W        W48163  12.546  14.158  11.027 -0.3035 -0.3110 -0.0901
32355W        W48164   0.917  10.091   4.673  0.2822 -0.2321  0.0149
32356W        W48165  18.028  11.744   4.404 -0.0736 -0.1339 -0.2089
32357W        W48166   3.722   8.566  12.511 -0.1948  0.2740  0.0841
32358W        W48167  12.722  18.120  11.169 -0.0101  0.0609 -0.1995
32359W        W48168   1.796   1.400   5.605  0.2326 -0.0914 -0.0919
32360W        W48169  17.078   2.147   2.551  0.3081  0.3957 -0.2644
32361W        W48170  16.960   0.351   2.388  0.1039  0.0079 -0.0112
32362W        W48171  12.133   8.860   4.731  0.3602 -0.1435  0.0774
32363W        W48172   7.759  13.432  10.850 -0.2196 -0.0875 -0.1276
32364W        W48173   2.702   6.867  11.171  0.1141  0.1141  0.0435
32365W        W48174  11.354   2.158  13.133  0.1997  0.0230  0.2549
32366W        W48175   0.809   7.648  14.245  0.3490 -0.0208 -0.3278
32367W        W48176   0.176   0.722   0.257 -0.1267 -0.1562  0.1106
32368W        W48177   3.051  11.405  14.505  0.0346  0.2259  0.0110
32369W        W48178   2.590  12.049  11.324  0.2645 -0.1121 -0.3806
32370W        W48179   2.806   8.046  14.487  0.0130  0.0859 -0.1052
32371W        W48180   5.833  13.647   1.588 -0.0624 -0.1781  0.1807
32372W        W48181  15.397   7.362  10.270  0.1036  0.0202 -0.3652
32373W        W48182   3.117   2.654   2.946  0.1054  0.1247 -0.2222
32374W        W48183   5.105   8.597   0.707  0.3011 -0.5632 -0.0185
32375W        W48184   1.225  17.582   0.817  0.1470  0.1068 -0.1978
32376W        W48185   4.980  14.608   1.040  0.0908 -0.1884  0.2003
32377W        W48186  17.365  12.922  12.898  0.0493 -0.2671 -0.0710
32378W        W48187  10.482   6.005  12.983 -0.0870 -0.0111 -0.0014
32379W        W48188  13.611   9.844   2.922 -0.0115  0.2183  0.0116
32380W        W48189  16.218  13.696  12.577 -0.3161  0.2769  0.0027
32381W        W48190  18.068  13.950   4.999 -0.5574 -0.0527 -0.3317
32382W        W48191   5.657   4.737   4.333 -0.0435 -0.0430 -0.0366
32383W        W48192  10.050  14.529   5.593 -0.3518  0.2288 -0.1579
32384W        W48193   7.017   5.952   1.081 -0.0465  0.3890 -0.1497
32385W        W48194   1.608   3.853  13.769  0.4176  0.0587  0.2578
32386W        W48195   6.708  10.573   1.082 -0.1184 -0.2087  0.2028
32387W        W48196   6.416   6.071  13.552  0.1085 -0.2406 -0.0695
32388W        W48197  11.302  10.680  13.772  0.3462  0.2500  0.3480
32389W        W48198  11.168  15.805   2.273 -0.0173 -0.0370 -0.1903
32390W        W48199  12.516   5.939  15.475  0.0602  0.1657  0.0214
32391W        W48200   5.758   8.147   0.178  0.2537 -0.2152 -0.1759
32392W        W48201  17.882  11.586  12.561 -0.0192 -0.0156  0.0603
32393W        W48202   8.917   3.350   1.098  0.0157  0.1899  0.1855
32394W        W48203  18.036  13.708  11.296  0.1399 -0.0371  0.2092
32395W        W48204  13.753   5.266  12.506 -0.2241  0.0235  0.2558
32396W        W48205  12.294  15.529  14.986 -0.0184 -0.3910 -0.0085
32397W        W48206  16.944  13.915   1.765  0.0600 -0.3005 -0.4223
32398W        W48207   8.271  10.721   2.048 -0.0234 -0.0883  0.2448
32399W        W48208  15.105   4.293  14.833  0.0853  0.2067 -0.2155
32400W        W48209  16.994   1.061  12.593 -0.2998 -0.1108  0.1525
32401W        W48210  14.525  18.208  13.742 -0.2146  0.2200  0.0209
32402W        W48211  17.167  16.371   1.127  0.4068 -0.0924  0.3484
32403W        W48212   3.510  16.691  11.449  0.0526  0.0952 -0.1084
32404W        W48213  11.705   2.857  13.476 -0.0414 -0.0169 -0.1231
32405W        W48214  10.443   2.115   0.170 -0.0968 -0.3742 -0.0910
32406W        W48215  16.019  14.137   1.315  0.1447 -0.2732  0.2525
32407W        W48216   2.081  13.297  10.743 -0.3908  0.1509 -0.0003
32408W        W48217   1.437  11.312   0.610  0.1314  0.0345  0.3224
32409W        W48218  10.823   4.363   5.306 -0.2336  0.2162  0.0414
32410W        W48219   4.740   6.941  12.923 -0.0551  0.0514  0.2492
32411W        W48220   9.396  17.128  13.020  0.0058  0.0815  0.1509
32412W        W48221  12.184   9.617   1.722 -0.1315  0.2907  0.4775
32413W        W48222   9.355   6.570  12.857  0.0449 -0.2722 -0.0380
32414W        W48223  10.423  18.260  15.891  0.1135  0.0075 -0.0702
32415W        W48224   4.661  13.534  11.748 -0.3815  0.0555 -0.0432
32416W        W48225  14.023   9.572   1.653  0.0816  0.0385 -0.0018
32417W        W48226   9.058  13.288   4.626  0.0715 -0.1897 -0.1723
32418W        W48227  17.016  16.862   4.829  0.2887  0.0431  0.0011
32419W        W48228  14.914  11.815  12.719  0.0604  0.1392  0.1136
32420W        W48229  13.608  11.242   4.775  0.0330 -0.2460 -0.0123
32421W        W48230   0.629  18.024   4.996 -0.2475 -0.0795  0.3151
32422W        W48231   8.781   9.562  11.636  0.0482 -0.1243  0.0156
32423W        W48232  14.081   4.784   4.142 -0.2741  0.0280  0.0158
32424W        W48233  16.825   7.663   2.077 -0.0628 -0.0347 -0.3566
32425W        W48234   9.004   5.677  13.698 -0.3836  0.0254  0.0871
32426W        W48235   6.188   3.353   0.268  0.1120 -0.2801  0.1662
32427W        W48236  14.333   3.850  15.216 -0.0977 -0.0829 -0.3613
32428W        W48237   7.433  12.364  13.701 -0.2304  0.1226 -0.1574
32429W        W48238   1.071  15.462   4.167  0.1426  0.1064 -0.2168
32430W        W48239   8.659   0.539  14.398 -0.0019  0.0890  0.1454
32431W        W48240  16.816  17.114   1.744  0.1358  0.1973  0.0755
32432W        W48241  10.043   2.420   1.828  0.0142 -0.2258 -0.1567
32433W        W48242   4.478  12.942  14.436 -0.0546 -0.1552  0.0592
32434W        W48243   0.628  14.846   2.346  0.1064 -0.0077 -0.0767
32435W        W48244   6.947  10.438  10.807 -0.1788  0.0720 -0.0427
32436W        W48245   6.010   6.120   0.996 -0.0543 -0.0120 -0.0066
32437W        W48246   9.776   8.040   1.027 -0.0634 -0.0061  0.1672
32438W        W48247   3.615   2.963  12.539  0.0847 -0.2874  0.0673
32439W        W48248   3.018  15.018   1.369  0.1448  0.1186  0.0885
32440W        W48249  13.662   3.969   1.877 -0.1457 -0.0890  0.0405
32441W        W48250  18.216   0.382   0.001  0.0675 -0.0064  0.1275
32442W        W48251  15.231  10.258  12.274  0.0579  0.1768 -0.1606
32443W        W48252  14.163   9.305   0.545 -0.1237  0.0815  0.0056
32444W        W48253   5.990   0.351   2.330  0.1923  0.1931 -0.2082
32445W        W48254   5.220   0.401  13.012 -0.1062  0.0481  0.1426
32446W        W48255   8.922  17.394  16.067 -0.0368  0.0243  0.1683
32447W        W48256   9.048   3.367   1.741 -0.0052  0.1566 -0.1592
32448W        W48257   2.238   1.925  11.064  0.1125  0.0942  0.3822
32449W        W48258  12.635  12.541   3.435  0.0149  0.0228 -0.1833
32450W        W48259  14.100   5.700  15.275  0.1958 -0.0659 -0.0521
32451W        W48260   5.919  17.726   3.545 -0.2002 -0.1905 -0.1340
32452W        W48261   6.029  11.600   4.668 -0.0213 -0.3320 -0.2288
32453W        W48262  14.343   5.965  14.837 -0.2933 -0.0261 -0.0420
32454W        W48263   1.636   6.088  11.730 -0.0365  0.0407  0.4985
32455W        W48264   9.243  17.591   2.133  0.0806 -0.0527  0.1279
32456W        W48265   5.760   0.870  12.373 -0.2578  0.2345 -0.0886
32457W        W48266   7.767  11.060   4.192  0.5352 -0.1778 -0.0117
32458W        W48267  13.122   8.666  14.043  0.0162  0.0438  0.0021
32459W        W48268   1.005   0.441  13.409  0.1272  0.2610 -0.0454
32460W        W48269  13.831   2.444  11.593 -0.0548 -0.0836  0.0415
32461W        W48270  15.956   6.138  13.248  0.0003 -0.0283  0.1407
32462W        W48271  16.483   2.385   0.034 -0.0428 -0.1298  0.6435
32463W        W48272   5.346  11.310   1.474 -0.3018  0.1887 -0.1378
32464W        W48273   3.949   6.744  14.743 -0.1174  0.1776  0.3234
32465W        W48274   3.254  18.253  14.464  0.0512 -0.0993 -0.2340
32466W        W48275  10.965   4.965  15.032  0.3510 -0.1466  0.1360
32467W        W48276   3.317   3.028   2.153  0.0177  0.5040 -0.1366
32468W        W48277   5.113   6.229   5.062 -0.0595  0.1366 -0.0105
32469W        W48278  18.009   8.311   5.408  0.0312  0.1735 -0.0247
32470W        W48279   1.811  11.938  13.573 -0.1410 -0.0966 -0.2006
32471W        W48280  17.465   1.279   0.898  0.0490  0.3752  0.2868
32472W        W48281  16.876  16.747  11.872 -0.1189  0.0622  0.1964
32473W        W48282   5.690   8.226   5.211  0.0227 -0.3146  0.0621
32474W        W48283   8.652  11.684   0.032  0.1697  0.2272  0.0213
32475W        W48284   1.575  16.929  13.596 -0.1605 -0.0847 -0.3762
32476W        W48285  16.644  10.113   0.711  0.3352 -0.0464  0.0178
32477W        W48286  15.732  16.544   3.519  0.0773  0.0659 -0.1927
32478W        W48287  16.394   9.402  13.937  0.1368  0.2915 -0.1876
32479W        W48288  10.744  17.473   3.107 -0.1088 -0.0587  0.0007
32480W        W48289   2.977  11.408  11.020  0.0848  0.1872 -0.0496
32481W        W48290   7.667   7.126  12.195  0.1314  0.1182 -0.1108
32482W        W48291   1.809   3.353  11.912 -0.2779 -0.0741  0.3507
32483W        W48292  10.043   9.253   2.298  0.0274  0.3584  0.2092
32484W        W48293   6.881  14.199   3.276  0.0815 -0.1122  0.1233
32485W        W48294   0.189  16.715   0.075  0.2836 -0.0434 -0.2907
32486W        W48295   1.549   7.823  15.796  0.0876 -0.0671  0.1291
32487W        W48296   3.025  14.578   2.142  0.1288  0.0381  0.0884
32488W        W48297  15.570  13.484   4.580  0.1254 -0.1562 -0.2267
32489W        W48298   3.803   6.255   2.680  0.1948  0.3054 -0.0367
32490W        W48299  11.043  12.391   0.526 -0.1802  0.0625 -0.0196
32491W        W48300   3.031   1.083   5.074 -0.1179 -0.0743 -0.0744
32492W        W48301  13.560   5.880   0.883  0.0353 -0.0379  0.0462
32493W        W48302   7.471   0.968   4.037 -0.2730  0.2289  0.0976
32494W        W48303  14.082   8.245  11.013  0.0791 -0.0768  0.4375
32495W        W48304   5.010   8.574  15.306 -0.1210 -0.0068 -0.1206
32496W        W48305   2.839  17.428  11.114  0.0353 -0.1257  0.1435
32497W        W48306  11.466  12.240   4.115  0.0312 -0.0454  0.0357
32498W        W48307   0.183  12.077   2.463 -0.1192  0.0057 -0.0919
32499W        W48308   5.147  10.945  14.343 -0.3395  0.0463  0.0483
32500W        W48309   2.196   7.900  13.754  0.3400  0.2339 -0.0732
32501W        W48310   8.043   0.838   2.592  0.1316  0.0678  0.1258
32502W        W48311   8.082   6.486  15.100  0.1055 -0.0020 -0.0440
32503W        W48312   6.552  16.070   3.794 -0.0976 -0.2734  0.0281
32504W        W48313   3.772  17.448   4.287 -0.0372 -0.2045 -0.1175
32505W        W48314  10.910  10.781  12.626  0.1236  0.1107  0.1885
32506W        W48315   2.117   1.789  14.489  0.1426 -0.1357  0.0849
32507W        W48316   4.785  12.427  15.148  0.2712 -0.1686  0.1782
32508W        W48317  15.791  13.428   3.236  0.0167 -0.1076 -0.5097
32509W        W48318   8.617  16.643  11.533  0.0039 -0.3766 -0.0060
32510W        W48319   8.519   6.078  15.936 -0.1986  0.0786 -0.0575
32511W        W48320   5.241  14.882  13.517  0.1933 -0.0827 -0.0281
32512W        W48321   6.270   7.382  11.729  0.0877 -0.1140 -0.2690
32513W        W48322   9.388   7.936  12.421 -0.1053 -0.0283  0.2116
32514W        W48323   3.188   4.995   0.591  0.0937  0.2450  0.1890
32515W        W48324   4.934  12.412   4.860  0.0422  0.2217  0.0050
32516W        W48325   8.305  12.045   0.021  0.0145  0.0436  0.1412
32517W        W48326   9.420   1.944   2.686 -0.3260 -0.1780  0.1301
32518W        W48327   7.790  12.285   4.537  0.3086 -0.0369 -0.0156
32519W        W48328  16.281   0.616  15.712 -0.0959 -0.1119 -0.3441
32520W        W48329  15.580   2.242   4.226 -0.0648 -0.1412 -0.0203
32521W        W48330  14.188  16.709   5.606 -0.0110  0.3086 -0.1224
32522W        W48331  17.380   9.705   1.447 -0.0722 -0.0043  0.1953
32523W        W48332   6.427  18.154   3.904 -0.0400 -0.2213 -0.2639
32524W        W48333  11.355   1.356  12.125 -0.0077 -0.3975 -0.3285
32525W        W48334  13.253  13.991  15.050  0.0484  0.0548 -0.0545
32526W        W48335  14.099   3.659   4.770 -0.0544  0.1937  0.1003
32527W        W48336  10.635  18.261  15.411 -0.1623  0.2798  0.0799
32528W        W48337  10.019   8.818   4.384  0.1546 -0.0955  0.2615
32529W        W48338  12.407   3.149  15.450  0.1290 -0.0325  0.2460
32530W        W48339  12.557  17.237  11.191  0.0880  0.1435 -0.1235
32531W        W48340   7.200   3.079   2.510 -0.2401 -0.4448  0.0969
32532W        W48341   5.480   0.863   5.261 -0.2036  0.4093 -0.0542
32533W        W48342  15.301  11.321   2.329 -0.0543  0.1301 -0.0301
32534W        W48343  12.983   4.458  14.019  0.3955 -0.0006  0.1523
32535W        W48344  11.471  15.850  15.993  0.2490 -0.0239 -0.2609
32536W        W48345  12.796   2.069   3.628 -0.0228  0.1032  0.1077
32537W        W48346   4.863   4.711   1.025  0.1005  0.1774  0.0130
32538W        W48347  15.807  15.188  14.006 -0.2316 -0.1199  0.2828
32539W        W48348   1.075   2.565  13.861 -0.2918 -0.1159  0.1632
32540W        W48349  11.760   4.785   0.102 -0.1854 -0.1411  0.3833
32541W        W48350   1.555   0.339  14.192 -0.2088 -0.0004  0.1724
32542W        W48351  17.897  15.424  11.755 -0.1137  0.1139 -0.0939
32543W        W48352   6.579   4.232   1.133 -0.1646  0.0924  0.0567
32544W        W48353   9.703   5.285   1.411 -0.3817 -0.0515  0.1147
32545W        W48354  13.090  11.506   0.983  0.1625 -0.0651  0.2222
32546W        W48355   6.133  13.354  14.478  0.2005 -0.2415  0.0137
32547W        W48356   7.590  17.303   2.088 -0.1567 -0.0921  0.4254
32548W        W48357  11.906  12.101  11.982 -0.0064  0.0262 -0.0661
32549W        W48358  10.248  18.220   0.287  0.2142 -0.1449 -0.1514
32550W        W48359  10.356   1.325   5.121  0.0024 -0.1162 -0.4377
32551W        W48360   3.539   0.379  14.477  0.0127 -0.0909 -0.2729
32552W        W48361  12.475   4.755   2.388 -0.0769 -0.2026  0.0990
32553W        W48362  15.277  11.880   0.607  0.0165 -0.1907 -0.1515
32554W        W48363   8.180  12.454  13.110  0.1602  0.2929 -0.3560
32555W        W48364  16.260   4.666   0.058 -0.3713  0.3330 -0.1061
32556W        W48365   7.281  14.902  11.854  0.1489 -0.1197  0.0728
32557W        W48366   3.787  16.174  12.220  0.2551 -0.2049  0.1003
32558W        W48367   0.581   7.653  13.754  0.0181 -0.0672  0.1835
32559W        W48368  14.604   1.482  14.806 -0.1933  0.0155 -0.0444
32560W        W48369  15.452   4.204  13.951  0.2356 -0.1731  0.0199
32561W        W48370  17.570   2.795  11.457 -0.1468  0.1664 -0.0382
32562W        W48371  18.047   4.147  14.075 -0.0762 -0.0371 -0.2243
32563W        W48372  16.464  12.043  12.502  0.3045 -0.0738 -0.0677
32564W        W48373   0.890   7.380  10.538 -0.1762 -0.0024 -0.0897
32565W        W48374   2.034   0.871   3.924 -0.1724 -0.0201 -0.1129
32566W        W48375  11.494   2.759  14.760  0.1961 -0.1268  0.0644
32567W        W48376   4.715   1.804  15.062  0.1401 -0.0408  0.3044
32568W        W48377   1.641  14.118   4.284  0.0211  0.0023  0.1053
32569W        W48378   6.861   2.167  11.812  0.1846  0.2497  0.2029
32570W        W48379   7.661   4.701   1.901 -0.0896  0.0303 -0.1908
32571W        W48380   1.075  16.589  16.052 -0.2027  0.0343 -0.2789
32572W        W48381   3.029   2.880   2.518 -0.0395 -0.1630  0.0034
32573W        W48382  13.741   4.323  14.742 -0.0216 -0.1624  0.3372
32574W        W48383  15.507   0.024   0.021 -0.0811 -0.2048 -0.1037
32575W        W48384  14.053   5.314  11.946  0.0767  0.0661 -0.3771
32576W        W48385   7.299   8.824  12.538  0.0106  0.0539 -0.0402
32577W        W48386   6.423   8.009  12.923  0.1211 -0.2618  0.1178
32578W        W48387   3.928  13.197   1.942  0.0331 -0.1252  0.0595
32579W        W48388   1.993  15.444   1.749  0.0284  0.1387  0.0656
32580W        W48389   1.428  11.940   1.766 -0.0526  0.3289  0.0710
32581W        W48390   2.904  13.466  13.267  0.0580 -0.1332 -0.2502
32582W        W48391  16.664   8.606   2.451 -0.1383 -0.0755 -0.2338
32583W        W48392  11.300   6.797   2.624 -0.1861 -0.0435  0.2755
32584W        W48393   5.255   1.138  13.727 -0.2264 -0.2299  0.1095
32585W        W48394   6.806  14.371  10.804 -0.3159  0.1386  0.0121
32586W        W48395  12.658  12.094  14.732 -0.3941  0.1366 -0.1417
32587W        W48396   4.079  10.106  12.229  0.1641 -0.0259 -0.1786
32588W        W48397   7.310  11.704  12.994 -0.0306 -0.2195 -0.0594
32589W        W48398  12.932  15.261   2.707 -0.0382 -0.1921 -0.0700
32590W        W48399   6.692   7.675  13.716  0.0434  0.0364  0.1959
32591W        W48400  13.828   7.915   2.535 -0.0028 -0.1130 -0.1397
32592W        W48401  11.655  17.365   0.207  0.3093 -0.3147 -0.0386
32593W        W48402  14.892  12.300  12.724  0.1180 -0.0401 -0.1332
32594W        W48403   2.167  16.036  12.111  0.3213  0.2928  0.1417
32595W        W48404   5.066   3.708   4.927 -0.2284 -0.3291  0.0772
32596W        W48405   5.463   1.342   5.057 -0.2368 -0.0902 -0.0592
32597W        W48406  13.215   3.657   1.860 -0.1212  0.2235 -0.1274
32598W        W48407  10.673  10.107  11.773 -0.0283  0.1849  0.2425
32599W        W48408   2.164   9.282   3.944  0.1370  0.1404  0.0768
32600W        W48409   0.587   3.464  13.927 -0.1547 -0.0810  0.0795
32601W        W48410  18.105   9.641  15.511  0.0154  0.0375  0.2489
32602W        W48411  11.984  15.669  13.760  0.0885 -0.0970  0.1773
32603W        W48412   2.443  10.147  11.398  0.0444  0.0549  0.3201
32604W        W48413  12.784   2.766  14.919  0.0003 -0.1765  0.2682
32605W        W48414  17.327  10.703  12.629  0.0644  0.0973 -0.1471
32606W        W48415   0.559   6.236  14.935  0.1027 -0.0899 -0.1247
32607W        W48416   8.793  12.926   1.989 -0.0698 -0.1834  0.1349
32608W        W48417  14.498  14.494  12.524  0.3415 -0.0599 -0.0258
32609W        W48418   3.820  11.589   4.382  0.0494 -0.0233  0.2247
32610W        W48419   9.881   2.450  15.572  0.0446 -0.0936  0.2392
32611W        W48420  17.890   5.717  15.676  0.0975 -0.1214  0.0787
32612W        W48421   8.712   3.588   4.344 -0.0652  0.0173  0.0682
32613W        W48422  10.796  16.137  14.050 -0.3096 -0.1519  0.0352
32614W        W48423   1.066   1.161  11.220  0.1188  0.0030 -0.2454
32615W        W48424  10.681   7.834  12.456  0.2679  0.2961  0.0675
32616W        W48425   7.989   6.760   3.932 -0.0819  0.1211  0.0399
32617W        W48426  11.131  15.232  12.008  0.0877  0.1990  0.3003
32618W        W48427  13.444   0.549   2.203 -0.3598 -0.1114 -0.4676
32619W        W48428  14.852   0.567   2.420  0.0453 -0.1466  0.0022
32620W        W48429   2.438  13.609   1.427  0.1138 -0.1954  0.0671
32621W        W48430  12.853   4.839  13.622 -0.2075  0.0076  0.0724
32622W        W48431   7.037  14.639   3.499  0.0963  0.0115  0.0985
32623W        W48432   3.559  17.230   5.769  0.1067  0.2162 -0.0269
32624W        W48433  16.852   1.000   3.961  0.1296  0.0945  0.1308
32625W        W48434   3.421  17.315  13.388  0.3074 -0.1609 -0.0769
32626W        W48435  12.456  13.346   3.196  0.1626 -0.0044 -0.2861
32627W        W48436   2.361   4.107  12.808  0.1075  0.1277  0.1349
32628W        W48437  10.819   4.030   5.631  0.0074 -0.1266  0.2545
32629W        W48438   6.184  13.158   2.437 -0.4578 -0.0156 -0.0870
32630W        W48439  12.379   1.467  12.771 -0.0483  0.2093  0.2935
32631W        W48440  12.081  11.730   3.199 -0.1752  0.1903 -0.0670
32632W        W48441   5.133  17.417   4.801 -0.0719  0.1375 -0.1756
32633W        W48442   1.411   3.996   1.123 -0.0695  0.0652  0.1673
32634W        W48443  13.151   4.351  13.542  0.0268 -0.0886 -0.0310
32635W        W48444   4.875   6.141   3.236  0.2012  0.0932  0.1154
32636W        W48445   1.588  13.184   4.045 -0.1288  0.0895 -0.2161
32637W        W48446  15.100  15.233  11.102  0.1574  0.0141  0.4478
32638W        W48447  17.829  14.157  12.294 -0.0746 -0.0188 -0.0073
32639W        W48448   0.677   9.455  13.503 -0.0194  0.1933  0.0048
32640W        W48449   8.991   9.748  14.410  0.0174  0.1348  0.0124
32641W        W48450   7.457   5.143   0.995 -0.3410 -0.0593 -0.1504
32642W        W48451   0.434   8.743   0.767 -0.0632 -0.2199  0.1215
32643W        W48452   1.950  10.794   1.802 -0.0864  0.2598 -0.2767
32644W        W48453   2.468  14.119  13.165 -0.0648 -0.1392  0.1002
32645W        W48454  12.178  12.198   3.507  0.1389 -0.3690  0.2447
32646W        W48455   6.990  13.114   4.165  0.0134  0.1214 -0.1471
32647W        W48456  15.461  16.549   2.217  0.0570 -0.0818 -0.1956
32648W        W48457   3.340  15.509  12.297  0.0285  0.1606 -0.1149
32649W        W48458  14.447   2.923   4.535  0.0145  0.2171  0.0500
32650W        W48459  11.603   0.879   1.969  0.3344 -0.1047 -0.0525
32651W        W48460   5.031  12.615   1.362 -0.0224 -0.0103 -0.0577
32652W        W48461   5.319  17.678   2.252  0.3092  0.2142 -0.2112
32653W        W48462  12.520   6.541  12.691 -0.2013 -0.0228 -0.0316
32654W        W48463  12.014   1.141  12.851 -0.1175 -0.0774 -0.0483
32655W        W48464  16.380   2.134   3.944 -0.0577  0.0999  0.1589
32656W        W48465   7.658   1.838   4.011  0.0021  0.0037  0.0071
32657W        W48466   6.312  13.453   4.632 -0.2082  0.0396 -0.2100
32658W        W48467   9.829  14.865  15.740  0.4438  0.4330 -0.0662
32659ION     NA48468  12.179  17.710   1.917  0.1104  0.0155 -0.4275
32660ION     NA48469   0.622  15.820  15.994  0.1757  0.0487  0.1361
32661ION     NA48470  14.334   3.487   3.334 -0.1296  0.1042 -0.1021
32662ION     NA48471  17.768  11.550   2.502  0.0234  0.3130 -0.0511
32663ION     NA48472  10.782   8.198  15.322  0.0679  0.2426  0.2115
32664ION     NA48473   4.870   3.855  10.100  0.0709 -0.1159 -0.2360
32665ION     NA48474  10.280  17.123   6.218 -0.2071  0.0086  0.0361
32666ION     NA48475  15.496   1.126  14.575  0.0651 -0.0772 -0.0380
32667ION     NA48476  15.578   2.983   1.563 -0.0933 -0.0003 -0.0278
32668ION     NA48477   9.846   1.026   1.484  0.0081  0.2319  0.0305
32669ION     NA48478  17.402  12.774  15.062  0.1422  0.0203  0.0249
32670ION     NA48479  17.776  14.491  10.204 -0.1116 -0.2075  0.1946
32671ION     NA48480   7.717  10.391  14.613  0.1103  0.1140 -0.1601
32672ION     NA48481   0.538   0.915   5.694  0.2727  0.2722  0.0522
32673ION     NA48482   0.930  11.857   1.358 -0.1515  0.0529 -0.0734
32674ION     NA48483   1.975   3.854  15.329 -0.0558  0.0352 -0.1166
32675ION     NA48484   7.773   2.691  13.327  0.0860 -0.0276 -0.0244
32676ION     NA48485  14.629  10.043   2.067  0.0692 -0.1381  0.0741
32677ION     NA48486  13.394  18.241   0.592 -0.0515 -0.0805 -0.0479
32678ION     NA48487   0.709   9.093   0.428 -0.2971 -0.0791  0.1612
32679ION     NA48488   1.764   2.937  15.072 -0.0618 -0.0769  0.3851
32680ION     NA48489   9.928  16.571  15.027  0.0863 -0.0123 -0.2433
32681ION     NA48490   3.852  12.965   3.227 -0.0451  0.0425  0.1607
32682ION     NA48491   6.422   8.850   1.644  0.1524 -0.0254  0.1231
32683ION     NA48492   2.982   0.878  15.455  0.0711  0.1836  0.0173
32684ION     NA48493   6.403   9.633  13.859 -0.0040 -0.2537 -0.1800
32685ION     NA48494   5.340  12.958   1.218  0.4473 -0.1390  0.0483
32686ION     NA48495   3.734   9.155   1.008  0.2167  0.2953 -0.1320
32687ION     NA48496  15.096  15.855   3.341 -0.1496 -0.1169 -0.1130
32688ION     NA48497  15.350  14.520   5.373 -0.1219  0.0226  0.0104
32689ION     NA48498   5.860  17.006   6.305 -0.0282 -0.0329  0.0947
32690ION     NA48499   4.943  11.096  14.792  0.0065  0.0307 -0.0038
32691ION     NA48500   5.928   1.345  12.273 -0.1182  0.2124  0.1923
32692ION     NA48501   6.031  12.765  15.575  0.1968  0.2942  0.0221
32693ION     NA48502   6.818   1.608   5.712 -0.0555 -0.1745 -0.2939
32694ION     NA48503  12.982  17.318  10.463 -0.0318  0.1666 -0.0973
32695ION     NA48504   4.551   0.019  10.292 -0.0506 -0.1033  0.3284
32696ION     NA48505   9.835  16.450   2.687 -0.0037 -0.1425 -0.0786
32697ION     NA48506   6.734  10.996   3.001 -0.0244 -0.1016 -0.0197
32698ION     NA48507  17.811   0.570   4.263 -0.0520 -0.1241 -0.0572
32699ION     NA48508   0.062   1.523   0.695  0.0684 -0.0146 -0.1694
32700ION     NA48509   7.528  16.212  10.341 -0.0208  0.0494 -0.0002
32701ION     NA48510   0.328  10.496   2.672 -0.1011 -0.1073  0.0170
32702ION     NA48511   5.799  14.187   2.462  0.1381  0.0553  0.0080
32703ION     NA48512  10.859  17.416   6.224  0.0695  0.0199  0.1130
32704ION     NA48513   7.802   5.363  10.110 -0.1410  0.1480 -0.2973
32705ION     NA48514   4.288   6.133   5.354 -0.2336  0.0251 -0.2125
32706ION     NA48515   0.782  17.235   3.312  0.1048  0.1397 -0.0240
32707ION     NA48516   4.585   1.272  10.296 -0.1653  0.0317 -0.2213
32708ION     NA48517   5.152  13.167   3.450 -0.4360 -0.0153  0.1919
32709ION     NA48518  14.863   0.104   4.968 -0.2345 -0.0024  0.0808
32710ION     NA48519  15.085  16.326   1.859  0.0824 -0.1897  0.2268
32711ION     NA48520   8.199  18.254   5.921  0.0133  0.1607 -0.3573
32712ION     NA48521   0.300  13.506  10.052  0.1541  0.3627  0.1161
32713ION     NA48522   2.957   9.589   5.579 -0.0449  0.1324  0.0113
32714ION     NA48523  14.184   1.991  12.911 -0.1763 -0.0764  0.1468
32715ION     NA48524   5.893  15.040   1.396  0.0250  0.0679  0.0279
32716ION     NA48525  17.813  13.714  10.336  0.5549  0.1059  0.0351
32717ION     NA48526  10.159  17.993  10.374  0.0759  0.1390 -0.0138
32718ION     NA48527  14.613   4.744   0.751 -0.0648  0.2265  0.1119
32719ION     NA48528   4.545   9.792  14.606 -0.3452  0.1100  0.1525
32720ION     NA48529  11.485  10.158   6.050  0.0563  0.2019  0.0086
32721ION     NA48530   2.098  11.633   1.129  0.0750  0.0528 -0.0038
32722ION     NA48531   9.916  17.997   6.156  0.0849  0.1323 -0.0162
32723ION     NA48532   2.789  12.361   3.917 -0.0982  0.1791 -0.1017
32724ION     NA48533   6.976  15.246  10.199 -0.0083 -0.2798  0.0152
32725ION     NA48534   0.537  14.875  11.176 -0.4877 -0.3078  0.2706
32726ION     NA48535  13.602  10.321   2.247  0.0697 -0.1129 -0.0976
32727ION     NA48536   7.115  11.687   2.238 -0.1516  0.0747  0.0033
32728ION     NA48537   1.760   9.665   4.663 -0.1666  0.2407  0.0521
32729ION     NA48538   4.717  17.350   6.146  0.0935 -0.0949  0.1124
32730ION     NA48539   4.093   8.083   1.677 -0.0188 -0.0480  0.0311
32731ION     NA48540  13.162   4.168  10.501 -0.0706 -0.5535  0.2019
32732ION     NA48541   9.331  16.219   3.781 -0.1971 -0.2265 -0.0287
32733ION     NA48542  11.171  12.243  10.326 -0.0846  0.1429  0.2233
32734ION     NA48543  12.520   1.446  10.430  0.1485  0.0054 -0.1577
32735ION     NA48544  14.964   6.569  14.721  0.0186 -0.3599  0.0350
32736ION     NA48545   8.661   4.184   5.757 -0.0560 -0.2799  0.1444
32737ION     NA48546   8.498   2.054  10.638 -0.2581 -0.1636 -0.1102
32738ION     NA48547   3.983  16.748   4.944  0.2456 -0.0515  0.0751
32739ION     NA48548   3.952   8.662  10.002 -0.1316 -0.4429  0.2392
32740ION     NA48549   1.728   1.013  13.365 -0.2240 -0.3160 -0.1262
32741ION     NA48550  15.946   9.344  13.023  0.0716  0.0080  0.1920
32742ION     NA48551   7.198   2.081   3.222 -0.1062 -0.2287  0.2445
32743ION     NA48552  11.027   3.860   6.065 -0.2272  0.1317  0.2650
32744ION     NA48553   8.687  17.133  13.523  0.0362  0.0061 -0.1996
32745ION     NA48554   4.194   1.003  15.096  0.0366 -0.0275 -0.1782
32746ION     NA48555   5.489   4.096  11.612  0.0383 -0.1974 -0.1113
32747ION     NA48556   0.108   9.622   0.380  0.1482 -0.1965  0.0540
32748ION     NA48557  16.665  12.240   3.185  0.1295  0.0098  0.1750
32749ION     NA48558  11.229  16.670   3.924 -0.1393  0.2891 -0.2259
32750ION     NA48559   2.027  10.280   5.667  0.1049 -0.0114 -0.0738
32751ION     NA48560   1.796   7.405  12.019  0.0800  0.0881 -0.3367
32752ION     NA48561  13.900   1.011  14.436 -0.0953 -0.1058 -0.1137
32753ION     NA48562   5.391  12.962   5.622  0.2634 -0.0250 -0.0194
32754ION     NA48563  18.203  15.729   5.525  0.0228 -0.0117  0.3242
32755ION     NA48564   6.089   5.060  15.843 -0.3125  0.0920 -0.1816
32756ION     NA48565  11.640   5.542  12.500  0.0285 -0.0981  0.0492
32757ION     NA48566  12.166  16.182  10.120 -0.0138  0.1898  0.0697
32758ION     NA48567  11.477   5.672   6.271 -0.1182  0.0886  0.4026
32759ION     NA48568   6.416  11.631  13.926 -0.0097 -0.1392 -0.0488
32760ION     NA48569   7.919  18.036  10.425  0.1798 -0.0986 -0.0445
32761ION     NA48570   1.200   6.891  10.176  0.2564 -0.0344 -0.0805
32762ION     NA48571   1.472  17.747   5.891 -0.1345 -0.1688  0.0121
32763ION     NA48572  12.589   5.464  15.254  0.3362 -0.1385  0.0046
32764ION     NA48573  10.013   3.586   2.801 -0.2166  0.0417  0.1321
32765ION     NA48574   7.689   5.229  11.087  0.2036  0.0834 -0.1098
32766ION     NA48575   0.236  17.229   1.558  0.0282  0.2409  0.0186
32767ION     NA48576   8.834   6.806   9.859  0.0855  0.0146 -0.1191
32768ION     NA48577  11.729   3.455   4.698  0.0031 -0.1009  0.2184
32769ION     NA48578  14.435   9.115  15.057  0.0842 -0.0311 -0.1448
32770ION     NA48579   2.006  15.345  10.255 -0.0360  0.1818  0.0733
32771ION     NA48580   0.147   9.979  12.414 -0.1084  0.0779 -0.1262
32772ION     NA48581  17.176  14.658   5.863  0.0331 -0.0764  0.0781
32773ION     NA48582  16.287  14.166  13.096 -0.0560  0.0493  0.1527
32774ION     NA48583  11.815   9.505  10.142 -0.0723  0.1888  0.0425
32775ION     NA48584   6.298  13.082  13.557  0.3237  0.1101  0.0308
32776ION     NA48585   9.603   9.282   5.194  0.3478  0.2013  0.3286
32777ION     NA48586  17.466  10.262  15.789  0.0975 -0.0594 -0.0303
32778ION     NA48587   8.217  13.585   2.190 -0.1530 -0.1788  0.2608
32779ION     NA48588  16.849  16.489  14.429 -0.2775 -0.0246  0.0789
32780ION     NA48589   2.832  14.582   5.897 -0.4780 -0.1610 -0.4058
32781ION     NA48590  14.147   4.030  13.001 -0.0289  0.0200 -0.1981
32782ION     NA48591   9.839  13.815  12.551 -0.0704 -0.2719 -0.2160
32783ION     NA48592  14.731  17.778   0.069 -0.1933  0.1807 -0.3331
32784ION     NA48593  11.376  13.527   6.094 -0.0356  0.4689 -0.2507
32785ION     NA48594   8.779  15.675  15.031  0.2086 -0.0497 -0.1395
32786ION     NA48595  13.433  11.185   5.656 -0.3707 -0.0429 -0.0681
32787ION     NA48596  12.978  11.542   2.384  0.1526 -0.1259 -0.1644
32788ION     NA48597  14.237   5.850   5.812 -0.0298 -0.0886 -0.0240
32789ION     NA48598   1.834  17.919   0.170 -0.0830 -0.0341  0.0702
32790ION     NA48599  11.216   4.255  10.595 -0.0650 -0.2183 -0.3594
32791ION     NA48600  15.529   9.135  10.053  0.1149 -0.0859 -0.1489
32792ION     NA48601  16.440   4.521  15.272 -0.0624 -0.2435  0.0587
32793ION     NA48602  14.921  14.742  11.239  0.0789  0.0745 -0.0478
32794ION     NA48603   7.998   1.386   2.439  0.3663  0.1329 -0.0310
32795ION     NA48604   4.185   0.942  13.530 -0.3387  0.1918  0.0723
32796ION     NA48605  15.437  16.735   6.324  0.0625 -0.0042 -0.1953
32797ION     NA48606   8.077  15.583   2.902 -0.2756 -0.1600 -0.1077
32798ION     NA48607   1.329   4.201   3.320 -0.0759  0.0725 -0.0329
32799ION     NA48608   2.643  14.668  10.515  0.2129  0.1787  0.1678
32800ION     NA48609   9.926  14.254   3.586  0.1752  0.0394 -0.2266
32801ION     NA48610   8.409   7.578  11.734  0.2635 -0.2771  0.3589
32802ION     NA48611  17.133  10.330  13.017  0.0348  0.0350 -0.0894
32803ION     NA48612   2.453   6.007   3.938 -0.0690 -0.0249  0.0622
32804ION     NA48613  12.021  13.741   5.406  0.1373  0.1667  0.1202
32805ION     NA48614  17.877  16.515   1.514  0.0749  0.2350 -0.0304
32806ION     NA48615   7.500  15.319  13.330 -0.0694 -0.0767 -0.0835
32807ION     NA48616   3.837  12.142  12.447 -0.1060  0.1526  0.1174
32808ION     NA48617   1.984   7.597   5.719  0.0222  0.1225  0.0444
32809ION     NA48618   6.180   9.222   5.664 -0.1821 -0.0866  0.1164
32810ION     NA48619   1.822  12.925   1.232 -0.3619 -0.2440 -0.1155
32811ION     NA48620  11.748  10.750  13.906  0.0298 -0.2145  0.0378
32812ION     NA48621   9.344  17.128   4.121 -0.2742 -0.1842  0.0406
32813ION     NA48622  15.246   7.626   0.803 -0.0323 -0.0345 -0.3028
32814ION     NA48623   6.204  17.956  12.456  0.0187 -0.0277 -0.2831
32815ION     NA48624   4.064   3.772   5.734 -0.1501 -0.1342  0.1981
32816ION     NA48625   3.185   1.158  11.782  0.0155 -0.0229 -0.0019
32817ION     NA48626   4.373  15.416   6.037  0.0893 -0.3640 -0.1559
32818ION     NA48627   5.792  15.842  10.499  0.0452 -0.1683 -0.1542
32819ION     NA48628   1.109   0.553  11.823 -0.1066  0.1768  0.0315
32820ION     NA48629   4.953  16.873   3.007  0.0238 -0.0389  0.1337
32821ION     NA48630   6.541   0.475   5.816 -0.2016 -0.1998 -0.1320
32822ION     NA48631   6.008  11.575   3.153 -0.0507 -0.1891 -0.0899
32823ION     NA48632  11.508  11.698   5.160  0.0309  0.1558  0.3230
32824ION     NA48633   7.699  16.941  14.087  0.1825  0.1168  0.0002
32825ION     NA48634   4.160  13.643  10.316  0.0515  0.3045  0.0228
32826ION     NA48635   7.408   7.429   5.602 -0.0713 -0.2466  0.2292
32827ION     NA48636   5.004  14.794   5.786  0.0625  0.1500 -0.0511
32828ION     NA48637   7.702   1.529  13.922 -0.0518  0.1358 -0.2195
32829ION     NA48638  11.119  17.459  10.427 -0.2127 -0.1369  0.2755
32830ION     NA48639   9.738  15.627   3.144 -0.0319 -0.1761 -0.0336
32831ION     NA48640  13.256  12.220   5.590 -0.0042  0.1728  0.1297
32832ION     NA48641  12.514  12.275  15.217  0.0123  0.3573  0.3817
32833ION     NA48642  14.344  17.189  10.424  0.1233  0.2638 -0.1323
32834ION     NA48643   4.716   0.495  12.876 -0.1234  0.3951  0.2485
32835ION     NA48644   6.548  16.406  14.781  0.0274 -0.0889 -0.0407
32836ION     NA48645   8.275   7.895   5.552  0.1719  0.3134 -0.2504
32837ION     NA48646   1.155  15.635   3.218 -0.0736 -0.2546 -0.1090
32838ION     NA48647  12.364  13.140   0.788 -0.1632 -0.0332 -0.0160
32839ION     NA48648  10.592  15.072  15.143 -0.0531 -0.3337 -0.1036
32840ION     NA48649  15.333   3.233   6.030 -0.1151 -0.3073  0.2086
32841ION     NA48650  11.791   4.932  15.227  0.2365 -0.3031 -0.3525
32842ION     NA48651  17.428   7.643   5.696 -0.2088  0.0338 -0.2449
32843ION     NA48652  13.851   8.778   2.826 -0.0545  0.1636  0.1226
32844ION     NA48653  14.883   0.944   6.409 -0.1171  0.1160 -0.0475
32845ION     NA48654   5.861   9.372  15.910 -0.3952 -0.1254  0.1382
32846ION     NA48655   6.218   2.708   5.211  0.2541 -0.1648  0.1783
32847ION     NA48656   3.577   7.513   3.821  0.2777 -0.0623 -0.1390
32848ION     NA48657  15.656  17.438  10.392  0.3533  0.0193 -0.4554
32849ION     NA48658  18.167   4.472   2.677  0.4411  0.2525 -0.0138
32850ION     NA48659   5.193   5.213   3.197  0.1897  0.1439 -0.0051
32851ION     NA48660   5.633  14.316  12.343 -0.0023 -0.0765 -0.1806
32852ION     NA48661  13.651  10.007   3.409 -0.0528  0.0543  0.2135
32853ION     NA48662  10.674  11.971   5.999 -0.3219  0.3544  0.1881
32854ION     NA48663   3.721   5.359  15.646 -0.1449  0.2159  0.1566
32855ION     NA48664   4.420  12.261   4.835  0.0929 -0.2272  0.2187
32856ION     NA48665  13.277   8.587   5.387  0.1766 -0.2420  0.1554
32857ION     NA48666  10.805   5.961   0.302  0.0028  0.0400 -0.0351
32858ION     NA48667   2.956   0.771  10.343 -0.1616  0.2991  0.0436
32859ION     NA48668   7.413  17.389   0.497 -0.0855  0.0070  0.1550
32860ION     NA48669  14.876  11.955   9.935  0.2019  0.0517  0.1679
32861ION     NA48670  15.231  13.692  14.162  0.0338 -0.0702  0.1140
32862ION     NA48671   3.664   1.811  10.163 -0.1998 -0.1142  0.3699
32863ION     NA48672  10.700   7.730   4.750 -0.0232 -0.3677  0.3632
32864ION     NA48673   4.765   0.059   4.547  0.2357 -0.1070  0.1477
32865ION     NA48674  17.493   0.056  10.867 -0.0624 -0.1594  0.0593
32866ION     NA48675  16.166  13.649   3.502 -0.1384  0.2428  0.0057
32867ION     NA48676  17.063   6.083  10.340  0.0977  0.1687 -0.0257
32868ION     NA48677  14.736   5.745   0.564  0.1302 -0.1222 -0.2137
32869ION     NA48678  14.374  10.045   3.913 -0.0176 -0.2537  0.0139
32870ION     NA48679  13.328  17.568   3.951  0.1923  0.2120 -0.0548
32871ION     NA48680   8.914   0.120  14.086 -0.4290 -0.1603 -0.2502
32872ION     NA48681  14.246   6.732   5.988  0.4132  0.2885  0.0412
32873ION     NA48682   4.640   3.072   4.687 -0.1069 -0.0847 -0.0182
32874ION     NA48683   9.763   1.382   3.298 -0.2167 -0.0788  0.1383
32875ION     NA48684   9.832   9.872   1.841  0.3689 -0.0013 -0.0126
32876ION     NA48685  15.909  17.512  13.414  0.0274  0.1552 -0.1828
32877ION     NA48686   8.723   3.483  12.599 -0.0638  0.0268 -0.0833
32878ION     NA48687   5.395   4.409   3.965 -0.0132 -0.0243 -0.2650
32879ION     NA48688  16.189   3.712   1.362 -0.0436  0.2624 -0.2935
32880ION     NA48689   3.518  13.355  13.279 -0.0305  0.1081  0.0114
32881ION     NA48690  12.091  12.504  13.463 -0.0654  0.2170 -0.1567
32882ION     NA48691   3.378   3.670  15.295 -0.1808  0.1420  0.1840
32883ION     NA48692  13.493   2.763  14.614 -0.1922 -0.1197 -0.1764
32884ION     NA48693   9.080  10.120  15.754  0.2481  0.1548 -0.0783
32885ION     NA48694   0.303  11.157  10.188  0.0310  0.4605 -0.1636
32886ION     NA48695   2.238   6.765  14.244  0.0475 -0.0127  0.0623
32887ION     NA48696  16.281   7.582   1.500 -0.0283 -0.4866  0.1963
32888ION     NA48697   9.241  14.569  13.627 -0.0212 -0.0437 -0.1112
32889ION     NA48698   4.448   4.558  12.492  0.1426  0.0565 -0.2353
32890ION     NA48699  13.907  11.266  14.799  0.0327 -0.0121 -0.4616
32891ION     NA48700  13.812   9.295  10.391  0.0840  0.2962  0.0315
32892ION     NA48701   1.125  11.073  15.876  0.1458  0.0198  0.0967
32893ION     NA48702   9.555   5.343   2.469  0.4340  0.0540 -0.1505
32894ION     NA48703   9.432   6.635   0.659 -0.0888 -0.0467 -0.0093
32895ION     NA48704   6.437   4.586   1.826 -0.0047  0.2176 -0.2696
32896ION     NA48705   6.836   9.149   2.462 -0.0507  0.2874  0.1250
32897ION     NA48706   1.784  15.985   5.404  0.0474 -0.4043  0.0081
32898ION     NA48707   4.690   5.858  10.236  0.2809 -0.3266 -0.0551
32899ION     NA48708   8.735  17.829   4.176  0.1927  0.1120  0.0660
32900ION     NA48709   4.581   9.001   9.771 -0.2295 -0.0318 -0.0932
32901ION     NA48710   4.633  14.862   4.232  0.2323 -0.1662  0.2557
32902ION     NA48711  12.732   9.365   6.019  0.0004  0.2795  0.0042
32903ION     NA48712  11.906   5.030  13.602  0.1925  0.0270  0.0416
32904ION     NA48713   2.092   7.516   9.981 -0.0076 -0.1623 -0.1194
32905ION     NA48714  10.259   2.303  12.607  0.0406  0.1880  0.0534
32906ION     NA48715  15.424   9.731   5.200  0.0411 -0.0459  0.3184
32907ION     NA48716  16.856   5.270   3.387  0.2202  0.2232  0.2191
32908ION     NA48717  14.904  16.332  10.320  0.0412 -0.1279  0.1058
32909ION     NA48718   4.869   7.751  13.825 -0.0636  0.1478 -0.1889
32910ION     NA48719   2.620   0.322  15.033 -0.1612 -0.2012 -0.1133
32911ION     NA48720   1.315   1.126  16.030 -0.0752 -0.1370  0.2745
32912ION     NA48721   5.620   5.926   5.732  0.0674 -0.1123  0.0254
32913ION     NA48722  17.091   6.173   2.811 -0.1047  0.1094 -0.0246
32914ION     NA48723  14.165  17.069   2.735  0.0152 -0.1101 -0.2151
32915ION     NA48724   3.305   5.455  10.237  0.2206 -0.0548 -0.1390
32916ION     NA48725   3.859   7.735  15.746  0.2945  0.0737 -0.0384
32917ION     NA48726   3.808  12.974  15.932 -0.0709  0.1195  0.0362
32918ION     NA48727  11.289   0.715   2.841  0.0908 -0.0361  0.0230
32919ION     NA48728  15.161  12.179  14.482  0.0411  0.0236  0.1037
32920ION     NA48729  15.390  16.922   2.599 -0.1512 -0.3294  0.3039
32921ION     NA48730   4.220   0.378   5.794 -0.0238  0.0939  0.0509
32922ION     NA48731   6.357   5.542  12.512 -0.1503  0.1931  0.0574
32923ION     NA48732  17.984   1.272   6.015 -0.0924  0.1162 -0.2243
32924ION     NA48733   8.656   3.873   3.902 -0.0705  0.1521 -0.1542
32925ION     NA48734   0.481  13.242   1.514 -0.1398 -0.1034 -0.0515
32926ION     NA48735   9.226   9.452   4.197  0.0991  0.0721  0.2961
32927ION     NA48736   0.764   6.248   0.759  0.0724  0.1017  0.0461
32928ION     NA48737  12.261   8.728   4.154  0.0429 -0.1821 -0.2219
32929ION     NA48738  14.810  12.829   5.806 -0.0876 -0.0218  0.0103
32930ION     NA48739   1.826   8.808   5.634  0.2017  0.0796 -0.0866
32931ION     NA48740   8.832   7.707   1.382 -0.1294 -0.0313  0.2222
32932ION     NA48741  16.901   3.693   0.933 -0.0055  0.0189 -0.1879
32933ION     NA48742  14.298   2.109  15.977 -0.0678  0.2214  0.2346
32934ION     NA48743   2.358   9.576  10.079  0.0499  0.1661 -0.1298
32935ION     NA48744   6.039  16.083  15.336  0.0096 -0.1100 -0.0212
32936ION     NA48745   5.156   3.806   5.800 -0.0026 -0.0437  0.0063
32937ION     NA48746   1.489   9.918   0.802  0.2016  0.3103  0.0223
32938ION     NA48747   4.306   1.846  14.741 -0.0840 -0.0222 -0.2528
32939ION     NA48748   1.202  14.797   0.861 -0.0101  0.1312 -0.0530
32940ION     NA48749   3.768  16.602   3.346 -0.0159  0.0705  0.0944
32941ION     NA48750  12.835  12.272   5.977  0.2670  0.0205 -0.0190
32942ION     NA48751   3.378   3.217   5.962 -0.0068  0.3687 -0.0952
32943ION     NA48752   1.380   0.336   5.074 -0.0532 -0.0420 -0.1245
32944ION     NA48753  15.152   1.594  10.562 -0.0013 -0.0502 -0.2303
32945ION     NA48754   3.345  11.841   5.685 -0.0697  0.1798  0.1180
32946ION     NA48755  16.406  16.636   4.814 -0.1371 -0.0599  0.1119
32947ION     NA48756   6.070   7.046  13.130  0.0315 -0.0341 -0.2831
32948ION     NA48757   4.517   7.115  14.387  0.1602 -0.3198  0.0031
32949ION     NA48758   9.418   4.408   1.969 -0.1445 -0.2308  0.1101
32950ION     NA48759   2.499   8.456  13.683  0.1967  0.2204 -0.1440
32951ION     NA48760  12.468  11.506  10.372  0.1063  0.0098  0.0477
32952ION     NA48761  12.488  17.804   6.085 -0.0165  0.0199 -0.1735
32953ION     NA48762  14.335  12.164   5.300  0.0394 -0.1940 -0.0174
32954ION     NA48763  17.035  17.249  10.666 -0.0612  0.1187 -0.0440
32955ION     NA48764  16.289  17.610   2.050 -0.1998  0.0306  0.3042
32956ION     NA48765   5.123   1.543   0.302 -0.0695 -0.0870  0.1950
32957ION     NA48766   9.317   3.499  10.615 -0.0116 -0.2002 -0.0344
32958ION     NA48767  18.062   2.207   5.175  0.4319  0.0467  0.4393
32959ION     NA48768  14.382  13.463   3.275 -0.0824 -0.0051 -0.0936
32960ION     NA48769   2.941  11.477   3.884  0.0641 -0.0877 -0.1939
32961ION     NA48770   6.751  14.471   1.113  0.3358 -0.1571  0.2730
32962ION     NA48771   3.956  14.435  10.233  0.1009 -0.1560  0.3698
32963ION     NA48772   0.857   7.518   0.379  0.2773  0.1737 -0.0434
32964ION     NA48773   4.475  13.497   5.489 -0.1788  0.0643  0.0748
32965ION     NA48774   8.781  14.371   0.055  0.0522  0.0550  0.0614
32966ION     NA48775  13.630   7.490   2.138 -0.0099 -0.1791  0.0705
32967ION     NA48776  15.050  10.207  13.990 -0.1084 -0.0392 -0.1197
32968ION     NA48777   4.166  10.594  14.593  0.1302 -0.2170 -0.0444
32969ION     NA48778  11.036  14.299   3.139  0.0560  0.0178 -0.0943
32970ION     NA48779  13.008   3.813  15.462 -0.0520 -0.0744  0.0307
32971ION     NA48780  10.311   6.555  10.827 -0.0168  0.1590  0.1565
32972ION     NA48781  12.480   1.967  15.992  0.2591  0.1097  0.0074
32973ION     NA48782   1.457   2.480  10.844 -0.1558  0.2494  0.0334
32974ION     NA48783   7.385   2.651   2.337 -0.3201 -0.0446 -0.0343
32975ION     NA48784   9.754   1.996  15.770  0.4059 -0.1734 -0.1624
32976ION     NA48785  17.748   0.975  10.617 -0.1318 -0.1555  0.0294
32977ION     NA48786  11.162   8.299   5.981 -0.0340 -0.0956  0.2981
32978ION     NA48787   5.637  14.011  13.346  0.2294  0.0518  0.1284
32979ION     NA48788   5.112   5.786   5.351 -0.2648 -0.1264 -0.1963
32980ION     NA48789   3.594  17.188   1.700 -0.3192 -0.0306  0.1276
32981ION     NA48790   3.136  18.186   5.662 -0.1299  0.1458  0.0417
32982ION     NA48791  16.214   8.013  15.887  0.3070  0.0226 -0.0554
32983ION     NA48792  16.292  10.171  10.218  0.0038 -0.0011 -0.0009
32984ION     NA48793   7.155   4.291  10.039 -0.0737  0.1283 -0.1062
32985ION     NA48794   1.880   0.255   5.750 -0.0170 -0.2382  0.1127
32986ION     NA48795  12.632   9.139  10.600 -0.1105 -0.0892 -0.1479
32987ION     NA48796   0.695  15.311  14.827 -0.3962 -0.1807  0.0943
32988ION     NA48797   0.523   4.623  12.734  0.4419 -0.0105  0.2652
32989ION     NA48798   7.239   9.160  12.177 -0.0198 -0.3800  0.0943
32990ION     NA48799   5.438   8.710  14.021  0.0742  0.0312  0.2577
32991ION     NA48800  14.963  12.371   1.243 -0.0945 -0.0763 -0.1466
32992ION     NA48801  15.179  18.259   6.520 -0.2147  0.0456  0.0777
32993ION     NA48802   1.436   1.405  13.337 -0.1327  0.0633 -0.1023
32994ION     NA48803  14.809   8.170   2.928  0.1313 -0.0433  0.0522
32995ION     NA48804   8.092   0.230  14.612 -0.0387 -0.0490 -0.3382
32996ION     NA48805   9.159  12.712   5.613  0.2544  0.2196  0.1304
32997ION     NA48806   0.881   4.769  14.735 -0.0426  0.1679 -0.1971
32998ION     NA48807   2.654  13.609  13.779 -0.0094  0.1779  0.3341
32999ION     NA48808  10.299   3.403  14.350  0.1545  0.1415  0.0612
33000ION     NA48809   8.340   1.668   6.052  0.0702 -0.1815  0.1091
33001ION     NA48810  15.069  13.195  10.428 -0.0110 -0.1762 -0.2265
33002ION     NA48811  17.019   2.050  14.240  0.2191 -0.0825  0.1440
33003ION     NA48812   6.734   3.630  10.151  0.3980 -0.2449 -0.2208
33004ION     NA48813   0.636   9.223  12.616 -0.1236  0.4781  0.1513
33005ION     NA48814  13.416  14.382   4.480  0.1379 -0.2112  0.0947
33006ION     NA48815   0.646  13.090  13.566  0.5178  0.2445 -0.2461
33007ION     NA48816  10.364   8.810   5.803 -0.1769  0.0913 -0.1071
33008ION     NA48817  17.676  16.069  10.105 -0.0408 -0.0997 -0.0217
33009ION     NA48818   5.734   9.723   1.097 -0.0461  0.2739 -0.2600
33010ION     NA48819   0.126   2.252   5.898  0.0602 -0.4126  0.1166
33011ION     NA48820   9.979   7.177   5.650 -0.0392 -0.2597 -0.1216
33012ION     NA48821  14.150   3.914  10.498 -0.1332  0.1028 -0.1294
33013ION     NA48822   7.394  13.808   5.884  0.0976 -0.0058 -0.1728
33014ION     NA48823   2.070  16.420  10.279 -0.0078  0.0011 -0.0691
33015ION     NA48824   9.514   5.062  10.270 -0.3122 -0.2762  0.1600
33016ION     NA48825   1.723   3.125   5.805 -0.0772 -0.2399 -0.2649
33017ION     NA48826  17.038  17.597  11.014  0.0778 -0.0596  0.0438
33018ION     NA48827   8.063   7.512   4.393 -0.0817  0.2820 -0.0232
33019ION     NA48828   5.935   0.542  15.705 -0.2400 -0.3622 -0.0045
33020ION     NA48829   6.199   1.219   5.542  0.2630  0.1933 -0.0629
33021ION     NA48830  16.516  17.039   6.005 -0.0604  0.0319 -0.1520
33022ION     NA48831   3.933   8.542   3.257 -0.0613 -0.1772  0.1919
33023ION     NA48832   4.683   5.101   1.407  0.1475 -0.1223 -0.1531
33024ION     NA48833   1.125  17.012  15.701 -0.0668 -0.1652 -0.1774
33025ION     NA48834   1.947  12.629   1.929  0.0410  0.2081 -0.3298
33026ION     NA48835   3.155   2.610  11.526 -0.1355  0.0548 -0.0348
33027ION     NA48836  16.579   6.171   5.586 -0.0218 -0.2183  0.0403
33028ION     NA48837   1.608  14.565  10.217 -0.2445 -0.3282  0.0637
33029ION     NA48838  17.845  10.454   5.747  0.1410 -0.2156 -0.0992
33030ION     NA48839  15.476   3.380  16.028  0.2007  0.1083 -0.1609
33031ION     NA48840   1.479   2.410   0.162 -0.2617  0.0352 -0.0199
33032ION     NA48841  16.344   3.542  13.147  0.1655 -0.1772 -0.1230
33033ION     NA48842  16.593   7.006  14.916  0.1503  0.1519  0.1183
33034ION     NA48843   2.066  17.266  10.297  0.2101  0.1393  0.1978
33035ION     NA48844  14.430   1.502   5.605 -0.0489 -0.0015  0.0260
33036ION     NA48845  14.328  16.353  11.432  0.2843 -0.2557 -0.1913
33037ION     NA48846   3.089  15.876   4.427  0.0858 -0.1559  0.1437
33038ION     NA48847  15.793  15.525  10.476 -0.4025 -0.0332 -0.0934
33039ION     NA48848  15.718  11.956  10.231  0.3600 -0.1976 -0.0475
33040ION     NA48849  13.219  14.065   5.849  0.0985 -0.0941 -0.1707
33041ION     NA48850   8.486   6.702  15.342 -0.0123  0.0222 -0.3785
33042ION     NA48851  14.284   8.440   5.917  0.1663 -0.0949  0.3883
33043ION     NA48852  14.044  11.612  13.662  0.1485  0.0702 -0.1581
33044ION     NA48853   9.325  13.035   0.675  0.1661 -0.1225  0.2272
33045ION     NA48854   2.169  16.890   5.855 -0.0842  0.1306 -0.0064
33046ION     NA48855  12.260  13.569  14.757  0.1653  0.0279 -0.0951
33047ION     NA48856   4.847  12.614   1.832  0.0447  0.1461 -0.1868
33048ION     NA48857  14.916  14.630  13.767  0.0342 -0.3259  0.0689
33049ION     NA48858   4.563   2.148  10.309 -0.1979 -0.0186 -0.0801
33050ION     NA48859  14.140   7.051  14.022  0.1463 -0.2389  0.2132
33051ION     NA48860  11.101  13.801  10.072  0.3908 -0.0272 -0.2527
33052ION     NA48861   5.187   9.918   4.886  0.0442  0.0518 -0.0354
33053ION     NA48862  16.130   3.280   2.394 -0.1588 -0.2069  0.2826
33054ION     NA48863  11.615  16.304   2.766 -0.2939 -0.0044 -0.0215
33055ION     NA48864   5.422   0.223  10.346  0.0755  0.1429 -0.4200
33056ION     NA48865   9.803   9.731  14.856  0.2004  0.0379  0.0702
33057ION     NA48866  17.887  13.768   4.436  0.2703  0.0217 -0.0437
33058ION     NA48867  10.356   7.592   2.813 -0.1392 -0.1986  0.2060
33059ION     NA48868   5.394  16.437  15.398  0.0842 -0.2246  0.2057
33060ION     NA48869   3.489   3.313   1.775  0.1076  0.0829 -0.2370
33061ION     NA48870   8.776   8.385  13.394 -0.0726  0.2587 -0.0621
33062ION     NA48871  16.545   0.332   2.759 -0.1600  0.2255 -0.3948
33063ION     NA48872  13.618   5.046   6.008 -0.3242  0.1357  0.0426
33064ION     NA48873   8.120  13.540   1.008 -0.2974 -0.0228  0.0002
33065ION     NA48874   2.787   4.114   0.347 -0.0604  0.1275 -0.3427
33066ION     NA48875   1.067   0.263  10.355  0.1238 -0.1341 -0.0603
33067ION     NA48876   3.774   4.896   2.572  0.1312  0.2182 -0.2509
33068ION     NA48877  15.752   8.939   5.906  0.0503  0.0912 -0.0051
33069ION     NA48878   7.933   5.294   1.208 -0.2006 -0.1395 -0.2905
33070ION     NA48879  16.867  18.148  13.967 -0.0395  0.1246  0.0891
33071ION     NA48880  16.651  17.969   6.077  0.1316 -0.1781  0.0830
33072ION     NA48881   1.918   9.607  10.436 -0.0208  0.1260  0.0928
33073ION     NA48882  16.034  12.616  15.356 -0.1694 -0.1425  0.4055
33074ION     NA48883  13.324   8.965  13.647  0.0270  0.0141 -0.0481
33075ION     NA48884  15.568  17.105  12.510 -0.2887 -0.1917 -0.3942
33076ION     NA48885   7.199   3.686   4.142 -0.0341  0.2630 -0.0797
33077ION     NA48886  16.969  13.801   5.682  0.0072  0.1231 -0.1006
33078ION     NA48887  10.048  15.871   5.505  0.2630 -0.2438 -0.0995
33079ION     NA48888  15.085   5.931  12.789  0.2833 -0.1911  0.4446
33080ION     NA48889   6.707  13.374   5.921  0.3151 -0.1330 -0.1565
33081ION     NA48890   9.995   2.358   6.116  0.0142  0.0730  0.2119
33082ION     NA48891   4.670  12.801  12.995  0.3452 -0.0472 -0.1533
33083ION     NA48892   4.485  10.217   5.356 -0.1467  0.1759  0.0555
33084ION     NA48893   1.423   5.373   3.066  0.0127  0.1206  0.1542
33085ION     NA48894  11.149  10.419   5.668 -0.0556  0.1838  0.2313
33086ION     NA48895  11.417  13.185   4.833  0.2150 -0.2427 -0.0591
33087ION     NA48896  13.853  15.888   3.062 -0.2941  0.5231 -0.1856
33088ION     NA48897  15.035  17.793   1.914 -0.1746 -0.1278 -0.1950
33089ION     NA48898  15.341   8.366   1.272 -0.1009 -0.2431  0.0294
33090ION     NA48899   7.853  15.350  14.779 -0.2283  0.3380 -0.1168
33091ION     NA48900  17.621  17.534   1.779 -0.3079  0.0495  0.0045
33092ION     NA48901   4.049  14.999   3.509 -0.0976  0.5205  0.1033
33093ION     NA48902   6.997   4.669   2.914 -0.0523  0.1596 -0.1072
33094ION     NA48903   0.632   5.759   0.568  0.1521 -0.0175  0.2257
33095ION     NA48904   0.219   7.307   5.997 -0.0641 -0.0689 -0.1160
33096ION     NA48905  10.379  16.762  11.696  0.0121 -0.0886 -0.2879
33097ION     NA48906  12.704  10.803   6.092 -0.2444 -0.4793 -0.3678
33098ION     NA48907   9.063  13.592   5.583  0.1073  0.0364  0.0248
33099ION     NA48908   2.145  14.526  13.309 -0.0083  0.0936  0.1561
33100ION     NA48909   4.433  12.794   5.786 -0.3067 -0.0326  0.2022
33101ION     NA48910  15.634  16.889  10.430 -0.1632  0.1100  0.0962
33102ION     NA48911  14.674   4.754  10.529  0.1052  0.0633  0.0864
33103ION     NA48912  10.862   4.922  14.493  0.0261 -0.0302 -0.1573
33104ION     NA48913  12.529   0.192   3.322  0.0022 -0.2554  0.3125
33105ION     NA48914  12.231  16.838   0.653  0.2676  0.2590  0.2218
33106ION     NA48915   3.718  11.107   3.477 -0.0306  0.1564  0.0279
33107ION     NA48916  18.017  13.429   0.422 -0.2089  0.0831 -0.0718
33108ION     NA48917  13.649  16.610  14.923  0.0856 -0.0033 -0.3706
33109ION     NA48918  14.230   6.741  10.754 -0.1299 -0.0661 -0.3058
33110ION     NA48919  16.611   0.055   5.513 -0.0877 -0.0277  0.1246
33111ION     NA48920   2.560   5.333  15.294 -0.1259  0.0594  0.4161
33112ION     NA48921   3.286   2.244   0.309  0.2379  0.0778 -0.0450
33113ION     NA48922   7.674   6.737   9.930 -0.2647  0.2297 -0.2969
33114ION     NA48923   6.036  13.940  10.318 -0.3363  0.0176  0.1670
33115ION     NA48924   4.251   6.900   4.076  0.1543  0.1664 -0.2071
33116ION     NA48925   3.399  13.277   1.239  0.2200 -0.0108 -0.0727
33117ION     NA48926  11.747   0.120   6.264  0.0374 -0.2965  0.2522
33118ION     NA48927  14.762   2.841  10.787  0.2554  0.0374 -0.2199
33119ION     NA48928   1.319   6.822  12.192  0.0501 -0.0448 -0.0732
33120ION     NA48929   9.937   1.911   2.079 -0.3709 -0.0200 -0.1167
33121ION     NA48930  13.686   4.480   2.683  0.1612  0.2651  0.0519
33122ION     NA48931   1.926   4.632   4.889  0.1968 -0.1345  0.1091
33123ION     NA48932   5.587   1.843   1.164 -0.1087 -0.0429 -0.1687
33124ION     NA48933   5.173   8.010   0.236 -0.4013  0.2477  0.2288
33125ION     NA48934  11.532   7.701   4.967 -0.2953  0.0484 -0.0474
33126ION     NA48935   2.503   5.932   5.367 -0.1765 -0.0462  0.1530
33127ION     NA48936   9.114  11.410   5.631  0.1210 -0.2022  0.1000
33128ION     NA48937   1.190   1.165  10.313 -0.0103 -0.2482  0.1805
33129ION     NA48938   4.410  12.779  10.468  0.0216 -0.2358  0.2695
33130ION     NA48939  10.548  10.431  15.113 -0.1922  0.5614  0.2428
33131ION     NA48940   6.793  14.118  10.245  0.1389 -0.1726  0.2124
33132ION     NA48941   1.521   2.661  14.101 -0.0149  0.2380  0.1163
33133ION     NA48942   6.974   8.222   9.853  0.0469  0.0710  0.1110
33134ION     NA48943   1.302  12.694   2.551 -0.1029 -0.2124 -0.2028
33135ION     NA48944   3.325   7.198  10.113  0.5023 -0.0967 -0.2541
33136ION     NA48945  11.409  12.582   0.246 -0.1904 -0.0581  0.0415
33137ION     NA48946   0.563   8.034  10.204  0.0729 -0.0913 -0.1121
33138ION     NA48947   3.441  12.326  10.238  0.0469 -0.0527  0.2347
33139ION     NA48948   7.461   5.564   5.491  0.0305  0.0543 -0.1304
33140ION     NA48949   6.012   2.959  10.261  0.0567 -0.1061  0.1092
33141ION     NA48950   9.230   6.831  10.243 -0.0050  0.0737 -0.1674
33142ION     NA48951   7.587  11.183  15.129 -0.1308  0.3071  0.0208
33143ION     NA48952  13.903   6.284   0.792 -0.1928 -0.0492 -0.2690
33144ION     NA48953   1.488  15.412   2.296 -0.0897 -0.2311  0.0321
33145ION     NA48954  16.661  13.737  10.302 -0.1091  0.1802  0.0776
33146ION     NA48955   3.791   4.298  14.224 -0.0181  0.0087 -0.0264
33147ION     NA48956  17.750   2.874   0.046  0.0591 -0.1700 -0.0329
33148ION     NA48957   6.109  10.120   5.849  0.1269  0.0148  0.0425
33149ION     NA48958   7.573   4.919   5.762 -0.2715  0.0117  0.0617
33150ION     NA48959  15.973  16.539  10.278 -0.2744 -0.0005  0.2248
33151ION     NA48960   0.722  11.640   4.101 -0.1403 -0.1079 -0.0109
33152ION     NA48961   8.058   9.262   9.917 -0.0689  0.1915  0.1222
33153ION     NA48962  16.578   6.967  10.281 -0.0064 -0.2314  0.1780
33154ION     NA48963   1.970   4.904   1.273  0.0801 -0.1918  0.2633
33155ION     NA48964   8.647   5.830   0.751  0.0506 -0.1454  0.0036
33156ION     NA48965  14.220  14.625  15.987 -0.0611 -0.2622 -0.0019
33157ION     NA48966  15.220   6.968   3.100 -0.1601  0.0580  0.0483
33158ION     NA48967   2.742  13.080  15.982 -0.1464 -0.0558 -0.0254
33159ION     NA48968  15.932   4.050   2.423 -0.3112  0.0420 -0.1044
33160ION     NA48969   6.205  16.317   0.858 -0.0020 -0.0831 -0.0656
33161ION     NA48970  12.456  10.354   6.056 -0.0857  0.0461  0.2225
33162ION     NA48971  14.515  18.060  10.638  0.0279  0.2983 -0.1832
33163ION     NA48972   3.573   3.882  10.222  0.0352  0.0523  0.3730
33164ION     NA48973   8.478   4.047   1.264  0.3884 -0.1493  0.2907
33165ION     NA48974  10.331  13.647   0.132  0.0193 -0.1291  0.1882
33166ION     NA48975   0.409  12.060   5.678 -0.1866  0.1259  0.0276
33167ION     NA48976  14.110  14.192   9.997  0.0010  0.3031 -0.1043
33168ION     NA48977   0.328   3.727   5.568 -0.0724  0.0754  0.1719
33169ION     NA48978  16.222  15.628  14.605 -0.0126 -0.2558 -0.2185
33170ION     NA48979  14.491   3.961   5.742  0.0578 -0.1585  0.1727
33171ION     NA48980  16.053   6.900  10.357  0.0036  0.0479 -0.2094
33172ION     NA48981  13.847  12.587  10.403  0.0834 -0.3485  0.1442
33173ION     NA48982   3.246  15.851  10.370  0.0790 -0.2495  0.2765
33174ION     NA48983   2.975  17.546  12.116  0.2448  0.2422  0.4438
33175ION     NA48984  10.409   5.773   2.888 -0.0885 -0.0338 -0.1500
33176ION     NA48985   5.260   7.319  14.570 -0.1515 -0.3262 -0.0202
33177ION     NA48986   5.385  12.310   2.711 -0.1260 -0.1151  0.1163
33178ION     NA48987  13.536  13.502   3.559  0.1800  0.2108  0.2028
33179ION     NA48988  12.051   1.686   3.352  0.3073 -0.0356  0.0445
33180ION     NA48989  13.219  14.342  13.334 -0.0856  0.2281 -0.1981
33181ION     NA48990  10.036  12.049  15.759 -0.2355 -0.0439 -0.3083
33182ION     NA48991   5.256  17.689   0.934 -0.0030 -0.0656 -0.0031
33183ION     NA48992  10.953  17.482   4.428 -0.2884 -0.0402 -0.0300
33184ION     NA48993  10.222   4.822   0.392  0.1249 -0.0502  0.1040
33185ION     NA48994   1.503   5.263  14.192 -0.0787 -0.1062 -0.2320
33186ION     NA48995  16.819  17.455  12.897  0.0181 -0.0850  0.1948
33187ION     NA48996   0.017  17.866   0.849  0.2105 -0.2219  0.1082
33188ION     NA48997  10.396   1.228   0.598  0.1950  0.0392 -0.0997
33189ION     NA48998  17.160  10.066  10.210  0.0870  0.0106  0.0523
33190ION     NA48999   7.220  17.762   2.256 -0.0397 -0.0886 -0.1198
33191ION     NA49000   6.384   3.894   1.424  0.0451 -0.0789  0.0480
33192ION     NA49001  11.436   3.387  15.062 -0.0185 -0.0477  0.2048
33193ION     NA49002   3.761  17.158   6.227  0.1268 -0.2965 -0.1250
33194ION     NA49003   1.467   8.406   5.822  0.0791  0.4992  0.1372
33195ION     NA49004   2.561  10.235  11.887  0.1020  0.1426 -0.0788
33196ION     NA49005  15.126   9.307   0.944 -0.3881 -0.0952  0.0668
33197ION     NA49006   0.190   0.712  10.250 -0.3301  0.1594  0.1099
33198ION     NA49007  15.893   1.809   6.088  0.1151  0.3717 -0.0880
33199ION     NA49008   0.344   1.543   3.183 -0.0481  0.1299  0.0151
33200ION     NA49009  12.166   7.830  13.374 -0.1636  0.0621  0.0921
33201ION     NA49010   6.028  17.929  10.647 -0.3520 -0.0999  0.1027
33202ION     NA49011   9.395   3.736   5.757  0.6025  0.0825 -0.0838
33203ION     NA49012   8.358   4.595   5.766 -0.1125 -0.1440 -0.0311
33204ION     NA49013   9.098  10.511   5.652  0.0065 -0.1545  0.0325
33205ION     NA49014   7.602  16.726   6.109  0.0556  0.2868 -0.0755
33206ION     NA49015  13.830   8.299  15.685  0.1111  0.1519  0.2343
33207ION     NA49016   3.291   1.466   6.084  0.2816 -0.0820  0.2362
33208ION     NA49017  15.872   8.139   5.921 -0.0261 -0.1972 -0.1925
33209ION     NA49018   6.497   3.438   2.807  0.1783 -0.0285  0.0181
33210ION     NA49019  16.878   4.692  12.647 -0.0462  0.1381 -0.0034
33211ION     NA49020  12.360   4.948  12.953 -0.0088 -0.0887  0.0800
33212ION     NA49021   4.916  17.705   0.077 -0.1500 -0.0940  0.2557
33213ION     NA49022  17.685  11.293   0.991  0.1085  0.1839  0.0123
33214ION     NA49023  11.854   2.196   2.199  0.1852 -0.3166 -0.1060
33215ION     NA49024   6.832   5.443  13.770  0.1886  0.2609 -0.1486
33216ION     NA49025   2.041   2.898   3.986  0.3187 -0.0411  0.1350
33217ION     NA49026   9.382   9.239   1.799 -0.4271 -0.0346  0.2273
33218ION     NA49027  12.858  14.897  13.982 -0.2470 -0.1779 -0.1347
33219ION     NA49028   5.933   0.604  10.898  0.0042  0.1358 -0.2043
33220ION     NA49029   2.970  11.266   4.738  0.1493  0.0368 -0.0374
33221ION     NA49030   6.975  10.991  15.689 -0.0485  0.1635 -0.1505
33222ION     NA49031  18.199   1.697  10.448  0.0114  0.0650 -0.0986
33223ION     NA49032  16.990   5.144  14.888 -0.1540  0.0039  0.2356
33224ION     NA49033  10.812  14.329   5.826 -0.2365  0.3450 -0.3496
33225ION     NA49034   9.751  15.216  10.006 -0.0160 -0.2871 -0.0032
33226ION     NA49035   5.052  10.189  10.184  0.1015  0.3293 -0.1747
33227ION     NA49036   9.786   6.235   5.727  0.1257  0.1265  0.1040
33228ION     NA49037   0.843  10.245  13.468  0.2790  0.1392  0.0007
33229ION     NA49038  12.429  17.547   3.299 -0.4857  0.1107 -0.0882
33230ION     NA49039   2.156  10.516   9.985  0.3123 -0.0362 -0.0570
33231ION     NA49040   8.943  10.404  12.455  0.1645 -0.2299  0.1772
33232ION     NA49041   5.961  11.022  14.824  0.4256  0.0095  0.0748
33233ION     NA49042   2.630   2.530   2.624  0.1110 -0.1905  0.0138
33234ION     NA49043  11.999   9.255   2.215  0.0592 -0.0706 -0.2180
33235ION     NA49044   0.686  14.105   3.685 -0.0650  0.0603 -0.0256
33236ION     NA49045  12.653   6.933   5.381 -0.1546  0.2071  0.0213
33237ION     NA49046   5.923   7.358   5.598 -0.1608  0.2687  0.1596
33238ION     NA49047  13.546   2.228  13.902  0.1042 -0.0284 -0.1362
33239ION     NA49048   3.968   8.155  13.415 -0.3154  0.1731 -0.1162
33240ION     NA49049   0.194  12.534   2.041  0.1364 -0.1087  0.1249
33241ION     NA49050   6.020  16.855   5.701 -0.1068  0.1465  0.0088
33242ION     NA49051   4.494   1.326   2.925 -0.1208  0.1031 -0.4898
33243ION     NA49052   6.091  15.571   5.728  0.1421 -0.0939 -0.0211
33244ION     NA49053   9.800   1.478   5.950 -0.0221  0.1181 -0.1419
33245ION     NA49054  17.614  10.820   5.383  0.0930 -0.0459  0.2008
33246ION     NA49055   6.449   6.265  15.405 -0.5124 -0.0938 -0.2283
33247ION     NA49056   0.726   2.321  13.224 -0.0888  0.3028  0.2235
33248ION     NA49057  16.622  15.921  10.501  0.1774  0.0663  0.2433
33249ION     NA49058   5.177  17.719  10.391  0.1116  0.3233  0.1838
33250ION     NA49059  10.453  10.600  11.797  0.0805 -0.3602 -0.0593
33251ION     NA49060   5.798   9.942  15.221 -0.0795  0.2289 -0.0505
33252ION     NA49061   7.283   8.886  15.702 -0.1600  0.0287 -0.2036
33253ION     NA49062   3.871  17.555   0.988 -0.1737  0.0213 -0.0418
33254ION     NA49063   5.969   6.783   2.193 -0.0531  0.2048  0.1786
33255ION     NA49064   8.025   0.094   0.301  0.1307 -0.1371  0.0658
33256ION     NA49065   4.818   1.084   3.601  0.1051  0.0927  0.0478
33257ION     NA49066  15.975  12.677   0.708  0.1209  0.0480 -0.1335
33258ION     NA49067   3.928   4.365   5.628 -0.2309 -0.0320  0.0409
33259ION     NA49068  14.127  17.921   4.921 -0.1420 -0.0046  0.0643
33260ION     NA49069   2.401   5.301  10.088 -0.0378  0.2125 -0.0257
33261ION     NA49070  14.844   6.121  10.547 -0.1548  0.0157 -0.1839
33262ION     NA49071   9.883  15.028  12.462 -0.0985 -0.0556  0.1970
33263ION     NA49072   7.153  11.124  10.217 -0.1476 -0.2664 -0.1319
33264ION     NA49073   2.971  10.178   0.713 -0.2852  0.0797 -0.1659
33265ION     NA49074  12.284   6.738   2.253  0.0510  0.2587  0.3016
33266ION     NA49075  17.004  12.657   5.708 -0.2543 -0.2238 -0.0130
33267ION     NA49076  17.840  15.833  13.541  0.1152 -0.1046  0.0544
33268ION     NA49077   6.360  16.921   3.175  0.0491 -0.0258  0.0239
33269ION     NA49078   8.911  11.418   1.510  0.2636 -0.1557  0.0316
33270ION     NA49079   6.930   2.865  10.111  0.0600  0.0812 -0.1168
33271ION     NA49080  14.639   3.221  10.425  0.1754  0.1401 -0.0068
33272ION     NA49081  17.892  13.049  15.563  0.1612  0.0022 -0.2210
33273ION     NA49082  17.763  16.967  10.430  0.1813 -0.1651  0.1564
33274ION     NA49083  16.093   9.890  12.295 -0.1775 -0.3115 -0.0209
33275ION     NA49084  17.238   9.382  10.140  0.0498 -0.2071 -0.1451
33276ION     NA49085  10.873   1.554   1.929 -0.4190  0.1106 -0.1103
33277ION     NA49086   0.365  12.032   3.385 -0.1945  0.5043 -0.0445
33278ION     NA49087  13.444  14.908   5.449 -0.2584 -0.4163 -0.0797
33279ION     NA49088  12.294  18.030  15.753  0.2684 -0.2988  0.1124
33280ION     NA49089   0.942   6.642  15.129 -0.1711  0.1600 -0.2022
33281ION     NA49090  11.534  11.716  13.467  0.0125  0.0464 -0.2627
33282ION     NA49091  10.638  11.195   3.569 -0.1370  0.3743 -0.2153
33283ION     NA49092   8.080  12.781  10.295 -0.3073  0.4273  0.0478
33284ION     NA49093   1.119  17.758  12.364  0.2917 -0.2336  0.1738
33285ION     NA49094   1.115  13.927  10.178  0.3985 -0.1609 -0.1731
33286ION     NA49095  11.124   5.094  10.707 -0.2765 -0.1166 -0.1410
33287ION     NA49096  14.043   5.425  10.482  0.2166  0.0556  0.1590
33288ION     NA49097   8.413   0.803   5.777 -0.0250 -0.1606 -0.1790
33289ION     NA49098   8.496   4.395  15.079 -0.0525 -0.3341  0.0672
33290ION     NA49099  11.428  14.569  10.415  0.1898  0.2386 -0.2286
33291ION     NA49100   7.621   5.271   3.269 -0.0441  0.2024 -0.1300
33292ION     NA49101   2.480   9.005  10.130  0.0238 -0.1384 -0.0876
33293ION     NA49102  17.547  15.577  10.355 -0.0289  0.1964  0.0791
33294ION     NA49103   9.578  10.587  13.826 -0.1440 -0.0444 -0.2214
33295ION     NA49104   8.538   8.078   5.147  0.0740  0.2056  0.2405
33296ION     NA49105  17.267  17.574   0.139  0.0217  0.0639 -0.1743
33297ION     NA49106  14.834  17.854  15.215 -0.0429 -0.2438  0.0254
33298ION     NA49107  17.772  13.348   5.718 -0.0616 -0.1804 -0.0640
33299ION     NA49108   7.815   3.498  13.786 -0.2183  0.1163  0.0616
33300ION     NA49109  14.960  17.657   4.602 -0.1590  0.2467  0.0249
33301ION     NA49110   7.839   4.356  10.163  0.1020 -0.0625  0.0504
33302ION     NA49111  12.344  14.122  10.134  0.2093  0.1235  0.0655
33303ION     NA49112  15.680   2.964  10.562 -0.2350 -0.0507  0.1812
33304ION     NA49113  15.525   6.820   0.500  0.3697 -0.0671  0.0521
33305ION     NA49114   3.460   0.491   4.175 -0.2723  0.0715 -0.1160
33306ION     NA49115   0.938   0.908   4.263 -0.2424  0.1022 -0.1501
33307ION     NA49116   8.055  12.122  12.773 -0.0634  0.3206 -0.1571
33308ION     NA49117   3.321   9.976   2.236 -0.0163  0.1006  0.0344
33309ION     NA49118  15.103   5.380   5.444 -0.0018  0.4464 -0.0187
33310ION     NA49119   2.115  13.103  13.652 -0.0025  0.1048  0.2517
33311ION     NA49120  11.837   4.069   2.314 -0.1186  0.0994  0.1997
33312ION     NA49121  16.686   2.428  13.301 -0.1917 -0.0925  0.1059
33313ION     NA49122   0.916   5.567   5.494  0.1410  0.0532 -0.1981
33314ION     NA49123  13.012  13.704  10.334  0.0295 -0.0465  0.1073
33315ION     NA49124  14.771   0.691  10.451 -0.2293 -0.2799  0.0948
33316ION     NA49125   4.225  15.552  10.302 -0.1729 -0.2147 -0.1579
33317ION     NA49126  14.418  14.217   2.709  0.2637  0.0717 -0.0479
33318ION     NA49127   1.276  15.395  10.096  0.1049 -0.0591  0.0731
33319ION     NA49128  13.304   8.017   3.166 -0.1038  0.4423  0.0634
33320ION     NA49129   3.125   5.509   4.872 -0.2660  0.0277 -0.0560
33321ION     NA49130   1.767  12.242  14.905  0.0250 -0.1202 -0.2507
33322ION     NA49131   3.932  16.726  14.545  0.0652 -0.1604 -0.1289
33323ION     NA49132  15.639   2.370  12.240 -0.0027 -0.2739  0.0155
33324ION     NA49133  13.427  13.329   0.952 -0.1747 -0.0812  0.0187
33325ION     NA49134   8.804  16.934  10.132  0.3135 -0.1415  0.0714
33326ION     NA49135  13.555  17.906   2.592  0.0766  0.2214 -0.0172
33327ION     NA49136   6.060   1.090   3.655 -0.0505  0.1051  0.1777
33328ION     NA49137   0.596  11.524  14.727  0.1379  0.2414 -0.2425
33329ION     NA49138  10.065   1.434  15.316 -0.1055  0.2494 -0.2501
33330ION     NA49139  14.656  10.044  14.850  0.2340 -0.3748 -0.0581
33331ION     NA49140  16.915   7.745  10.164 -0.1109 -0.0122 -0.1167
33332ION     NA49141  14.185   3.582   3.972 -0.1135  0.1763  0.0302
33333ION     NA49142  12.419   7.150   0.299 -0.2144  0.2634  0.0925
33334ION     NA49143  13.372  15.393  10.183  0.0693 -0.0557  0.0391
33335ION     NA49144   5.573   0.009   2.412 -0.1470 -0.3510 -0.1413
33336ION     NA49145  14.889  15.594   0.986 -0.0071 -0.1941  0.1241
33337ION     NA49146   0.840  11.479   2.619 -0.0706  0.3239 -0.0938
33338ION     NA49147  13.112  14.876   2.971 -0.1552  0.0669 -0.0335
33339ION     NA49148  16.556  15.443   3.974  0.0387 -0.0713 -0.2448
33340ION     NA49149   4.252  13.125   2.338 -0.2306 -0.0388  0.2596
33341ION     NA49150  17.452   6.544   5.609  0.1569 -0.1239  0.1319
33342ION     NA49151   6.377   5.474   3.645 -0.1313 -0.0470  0.1073
33343ION     NA49152  11.448  12.926  15.579 -0.0714 -0.0747  0.1304
33344ION     NA49153  11.348  10.475   4.328 -0.1339 -0.0391 -0.0461
33345ION     NA49154   8.185   5.878  14.351  0.0471 -0.1463  0.4733
33346ION     NA49155   3.370   9.241  10.034  0.2754  0.1853 -0.2085
33347ION     NA49156  10.774  13.604   4.562  0.0346  0.2964 -0.1455
33348ION     NA49157  14.053  15.708  10.108  0.1419 -0.0883  0.0074
33349ION     NA49158   8.680   8.525   9.734  0.2757  0.0552  0.1347
33350ION     NA49159   0.450   2.508  10.721 -0.0867  0.0156  0.0926
33351ION     NA49160  15.980   2.126  10.441  0.0329  0.2167 -0.2465
33352ION     NA49161  11.521  16.517  13.872 -0.1466  0.0794 -0.0932
33353ION     NA49162  16.685  15.389  10.565 -0.0564  0.3868  0.0964
33354ION     NA49163  11.439   6.488  14.547 -0.3359 -0.0083  0.3230
33355ION     NA49164  10.882  17.106  14.243  0.1534  0.0002  0.0373
33356ION     NA49165   2.374   5.928  12.421  0.1993  0.2733 -0.1525
33357ION     NA49166   6.935  12.833   3.726 -0.0066 -0.2649  0.1564
33358ION     NA49167  15.249  11.153  10.177  0.0260 -0.2941  0.1824
33359ION     NA49168   3.271  14.293   4.367 -0.1987 -0.1162  0.1990
33360ION     NA49169  10.626   0.487  10.566 -0.2152 -0.2971 -0.1544
33361ION     NA49170  18.239   9.966   0.989 -0.1067 -0.1877  0.0806
33362ION     NA49171  15.505   3.171   5.021  0.0531  0.0494  0.2304
33363ION     NA49172   8.621  16.993  12.655  0.0038  0.0083  0.0031
33364ION     NA49173   3.025  12.324   5.894 -0.3088 -0.2173  0.0687
33365ION     NA49174  12.612   2.803   0.747  0.0492 -0.1377  0.2257
33366ION     NA49175   1.602   8.040   0.162  0.1318  0.0110 -0.0128
33367ION     NA49176  11.457  17.480   1.265 -0.0332  0.2788 -0.1163
33368ION     NA49177   2.459   5.070   5.563 -0.1786 -0.2898 -0.1473
33369ION     NA49178  10.498  12.719   0.183 -0.0012 -0.3864  0.1831
33370ION     NA49179   6.181  18.239   5.630 -0.1977 -0.1815 -0.2236
33371ION     NA49180  16.842   5.217   5.666 -0.1989  0.0999 -0.2533
33372ION     NA49181   0.444  17.948   5.630 -0.0301  0.0944 -0.1317
33373ION     NA49182  14.190   4.332   5.895 -0.1319 -0.1989 -0.1399
33374ION     NA49183   3.931   3.725   3.343 -0.2254  0.3267  0.1271
33375ION     NA49184   5.368   3.325   0.828  0.1628  0.2718  0.0697
33376ION     NA49185   8.709   5.689  10.074 -0.0774 -0.1447  0.2426
33377ION     NA49186   5.561  12.095  10.297 -0.1999 -0.3602 -0.2536
33378ION     NA49187  11.949   8.593  15.871  0.0054 -0.0897 -0.0623
33379ION     NA49188  13.967   0.481  10.435  0.2156 -0.0203 -0.0186
33380ION     NA49189  13.844  17.585  11.843 -0.3528  0.1334  0.0938
33381ION     NA49190   0.148   4.863  10.528 -0.0101 -0.1160 -0.3245
33382ION     NA49191   9.082   3.908   0.141 -0.2496 -0.0346  0.1974
33383ION     NA49192   3.601   6.437   5.203 -0.0564 -0.1524 -0.1911
33384ION     NA49193   8.941   1.194   2.745 -0.2123  0.1524 -0.1854
33385ION     NA49194   8.456  16.309  11.155  0.0735  0.1597 -0.2760
33386ION     NA49195   4.458  10.382   2.576  0.0543 -0.4006  0.2130
33387ION     NA49196   2.480  18.224  10.224  0.0656 -0.0212  0.1547
33388ION     NA49197   6.194   7.324   3.748 -0.0912  0.0016  0.0029
33389ION     NA49198   6.681   8.511   3.708  0.1579 -0.0601  0.1074
33390ION     NA49199  18.106  14.443   1.211  0.0007 -0.2412 -0.3983
33391ION     NA49200  15.410   4.122   5.407  0.1305 -0.0024  0.0481
33392ION     NA49201  12.115   4.772   1.414 -0.3460 -0.0603  0.0887
33393ION     NA49202   8.499  14.430   9.944  0.2089 -0.4451 -0.1881
33394ION     NA49203  18.075   4.139  14.643 -0.1979  0.0633  0.0440
33395ION     NA49204   4.627   1.161  15.781 -0.2305  0.1565 -0.0324
33396ION     NA49205   2.477   7.927  14.982  0.3205 -0.0992  0.1455
33397ION     NA49206  15.522   6.223   4.888 -0.0135  0.2727 -0.0502
33398ION     NA49207   6.847  18.216   1.483  0.0693  0.0974 -0.1609
  18.26839  18.26839  16.07318
